Title
82321
    1SAPS     N    1   2.505   4.376  11.095  0.5286  0.5891 -0.2586
    1SAPS   HN1    2   2.579   4.343  11.161  1.1552  1.6302 -0.4236
    1SAPS   HN2    3   2.477   4.296  11.035  0.1819 -1.2185  2.1715
    1SAPS   HN3    4   2.558   4.446  11.038 -1.1680  1.9479 -0.2390
    1SAPS   C12    5   2.395   4.449  11.166 -0.0483 -0.9156  0.3066
    1SAPS  H12A    6   2.322   4.480  11.093  2.1646  0.8825 -1.3247
    1SAPS   C13    7   2.338   4.380  11.288  0.4885  1.2588  0.4033
    1SAPS  O13A    8   2.377   4.259  11.308  0.0465 -0.0494  0.3666
    1SAPS  O13B    9   2.253   4.432  11.364 -0.1553 -0.7977  0.0385
    1SAPS   C11   10   2.455   4.583  11.223  0.2708 -0.0394 -0.4808
    1SAPS  H11A   11   2.517   4.569  11.314  1.9661 -0.1659 -1.6240
    1SAPS  H11B   12   2.365   4.639  11.259  0.1914 -1.2889  1.4282
    1SAPS     P   13   2.516   4.798  11.082  0.1950 -0.0827  0.1348
    1SAPS   O13   14   2.507   4.893  11.193 -0.2185 -0.2199  0.7880
    1SAPS   O14   15   2.634   4.823  11.001 -0.6279 -0.4550  0.5200
    1SAPS   O12   16   2.537   4.649  11.133 -0.5440  0.1316  0.4427
    1SAPS   O11   17   2.378   4.802  10.993 -0.1015  0.6280 -0.1625
    1SAPS    C1   18   2.360   4.706  10.884  0.1277 -0.0343 -0.5471
    1SAPS    HA   19   2.383   4.600  10.907 -1.4223 -0.6194 -1.5624
    1SAPS    HB   20   2.251   4.698  10.863  0.2699 -2.1962 -0.6603
    1SAPS    C2   21   2.435   4.741  10.760 -0.4103 -0.0833 -0.1228
    1SAPS    HS   22   2.541   4.735  10.794 -0.2474 -0.8726 -0.7608
    1SAPS   O21   23   2.400   4.876  10.713  0.1278  0.0325  0.1920
    1SAPS   C21   24   2.494   4.947  10.664  0.7377 -1.8113  0.3029
    1SAPS   O22   25   2.609   4.913  10.642 -0.0150  0.2713  0.1223
    1SAPS   C22   26   2.435   5.082  10.628  0.5495 -0.2531  0.4593
    1SAPS   H2R   27   2.377   5.079  10.534 -0.5632  1.5191  1.0269
    1SAPS   H2S   28   2.366   5.120  10.707 -2.1271  0.2721 -1.9598
    1SAPS    C3   29   2.427   4.631  10.650  0.0192 -0.2376 -0.3449
    1SAPS    HX   30   2.320   4.613  10.627 -0.3490  0.7709  0.5072
    1SAPS    HY   31   2.459   4.541  10.706 -2.3555  0.0044  1.5614
    1SAPS   O31   32   2.508   4.658  10.528  0.1182  0.4170  0.4568
    1SAPS   C31   33   2.633   4.616  10.536 -0.8882  0.0706 -0.1541
    1SAPS   O32   34   2.682   4.565  10.641  0.0027 -0.0697  0.5732
    1SAPS   C32   35   2.715   4.653  10.416 -0.3190 -0.5587  0.0587
    1SAPS   H2X   36   2.802   4.585  10.406 -0.1405 -0.1502 -1.4741
    1SAPS   H2Y   37   2.737   4.762  10.423 -1.5758 -0.2929  0.0396
    1SAPS   C23   38   2.541   5.190  10.598 -1.1542 -0.0754 -0.1652
    1SAPS   H3R   39   2.625   5.185  10.671 -1.7218  0.1158  0.5108
    1SAPS   H3S   40   2.511   5.295  10.618  1.2802  0.5193  0.7006
    1SAPS   C24   41   2.600   5.180  10.454 -0.0637  0.5393  0.2497
    1SAPS   H4R   42   2.527   5.145  10.378  0.0417 -1.3217  0.9500
    1SAPS   H4S   43   2.668   5.093  10.446 -0.8839 -0.1588  0.7437
    1SAPS   C25   44   2.677   5.300  10.407 -0.2275  0.2424  0.0531
    1SAPS   H5R   45   2.619   5.391  10.427 -1.2105 -0.9320  3.1821
    1SAPS   C26   46   2.808   5.304  10.383 -0.1321 -1.0192  0.4804
    1SAPS   H6R   47   2.854   5.399  10.351  0.6741 -1.3880  0.5143
    1SAPS   C27   48   2.912   5.193  10.380 -0.2249 -0.0386  0.6365
    1SAPS   H7R   49   2.944   5.185  10.274  0.4036 -1.6601  0.9219
    1SAPS   H7S   50   2.872   5.096  10.415  1.2511 -1.0515 -0.3629
    1SAPS   C28   51   3.047   5.216  10.446 -0.2317  0.0728  0.2157
    1SAPS   H8R   52   3.083   5.315  10.477  2.6396 -1.0034  0.6285
    1SAPS   C29   53   3.136   5.116  10.462 -0.0993  0.0087  1.0511
    1SAPS   H9R   54   3.235   5.145  10.499  0.9197  0.0364 -1.5578
    1SAPS  C210   55   3.127   4.972  10.410 -0.1298  0.0498 -0.1725
    1SAPS  H10R   56   3.027   4.935  10.380  0.2698 -1.0497 -0.2043
    1SAPS  H10S   57   3.165   4.919  10.499  1.4576  3.8177  1.6323
    1SAPS  C211   58   3.231   4.934  10.309  0.2145  0.1254  0.1379
    1SAPS  H11R   59   3.333   4.972  10.328 -0.0400  0.9412 -0.1073
    1SAPS  C212   60   3.218   4.861  10.201  0.3987 -0.4202  0.2804
    1SAPS  H12R   61   3.310   4.833  10.147 -0.6708 -3.6664 -0.0964
    1SAPS  C213   62   3.094   4.802  10.150 -0.4386 -0.4303 -0.6338
    1SAPS  H13R   63   3.026   4.783  10.235  0.3273 -2.5376 -0.4289
    1SAPS  H13S   64   3.120   4.704  10.103  4.1009  0.6522 -0.8718
    1SAPS  C214   65   3.018   4.899  10.053 -0.1195 -0.9282  0.1161
    1SAPS  H14R   66   2.950   4.973  10.098 -1.3062 -0.3852 -2.3951
    1SAPS  C215   67   3.016   4.910   9.922 -0.1416 -0.1093  0.7334
    1SAPS  H15R   68   2.960   4.993   9.875 -0.2023 -0.1698  0.7000
    1SAPS  C216   69   3.099   4.822   9.834 -0.5854 -0.0919  0.5351
    1SAPS  H16R   70   3.058   4.724   9.799  5.3377 -2.4479 -0.9606
    1SAPS  H16S   71   3.190   4.790   9.889 -0.4498 -0.5331  0.0660
    1SAPS  C217   72   3.128   4.885   9.697  0.6470  0.5052  0.2530
    1SAPS  H17R   73   3.177   4.802   9.641 -0.8471  0.2300 -0.6922
    1SAPS  H17S   74   3.196   4.973   9.698  0.7640  0.4152  0.2603
    1SAPS  C218   75   3.005   4.920   9.607 -0.1393 -0.3555  0.2348
    1SAPS  H18R   76   2.978   5.027   9.625  1.8549  0.5303 -1.5524
    1SAPS  H18S   77   2.914   4.862   9.632  1.0965 -1.8756  1.3736
    1SAPS  C219   78   3.024   4.913   9.458  0.2832 -1.0899  0.8647
    1SAPS  H19R   79   3.055   4.811   9.426  1.3364 -1.5169  3.0721
    1SAPS  H19S   80   3.109   4.979   9.432 -1.5023  1.3423  0.8917
    1SAPS  C220   81   2.905   4.960   9.376  0.9298 -0.3360  0.0817
    1SAPS  H20R   82   2.903   5.071   9.368 -0.4003 -0.4488 -1.6711
    1SAPS  H20S   83   2.814   4.920   9.426  1.0981  0.4181  1.0235
    1SAPS  H20T   84   2.911   4.928   9.270  0.4356 -1.4245  0.3629
    1SAPS   C33   85   2.630   4.657  10.279 -0.3707  0.0866  0.0622
    1SAPS   H3X   86   2.537   4.717  10.284  0.1086  0.8440 -0.0374
    1SAPS   H3Y   87   2.597   4.554  10.251 -0.4971  0.6322 -1.9597
    1SAPS   C34   88   2.719   4.710  10.167 -0.1916 -0.5013 -0.2252
    1SAPS   H4X   89   2.800   4.645  10.127  0.5669  0.6999 -0.6769
    1SAPS   H4Y   90   2.774   4.796  10.210  0.5844 -0.3423 -1.4907
    1SAPS   C35   91   2.631   4.784  10.060 -0.2090  0.9153 -0.3089
    1SAPS   H5X   92   2.531   4.739  10.047 -0.1415  0.5491  0.3900
    1SAPS   H5Y   93   2.689   4.794   9.965 -1.1970 -0.9945 -1.1604
    1SAPS   C36   94   2.607   4.935  10.096  0.5942  0.6605  0.2256
    1SAPS   H6X   95   2.705   4.989  10.100  1.5532 -1.0979  2.9405
    1SAPS   H6Y   96   2.558   4.952  10.194  2.1460  1.0897  0.9564
    1SAPS   C37   97   2.518   4.997   9.985 -0.3396 -0.1438  0.6388
    1SAPS   H7X   98   2.486   5.099  10.016 -0.1775  0.3469 -0.7414
    1SAPS   H7Y   99   2.427   4.933   9.986 -0.5929  0.2140  1.3247
    1SAPS   C38  100   2.590   5.001   9.844 -0.3077 -1.4258 -0.2511
    1SAPS   H8X  101   2.617   4.897   9.814 -0.6673 -1.5895 -0.0170
    1SAPS   H8Y  102   2.688   5.050   9.860 -1.5546  0.7558  1.2646
    1SAPS   C39  103   2.512   5.079   9.733  0.2131  0.2572  0.1858
    1SAPS   H9X  104   2.487   5.186   9.747 -2.5520 -0.5095  1.7559
    1SAPS   H9Y  105   2.418   5.029   9.703  0.5729  1.4673 -3.5691
    1SAPS  C310  106   2.589   5.070   9.593 -0.1939 -0.2654  0.6289
    1SAPS  H10X  107   2.581   4.968   9.549  2.3858  0.6510 -2.3435
    1SAPS  H10Y  108   2.698   5.086   9.608 -0.3552  0.6813  0.7941
    1SAPS  C311  109   2.537   5.169   9.492  0.6798  0.2167 -0.1608
    1SAPS  H11X  110   2.563   5.274   9.514  0.1455  0.7114 -1.7259
    1SAPS  H11Y  111   2.428   5.148   9.491  0.6705  0.1407  1.0011
    1SAPS  C312  112   2.587   5.139   9.346 -0.5366 -0.4993 -1.1538
    1SAPS  H12X  113   2.585   5.028   9.347  0.2799 -0.5167 -0.3896
    1SAPS  H12Y  114   2.694   5.167   9.355 -0.2980 -1.1675 -1.8913
    1SAPS  C313  115   2.512   5.213   9.241  0.1270 -0.4551 -0.7203
    1SAPS  H13X  116   2.533   5.322   9.254 -0.2000 -0.4872  0.1683
    1SAPS  H13Y  117   2.403   5.202   9.257  0.1696  0.8087  0.6497
    1SAPS  C314  118   2.558   5.174   9.094 -0.1818 -0.9957 -0.0840
    1SAPS  H14X  119   2.540   5.066   9.081  0.9596 -1.0082 -2.1375
    1SAPS  H14Y  120   2.669   5.185   9.088 -0.1380  1.2481  2.7950
    1SAPS  C315  121   2.489   5.276   8.995  1.1165  0.6986  0.3346
    1SAPS  H15X  122   2.520   5.381   9.016  1.9932  0.6134 -0.4421
    1SAPS  H15Y  123   2.379   5.281   9.006  0.9998  0.7993 -0.7565
    1SAPS  C316  124   2.507   5.224   8.851 -0.3175 -0.2265  0.2428
    1SAPS  H16X  125   2.452   5.127   8.850 -1.5568  0.4438  0.7506
    1SAPS  H16Y  126   2.614   5.213   8.825 -0.4785 -1.0447 -0.0935
    1SAPS  C317  127   2.449   5.322   8.744  0.4181 -0.8591 -0.0567
    1SAPS  H17X  128   2.474   5.428   8.761  1.2374 -1.2468  1.2546
    1SAPS  H17Y  129   2.338   5.323   8.749  0.4264 -0.8798  0.1309
    1SAPS  C318  130   2.493   5.275   8.606  0.1199  0.2688  0.4304
    1SAPS  H18X  131   2.433   5.327   8.528  2.0925  0.8429 -0.7897
    1SAPS  H18Y  132   2.479   5.165   8.594 -1.3255  0.5128 -0.2682
    1SAPS  H18Z  133   2.599   5.300   8.582 -0.3168  0.7988 -1.0645
    2SAPS     N  134   0.200   5.594  10.960  0.6450  0.0240  0.2946
    2SAPS   HN1  135   0.280   5.632  11.015  0.3815 -0.4484  1.0300
    2SAPS   HN2  136   0.176   5.668  10.892 -2.4874 -1.4840 -0.4479
    2SAPS   HN3  137   0.116   5.576  11.019  1.4600  1.6149  2.0623
    2SAPS   C12  138   0.232   5.468  10.900  0.1741  0.0802 -0.0559
    2SAPS  H12A  139   0.331   5.474  10.857  1.1357 -2.4214  1.5483
    2SAPS   C13  140   0.238   5.344  10.995 -0.6672  0.2117  0.0769
    2SAPS  O13A  141   0.214   5.361  11.119  0.1398  0.3640  0.2661
    2SAPS  O13B  142   0.268   5.229  10.948 -0.3597 -0.1952 -0.4703
    2SAPS   C11  143   0.121   5.444  10.795  0.0296  0.8333  0.5835
    2SAPS  H11A  144   0.142   5.345  10.750 -1.4790  0.3867  0.7929
    2SAPS  H11B  145   0.127   5.521  10.715 -0.7070 -0.4297 -0.7256
    2SAPS     P  146  -0.124   5.366  10.770 -0.2062 -0.0682 -0.0113
    2SAPS   O13  147  -0.076   5.227  10.774  0.1699 -0.1040  0.3157
    2SAPS   O14  148  -0.252   5.394  10.837 -0.5918  0.5311 -0.3516
    2SAPS   O12  149  -0.011   5.450  10.850  0.5461 -0.0853  0.2552
    2SAPS   O11  150  -0.115   5.419  10.622  0.0302 -0.5715  0.0390
    2SAPS    C1  151  -0.156   5.556  10.582 -0.2341  0.9945 -0.1358
    2SAPS    HA  152  -0.262   5.568  10.613 -0.7483  0.2891 -1.5317
    2SAPS    HB  153  -0.096   5.635  10.631  1.0757 -0.7180  1.1661
    2SAPS    C2  154  -0.160   5.569  10.424 -0.0066  0.3468 -0.0644
    2SAPS    HS  155  -0.226   5.486  10.390  2.8260 -1.4175 -1.6172
    2SAPS   O21  156  -0.027   5.556  10.365  0.3049  0.2861 -0.8115
    2SAPS   C21  157  -0.017   5.488  10.254  0.3373  0.0925 -0.4364
    2SAPS   O22  158  -0.097   5.413  10.207  0.4142 -0.3580 -0.4686
    2SAPS   C22  159   0.118   5.514  10.191 -0.8522  0.1079  0.8734
    2SAPS   H2R  160   0.136   5.623  10.184 -2.7254  0.3807 -0.3603
    2SAPS   H2S  161   0.200   5.475  10.255  0.6431  0.1793 -0.9102
    2SAPS    C3  162  -0.228   5.703  10.378  0.0904  0.7237  0.0833
    2SAPS    HX  163  -0.164   5.787  10.414  1.4603 -0.4372  0.4417
    2SAPS    HY  164  -0.328   5.702  10.427 -0.8693  1.7558 -1.7409
    2SAPS   O31  165  -0.244   5.715  10.235 -0.3420  0.2843 -0.5754
    2SAPS   C31  166  -0.350   5.657  10.184  0.0240  0.2508 -0.5310
    2SAPS   O32  167  -0.431   5.587  10.249  0.3180 -0.1645  0.2206
    2SAPS   C32  168  -0.355   5.692  10.034  0.1061 -0.2230  0.8940
    2SAPS   H2X  169  -0.306   5.791  10.021  1.2695 -0.9500 -0.5428
    2SAPS   H2Y  170  -0.462   5.698  10.006  0.4369 -1.6765 -0.8403
    2SAPS   C23  171   0.146   5.442  10.054 -0.3352 -0.2314  0.2629
    2SAPS   H3R  172   0.094   5.491   9.969  0.5679 -0.4430 -0.4191
    2SAPS   H3S  173   0.109   5.337  10.056 -0.6358 -0.1177  0.8709
    2SAPS   C24  174   0.298   5.433  10.019  0.2017  0.4393 -0.3227
    2SAPS   H4R  175   0.308   5.359   9.937  0.0445  0.7616 -0.6370
    2SAPS   H4S  176   0.351   5.392  10.108  1.7505  0.5465 -1.1611
    2SAPS   C25  177   0.349   5.571   9.982  0.2245  0.4314  0.1510
    2SAPS   H5R  178   0.354   5.642  10.065 -0.4991  0.1099  0.4805
    2SAPS   C26  179   0.407   5.606   9.862  0.3779 -0.2022  0.0344
    2SAPS   H6R  180   0.441   5.710   9.850 -0.8193  0.0321 -1.7090
    2SAPS   C27  181   0.424   5.518   9.744  0.4275  0.6828  0.0364
    2SAPS   H7R  182   0.424   5.576   9.649 -1.4713 -0.0976 -0.4861
    2SAPS   H7S  183   0.333   5.455   9.745 -0.0762  1.3825 -0.3127
    2SAPS   C28  184   0.545   5.427   9.759  0.5441 -0.2753  0.2203
    2SAPS   H8R  185   0.565   5.394   9.862 -1.6734 -0.0677  0.7643
    2SAPS   C29  186   0.619   5.367   9.664  0.5488  0.5198 -0.4106
    2SAPS   H9R  187   0.710   5.312   9.695  0.6492  1.8712  1.9276
    2SAPS  C210  188   0.610   5.375   9.513  0.1229 -0.2483  0.1323
    2SAPS  H10R  189   0.667   5.288   9.474  0.6554 -0.3238  1.0671
    2SAPS  H10S  190   0.665   5.463   9.473 -1.1007 -0.1043 -1.3245
    2SAPS  C211  191   0.464   5.360   9.452  0.1666  0.5347  0.6599
    2SAPS  H11R  192   0.393   5.321   9.526 -2.7003  1.6832 -1.2887
    2SAPS  C212  193   0.434   5.379   9.322  0.7822 -0.1948 -0.1443
    2SAPS  H12R  194   0.333   5.344   9.294  1.3677 -1.5570 -0.6206
    2SAPS  C213  195   0.516   5.421   9.210 -0.0109 -0.8009 -0.1805
    2SAPS  H13R  196   0.539   5.332   9.147  3.5039  0.0898 -0.3800
    2SAPS  H13S  197   0.612   5.457   9.252 -1.1480  1.7162  0.4139
    2SAPS  C214  198   0.452   5.535   9.137 -0.3778  0.0175  0.1242
    2SAPS  H14R  199   0.418   5.620   9.198 -0.4609 -0.2727  0.4893
    2SAPS  C215  200   0.430   5.547   9.003 -0.4243 -0.5539  0.8019
    2SAPS  H15R  201   0.398   5.642   8.957  1.3004 -0.6672 -0.7824
    2SAPS  C216  202   0.464   5.437   8.895 -0.2532  0.0891 -0.1071
    2SAPS  H16R  203   0.418   5.341   8.928 -1.8166  0.4932 -1.0101
    2SAPS  H16S  204   0.574   5.426   8.886 -0.0015  0.8527  1.5323
    2SAPS  C217  205   0.400   5.469   8.758 -0.0028  0.0780  0.1919
    2SAPS  H17R  206   0.439   5.566   8.720  3.3131  0.1039  3.1167
    2SAPS  H17S  207   0.290   5.474   8.767 -0.1930 -1.7675 -0.7023
    2SAPS  C218  208   0.431   5.363   8.652 -0.3585 -0.5990  0.5038
    2SAPS  H18R  209   0.395   5.268   8.697 -0.7738 -1.1884 -1.0059
    2SAPS  H18S  210   0.538   5.359   8.620 -0.8473  0.9211 -1.5420
    2SAPS  C219  211   0.350   5.376   8.521 -0.5738  0.3677 -0.4240
    2SAPS  H19R  212   0.255   5.432   8.536 -1.0981 -0.9923  1.8687
    2SAPS  H19S  213   0.330   5.272   8.487  1.7276 -0.1685 -0.2853
    2SAPS  C220  214   0.417   5.458   8.412 -0.3472 -0.7000  0.1792
    2SAPS  H20R  215   0.449   5.551   8.463  3.0583 -0.5767 -1.8719
    2SAPS  H20S  216   0.343   5.484   8.333  0.1858 -1.4145 -0.5752
    2SAPS  H20T  217   0.504   5.407   8.366  0.5566  2.6863 -2.3240
    2SAPS   C33  218  -0.305   5.573   9.945 -0.0705  0.4877 -0.4131
    2SAPS   H3X  219  -0.202   5.541   9.971 -0.6716 -0.6698  0.6169
    2SAPS   H3Y  220  -0.309   5.612   9.841  0.7412 -0.6539 -0.8881
    2SAPS   C34  221  -0.399   5.455   9.950  0.2378  0.9173 -0.3953
    2SAPS   H4X  222  -0.504   5.483   9.974 -0.0557 -1.2794  1.2584
    2SAPS   H4Y  223  -0.359   5.405  10.041 -0.9692  2.9414  1.3415
    2SAPS   C35  224  -0.380   5.357   9.837  0.3358  0.1818  0.1601
    2SAPS   H5X  225  -0.427   5.257   9.849 -1.8796  1.0142 -0.9652
    2SAPS   H5Y  226  -0.269   5.350   9.832  0.4291 -0.5378  2.2618
    2SAPS   C36  227  -0.451   5.406   9.713  0.1529  0.0313  0.0347
    2SAPS   H6X  228  -0.473   5.515   9.720 -2.2465 -0.3132 -1.1610
    2SAPS   H6Y  229  -0.549   5.360   9.690  0.4967 -1.5611  1.5485
    2SAPS   C37  230  -0.359   5.390   9.585  0.1037  0.1791 -0.3177
    2SAPS   H7X  231  -0.350   5.280   9.571  1.7820  0.5329 -2.5775
    2SAPS   H7Y  232  -0.254   5.425   9.595  0.4076 -1.0743  1.2352
    2SAPS   C38  233  -0.435   5.455   9.475  0.0498  0.6298  0.9270
    2SAPS   H8X  234  -0.433   5.565   9.489  0.4322  0.5308  1.6642
    2SAPS   H8Y  235  -0.544   5.431   9.475 -0.0482  0.8558 -1.0886
    2SAPS   C39  236  -0.384   5.413   9.341 -0.5649 -0.0861 -0.2219
    2SAPS   H9X  237  -0.439   5.323   9.307  0.0091 -0.5857  0.1367
    2SAPS   H9Y  238  -0.277   5.386   9.356 -1.1241 -1.5436  1.4109
    2SAPS  C310  239  -0.394   5.524   9.239 -0.3053 -0.0926  0.9988
    2SAPS  H10X  240  -0.345   5.609   9.290  1.9278 -1.3038  1.0010
    2SAPS  H10Y  241  -0.501   5.550   9.223 -0.8548 -1.6473  1.9016
    2SAPS  C311  242  -0.325   5.493   9.102 -0.8883  0.3404 -0.3102
    2SAPS  H11X  243  -0.334   5.587   9.042  1.4417  0.7598 -0.1150
    2SAPS  H11Y  244  -0.374   5.409   9.048 -0.8435  0.2082 -0.1439
    2SAPS  C312  245  -0.176   5.471   9.122  0.0639  0.6745 -1.1139
    2SAPS  H12X  246  -0.129   5.430   9.030  1.7786  1.0004 -0.4089
    2SAPS  H12Y  247  -0.171   5.383   9.191 -0.5368  1.5520  0.0959
    2SAPS  C313  248  -0.103   5.587   9.183 -0.9092  1.5053 -0.3314
    2SAPS  H13X  249  -0.152   5.612   9.280 -0.7069 -0.7800  0.4084
    2SAPS  H13Y  250  -0.106   5.680   9.121  0.9701  0.7286 -1.6796
    2SAPS  C314  251   0.044   5.565   9.211 -0.3507  0.0896 -0.4186
    2SAPS  H14X  252   0.096   5.550   9.113 -1.1878  0.4257 -0.9294
    2SAPS  H14Y  253   0.061   5.470   9.266 -2.7315 -0.2116 -0.0712
    2SAPS  C315  254   0.106   5.689   9.284 -0.1038  1.0615 -0.0742
    2SAPS  H15X  255   0.044   5.779   9.265 -0.8837  0.3634 -0.9002
    2SAPS  H15Y  256   0.206   5.721   9.247  0.6234 -1.6978 -0.7979
    2SAPS  C316  257   0.113   5.661   9.436  0.1790 -0.0835  0.6306
    2SAPS  H16X  258   0.179   5.737   9.482 -0.2620  0.2292  0.7550
    2SAPS  H16Y  259   0.164   5.562   9.440 -2.7433 -2.2070 -4.6848
    2SAPS  C317  260  -0.012   5.668   9.521  0.1124  0.8666 -1.0683
    2SAPS  H17X  261  -0.087   5.591   9.494  0.4695 -0.8292  2.2648
    2SAPS  H17Y  262  -0.066   5.762   9.496 -2.5427  0.4903  2.4258
    2SAPS  C318  263   0.015   5.672   9.675  0.0098 -0.6035 -0.7447
    2SAPS  H18X  264  -0.081   5.658   9.728  0.4685  1.7651  0.8693
    2SAPS  H18Y  265   0.060   5.768   9.709 -1.5045 -0.7818  1.9901
    2SAPS  H18Z  266   0.086   5.590   9.700 -0.9874 -1.2968 -0.0936
    3SAPS     N  267   0.898   0.052  10.641  0.3638 -0.2311 -0.1061
    3SAPS   HN1  268   0.861  -0.016  10.572 -1.7214  0.7013 -0.0035
    3SAPS   HN2  269   0.845   0.142  10.644  1.7974  0.6742  3.3577
    3SAPS   HN3  270   1.000   0.068  10.632  0.7359 -0.8769  2.1986
    3SAPS   C12  271   0.879  -0.004  10.783  0.5224  0.2248 -0.0240
    3SAPS  H12A  272   0.914  -0.106  10.780  1.5899  0.5780 -0.0114
    3SAPS   C13  273   0.964   0.055  10.899  0.3776  0.5487  0.1434
    3SAPS  O13A  274   1.062   0.127  10.866  0.0957  0.1989  0.4190
    3SAPS  O13B  275   0.952   0.011  11.019 -0.4407  0.7870  0.1279
    3SAPS   C11  276   0.730   0.011  10.829  0.0962 -0.2447 -0.3399
    3SAPS  H11A  277   0.718   0.120  10.848  2.8124 -0.0523  0.7176
    3SAPS  H11B  278   0.704  -0.037  10.926 -3.6251  0.8151 -0.6399
    3SAPS     P  279   0.569  -0.178  10.742  0.4613 -0.4482  0.3476
    3SAPS   O13  280   0.679  -0.278  10.749 -0.8281 -0.1853 -0.2758
    3SAPS   O14  281   0.471  -0.178  10.855  0.7174 -0.3840 -0.4011
    3SAPS   O12  282   0.637  -0.034  10.727  0.9727  0.1399 -0.2626
    3SAPS   O11  283   0.489  -0.201  10.605  0.2545 -0.0284 -0.3299
    3SAPS    C1  284   0.541  -0.153  10.483  0.8469  0.7379 -0.2616
    3SAPS    HA  285   0.459  -0.129  10.413  1.7036 -0.7379 -1.8455
    3SAPS    HB  286   0.596  -0.057  10.494  0.4460  0.8559  0.9641
    3SAPS    C2  287   0.626  -0.268  10.413 -0.1560 -0.0143  0.0515
    3SAPS    HS  288   0.696  -0.313  10.487 -0.5108 -1.1981 -0.3051
    3SAPS   O21  289   0.702  -0.225  10.300  0.0485  0.6528 -0.2586
    3SAPS   C21  290   0.813  -0.161  10.335 -0.6556 -0.9081 -0.1645
    3SAPS   O22  291   0.842  -0.126  10.451 -0.2107 -0.3113  0.0981
    3SAPS   C22  292   0.905  -0.168  10.219  0.0525  0.3774  0.4616
    3SAPS   H2R  293   1.009  -0.186  10.254 -0.1990 -1.5659  0.3466
    3SAPS   H2S  294   0.876  -0.249  10.148 -0.3134  1.2793 -0.4473
    3SAPS    C3  295   0.532  -0.383  10.372  0.3299 -0.1759 -0.1981
    3SAPS    HX  296   0.488  -0.420  10.466 -0.6599  1.7762  0.1710
    3SAPS    HY  297   0.594  -0.462  10.325 -2.1914 -1.8764 -0.8924
    3SAPS   O31  298   0.424  -0.342  10.283  0.3204 -0.2476 -0.4312
    3SAPS   C31  299   0.338  -0.435  10.263  0.8211 -0.0225  0.5388
    3SAPS   O32  300   0.349  -0.551  10.298 -0.4510  0.6990  0.5625
    3SAPS   C32  301   0.213  -0.374  10.204  0.5277 -0.2407  0.1189
    3SAPS   H2X  302   0.156  -0.332  10.289  0.4546 -0.8134  0.3583
    3SAPS   H2Y  303   0.155  -0.460  10.164 -0.0561 -0.0212  0.4879
    3SAPS   C23  304   0.897  -0.041  10.130 -0.0683 -0.4648 -0.3533
    3SAPS   H3R  305   0.789  -0.025  10.112 -0.1495 -0.3811  0.1849
    3SAPS   H3S  306   0.954  -0.059  10.036 -1.0730 -0.4560 -0.9831
    3SAPS   C24  307   0.951   0.084  10.200 -0.1253 -0.2412  0.4760
    3SAPS   H4R  308   1.061   0.089  10.182 -0.3837  0.8919 -0.9393
    3SAPS   H4S  309   0.950   0.076  10.311  0.1169  1.7972  0.6780
    3SAPS   C25  310   0.886   0.219  10.169 -0.2509 -0.2845 -0.3353
    3SAPS   H5R  311   0.777   0.226  10.175 -0.2300  0.9838 -1.0370
    3SAPS   C26  312   0.959   0.333  10.134 -0.5183  0.7460 -0.0710
    3SAPS   H6R  313   0.908   0.427  10.107  1.6131  2.1099  0.4443
    3SAPS   C27  314   1.104   0.330  10.112  0.2538  0.4651  0.3154
    3SAPS   H7R  315   1.140   0.275  10.023  0.5346  1.6183 -0.3142
    3SAPS   H7S  316   1.147   0.286  10.205 -0.1305  0.6788  0.6009
    3SAPS   C28  317   1.147   0.473  10.088  0.1582 -0.0707 -0.1417
    3SAPS   H8R  318   1.162   0.536  10.177 -2.5068 -1.4480  1.4182
    3SAPS   C29  319   1.152   0.530   9.964 -0.7404  0.1278  0.3002
    3SAPS   H9R  320   1.183   0.635   9.954  1.6686 -0.3870  1.5449
    3SAPS  C210  321   1.137   0.465   9.829  0.2574 -0.5010 -0.6568
    3SAPS  H10R  322   1.059   0.502   9.759 -1.8790  0.2027  1.9327
    3SAPS  H10S  323   1.096   0.362   9.827  1.9513 -1.2515  0.3678
    3SAPS  C211  324   1.279   0.473   9.764  0.0124 -0.0836  0.5803
    3SAPS  H11R  325   1.366   0.473   9.831 -0.2828  0.1843  0.9652
    3SAPS  C212  326   1.301   0.453   9.628  0.6050 -0.2331 -0.0261
    3SAPS  H12R  327   1.400   0.446   9.581 -0.5219 -0.5171 -2.5516
    3SAPS  C213  328   1.200   0.434   9.521  0.1234 -0.4723  0.3249
    3SAPS  H13R  329   1.117   0.364   9.547 -2.5068  2.1739 -0.4644
    3SAPS  H13S  330   1.243   0.377   9.436 -2.0094  1.0679 -1.9119
    3SAPS  C214  331   1.129   0.559   9.471  0.1632 -0.2543  0.1206
    3SAPS  H14R  332   1.050   0.606   9.531  0.6428  3.0233 -1.6295
    3SAPS  C215  333   1.159   0.623   9.354  0.1637  0.2376 -0.1206
    3SAPS  H15R  334   1.093   0.707   9.327  1.4831  1.6184  0.7528
    3SAPS  C216  335   1.262   0.604   9.242 -1.1380  0.3330  0.1706
    3SAPS  H16R  336   1.325   0.513   9.252 -3.8649 -1.5241  1.8827
    3SAPS  H16S  337   1.320   0.697   9.226 -1.7916  1.2371  2.6725
    3SAPS  C217  338   1.187   0.575   9.109 -1.0556  0.3515 -0.6616
    3SAPS  H17R  339   1.112   0.493   9.107  0.7306 -1.3353 -1.1881
    3SAPS  H17S  340   1.269   0.526   9.052 -0.2940  1.9954 -1.0445
    3SAPS  C218  341   1.134   0.709   9.052  0.7286  0.7024  0.6629
    3SAPS  H18R  342   1.218   0.781   9.058  0.6786  0.6176  3.8834
    3SAPS  H18S  343   1.048   0.748   9.109 -0.7479  0.0528 -1.0431
    3SAPS  C219  344   1.086   0.684   8.907 -0.8360  0.4345  0.1844
    3SAPS  H19R  345   1.010   0.603   8.913 -0.9582  0.5428  0.1112
    3SAPS  H19S  346   1.179   0.643   8.862 -0.1345  1.4898  0.6423
    3SAPS  C220  347   1.019   0.798   8.841  0.0152  0.4083  0.3239
    3SAPS  H20R  348   1.088   0.884   8.828  1.9318 -0.3431  3.9407
    3SAPS  H20S  349   0.928   0.838   8.892 -0.8128 -0.1733 -0.6626
    3SAPS  H20T  350   0.976   0.763   8.745  2.7844 -0.2483 -0.7511
    3SAPS   C33  351   0.234  -0.287  10.091 -0.0297 -0.0848  0.2910
    3SAPS   H3X  352   0.324  -0.224  10.104  1.6719 -1.9086 -1.8991
    3SAPS   H3Y  353   0.154  -0.209  10.085  1.4755  1.5252  0.3277
    3SAPS   C34  354   0.250  -0.346   9.944 -0.2842  0.1242 -0.4185
    3SAPS   H4X  355   0.151  -0.396   9.931  0.9244 -2.2453 -1.2031
    3SAPS   H4Y  356   0.323  -0.429   9.931 -0.8864 -0.6692  1.0394
    3SAPS   C35  357   0.267  -0.235   9.844 -0.6461 -0.3493  0.3254
    3SAPS   H5X  358   0.363  -0.183   9.865  0.5332 -1.6783 -1.4652
    3SAPS   H5Y  359   0.191  -0.155   9.836  1.9426  2.0595 -2.4450
    3SAPS   C36  360   0.276  -0.291   9.699 -0.8771 -0.6603  0.2266
    3SAPS   H6X  361   0.204  -0.374   9.685 -0.5415 -0.6007 -2.3015
    3SAPS   H6Y  362   0.376  -0.338   9.688 -1.2145 -0.8815 -2.6142
    3SAPS   C37  363   0.255  -0.175   9.595 -0.0646 -0.2604 -0.0954
    3SAPS   H7X  364   0.315  -0.089   9.633 -2.1311  1.2478 -0.0613
    3SAPS   H7Y  365   0.149  -0.143   9.602 -0.4393 -1.4924  0.0644
    3SAPS   C38  366   0.293  -0.205   9.443 -0.2515 -0.7873 -0.6144
    3SAPS   H8X  367   0.229  -0.286   9.401 -0.0386 -1.2295 -0.0945
    3SAPS   H8Y  368   0.400  -0.236   9.441 -0.1832 -0.5251 -1.3670
    3SAPS   C39  369   0.285  -0.078   9.353  0.0416  0.6620  0.0861
    3SAPS   H9X  370   0.315   0.016   9.403 -0.5917  1.4652 -0.9876
    3SAPS   H9Y  371   0.177  -0.059   9.333 -0.0855 -0.7214 -0.6387
    3SAPS  C310  372   0.338  -0.098   9.209 -0.4083 -0.3859 -0.1117
    3SAPS  H10X  373   0.446  -0.121   9.209 -0.2026  0.3546  1.8258
    3SAPS  H10Y  374   0.336  -0.001   9.155  0.2830 -0.2556  0.0946
    3SAPS  C311  375   0.269  -0.204   9.125 -0.1412  0.1552 -0.3979
    3SAPS  H11X  376   0.161  -0.180   9.121 -0.2656 -0.0322  1.0549
    3SAPS  H11Y  377   0.268  -0.305   9.172 -1.7925 -0.7580 -2.2586
    3SAPS  C312  378   0.314  -0.185   8.976  0.0144 -0.2194  0.4100
    3SAPS  H12X  379   0.425  -0.196   8.975 -0.0202 -0.4814 -0.6650
    3SAPS  H12Y  380   0.284  -0.082   8.948 -3.3055 -1.2910 -0.3489
    3SAPS  C313  381   0.236  -0.277   8.886 -0.2413  0.0685 -0.3208
    3SAPS  H13X  382   0.241  -0.235   8.783 -1.4065  1.6479  0.2322
    3SAPS  H13Y  383   0.128  -0.271   8.913 -1.3244 -1.8044 -3.6482
    3SAPS  C314  384   0.304  -0.412   8.889 -0.4079  0.5383 -0.0430
    3SAPS  H14X  385   0.323  -0.453   8.990 -0.1443 -0.9556 -0.6698
    3SAPS  H14Y  386   0.408  -0.409   8.850 -0.6345  2.2448 -0.6288
    3SAPS  C315  387   0.224  -0.518   8.804 -0.1498 -0.8193 -0.1967
    3SAPS  H15X  388   0.117  -0.495   8.824 -0.3642 -0.9706 -1.1324
    3SAPS  H15Y  389   0.259  -0.613   8.851 -1.8604 -1.0771  0.6401
    3SAPS  C316  390   0.246  -0.516   8.650 -0.3787 -0.1110 -1.1546
    3SAPS  H16X  391   0.341  -0.569   8.630 -0.6776 -0.4400 -1.7195
    3SAPS  H16Y  392   0.258  -0.415   8.606  0.1035  1.4722  2.2692
    3SAPS  C317  393   0.129  -0.595   8.587 -0.2919 -0.1144 -0.1463
    3SAPS  H17X  394   0.038  -0.537   8.615  0.8561  1.8735 -0.3286
    3SAPS  H17Y  395   0.142  -0.694   8.636 -1.0166  0.1750  0.6496
    3SAPS  C318  396   0.143  -0.601   8.430  0.1180 -0.6080  0.1296
    3SAPS  H18X  397   0.082  -0.689   8.400  0.7923 -1.1332  0.2670
    3SAPS  H18Y  398   0.244  -0.621   8.388  0.5259  2.2713 -0.4631
    3SAPS  H18Z  399   0.109  -0.505   8.386  1.1373  1.5466  3.7000
    4SAPS     N  400   3.412   1.801  10.550 -0.2848 -0.6623 -0.1720
    4SAPS   HN1  401   3.462   1.888  10.525 -3.6063  1.4400 -0.0413
    4SAPS   HN2  402   3.475   1.718  10.541  2.2424  1.3755 -3.2072
    4SAPS   HN3  403   3.330   1.796  10.486 -1.6797 -0.5101  1.5248
    4SAPS   C12  404   3.357   1.807  10.688  0.2475 -0.6406 -0.3883
    4SAPS  H12A  405   3.293   1.721  10.697  0.2268 -0.5303  0.7175
    4SAPS   C13  406   3.453   1.799  10.812 -0.6590  0.7721 -0.1208
    4SAPS  O13A  407   3.581   1.801  10.795  0.3708  0.7640  0.1869
    4SAPS  O13B  408   3.392   1.797  10.925 -0.0506 -0.0918  0.8776
    4SAPS   C11  409   3.270   1.938  10.707  0.2722  0.2691 -0.0139
    4SAPS  H11A  410   3.348   2.017  10.708  0.6082 -0.0608  0.6862
    4SAPS  H11B  411   3.217   1.931  10.804 -0.7363 -2.9922 -0.6838
    4SAPS     P  412   3.034   1.892  10.593 -0.0269  0.3932 -0.4197
    4SAPS   O13  413   2.967   1.891  10.724  0.1385 -0.0233  0.0675
    4SAPS   O14  414   2.954   1.943  10.485 -0.4985 -0.1883 -0.3309
    4SAPS   O12  415   3.172   1.968  10.606 -0.3870 -0.2104  0.3495
    4SAPS   O11  416   3.084   1.747  10.555  0.5388 -0.1569  0.0876
    4SAPS    C1  417   2.992   1.649  10.494 -0.1225 -0.3788  0.5720
    4SAPS    HA  418   2.970   1.567  10.566  1.4306 -2.0700 -0.7856
    4SAPS    HB  419   2.896   1.694  10.462  1.3590  2.0861 -0.7270
    4SAPS    C2  420   3.063   1.589  10.371  0.0190  0.2349 -0.3656
    4SAPS    HS  421   3.160   1.555  10.413 -0.3297 -2.3715 -1.4926
    4SAPS   O21  422   3.062   1.677  10.259  0.2628 -0.7701 -0.0047
    4SAPS   C21  423   3.168   1.752  10.252 -0.4126  0.6552  0.5084
    4SAPS   O22  424   3.266   1.730  10.324  0.3671  0.0375 -0.0893
    4SAPS   C22  425   3.150   1.859  10.150 -0.4521  0.7465 -0.4138
    4SAPS   H2R  426   3.048   1.849  10.106 -1.1225  0.5519  1.0978
    4SAPS   H2S  427   3.162   1.948  10.216  0.5533 -0.5872  1.3032
    4SAPS    C3  428   2.986   1.459  10.316 -0.0585 -0.4637 -0.5716
    4SAPS    HX  429   2.887   1.503  10.290  0.4740  2.8803  2.3618
    4SAPS    HY  430   2.985   1.388  10.401 -1.3414 -1.3050 -1.2447
    4SAPS   O31  431   3.044   1.394  10.196  0.3198  0.0301  0.0954
    4SAPS   C31  432   2.963   1.344  10.105 -0.9664  0.2948 -0.3261
    4SAPS   O32  433   2.843   1.358  10.102  0.2441  0.1353 -0.4387
    4SAPS   C32  434   3.044   1.277   9.991  1.0415  0.3897  0.0367
    4SAPS   H2X  435   3.086   1.186  10.039 -0.4834  0.6675  2.0022
    4SAPS   H2Y  436   3.132   1.343   9.975  1.0303  0.5450  0.6118
    4SAPS   C23  437   3.269   1.842  10.051 -0.4419 -0.5454  0.6173
    4SAPS   H3R  438   3.367   1.874  10.091  0.5570  0.1168 -2.1744
    4SAPS   H3S  439   3.247   1.909   9.966  1.7310  0.5184  0.8462
    4SAPS   C24  440   3.309   1.698  10.001 -0.0533 -0.1854  0.0291
    4SAPS   H4R  441   3.356   1.643  10.084 -2.3304 -0.4098  1.2507
    4SAPS   H4S  442   3.385   1.725   9.925  0.2624 -0.4904  0.2377
    4SAPS   C25  443   3.190   1.624   9.940  0.1471 -0.2625 -0.3809
    4SAPS   H5R  444   3.104   1.609  10.007  0.7510  0.2617  0.5107
    4SAPS   C26  445   3.185   1.580   9.811 -0.0557 -0.1033 -0.7406
    4SAPS   H6R  446   3.089   1.551   9.767 -0.6593  1.1405 -0.2958
    4SAPS   C27  447   3.294   1.591   9.701 -0.0799 -0.6188 -0.1516
    4SAPS   H7R  448   3.391   1.619   9.747 -0.2031 -1.4543  0.6300
    4SAPS   H7S  449   3.263   1.668   9.627 -0.0425  0.3566  0.8229
    4SAPS   C28  450   3.292   1.452   9.635 -0.4838 -0.0999  0.1746
    4SAPS   H8R  451   3.346   1.374   9.692  1.9473  2.3273  1.4452
    4SAPS   C29  452   3.225   1.420   9.523  0.8036  0.4501 -0.0168
    4SAPS   H9R  453   3.217   1.311   9.514  1.7485 -0.0015  3.2605
    4SAPS  C210  454   3.157   1.524   9.434  0.3327  0.1764 -0.2768
    4SAPS  H10R  455   3.236   1.564   9.366  0.9023  1.6223  1.1778
    4SAPS  H10S  456   3.120   1.610   9.494  1.9865  0.8276 -0.1523
    4SAPS  C211  457   3.047   1.472   9.343  0.0098  0.0760 -0.6987
    4SAPS  H11R  458   2.950   1.510   9.377 -0.3714 -0.0353 -1.6229
    4SAPS  C212  459   3.061   1.380   9.245 -0.7873 -0.0876 -0.3526
    4SAPS  H12R  460   2.979   1.335   9.188  1.2560 -2.4007 -1.6005
    4SAPS  C213  461   3.189   1.325   9.198 -0.5670 -0.6771  0.0335
    4SAPS  H13R  462   3.172   1.216   9.184 -0.9573 -0.9116  2.0472
    4SAPS  H13S  463   3.278   1.333   9.265 -0.5508 -1.2567  0.0879
    4SAPS  C214  464   3.230   1.377   9.063  0.1351 -0.1532 -0.3998
    4SAPS  H14R  465   3.316   1.445   9.076  0.8413 -1.2364  0.8374
    4SAPS  C215  466   3.188   1.348   8.941 -0.4481 -0.7607  0.0478
    4SAPS  H15R  467   3.226   1.400   8.852 -2.5882 -0.0095 -0.4927
    4SAPS  C216  468   3.081   1.248   8.895 -0.2542 -0.2549 -0.5070
    4SAPS  H16R  469   3.067   1.165   8.967  2.9383  0.1325  0.7186
    4SAPS  H16S  470   3.112   1.202   8.799  2.6565 -0.0345  0.2463
    4SAPS  C217  471   2.952   1.338   8.885 -0.1034 -0.5281 -0.0125
    4SAPS  H17R  472   2.936   1.382   8.986 -2.7141 -0.9440 -0.1696
    4SAPS  H17S  473   2.865   1.271   8.868 -0.2497 -0.4680  0.4916
    4SAPS  C218  474   2.944   1.449   8.779 -0.5059 -0.4717 -0.1933
    4SAPS  H18R  475   3.009   1.532   8.813 -1.7948  0.0597  1.0967
    4SAPS  H18S  476   2.844   1.488   8.807 -0.3317 -0.6262  0.6681
    4SAPS  C219  477   2.974   1.428   8.624  0.0268  0.5313 -0.0333
    4SAPS  H19R  478   3.084   1.414   8.617  0.1263  1.3122 -0.0485
    4SAPS  H19S  479   2.951   1.516   8.560  0.7591 -1.1515 -2.8029
    4SAPS  C220  480   2.908   1.298   8.572 -0.2286 -0.2392 -0.1852
    4SAPS  H20R  481   2.805   1.299   8.614 -0.1452 -0.7545  0.0264
    4SAPS  H20S  482   2.960   1.205   8.601  2.5371  1.5790  1.1772
    4SAPS  H20T  483   2.885   1.295   8.463  1.1261  0.6362 -0.5184
    4SAPS   C33  484   2.960   1.250   9.861 -0.1908 -0.2659 -0.2641
    4SAPS   H3X  485   2.922   1.344   9.815 -0.6289  0.4190  1.4011
    4SAPS   H3Y  486   2.871   1.195   9.899 -0.7840  0.8695  0.0428
    4SAPS   C34  487   3.031   1.163   9.756 -0.0493 -0.2748 -0.4937
    4SAPS   H4X  488   3.087   1.075   9.795  0.1492 -0.7429 -1.7734
    4SAPS   H4Y  489   3.109   1.239   9.729 -1.6185  2.0053  1.0653
    4SAPS   C35  490   2.952   1.125   9.630  0.8609 -0.3454 -0.6719
    4SAPS   H5X  491   2.895   1.213   9.594  0.2956  0.7379  2.5974
    4SAPS   H5Y  492   2.864   1.066   9.663 -0.4778  1.3013 -1.1857
    4SAPS   C36  493   3.031   1.054   9.523  0.2316 -0.1168  0.5283
    4SAPS   H6X  494   3.077   0.961   9.564 -0.6681 -0.6197  0.4403
    4SAPS   H6Y  495   3.119   1.118   9.503  1.0789 -1.8526 -1.8527
    4SAPS   C37  496   2.945   1.025   9.394  0.0667 -0.1369 -0.5648
    4SAPS   H7X  497   2.903   1.118   9.350 -1.3613 -0.0244  0.9529
    4SAPS   H7Y  498   2.853   0.968   9.420 -2.3265  2.9607 -1.5551
    4SAPS   C38  499   3.018   0.947   9.285 -0.4876  0.0485  0.2128
    4SAPS   H8X  500   3.046   0.848   9.326 -3.2677 -0.0958  2.0408
    4SAPS   H8Y  501   3.105   1.002   9.244  0.0363  0.4376  1.7806
    4SAPS   C39  502   2.932   0.936   9.156  0.2919 -0.1223 -0.3585
    4SAPS   H9X  503   2.895   1.037   9.128 -1.2778 -0.2976  0.9552
    4SAPS   H9Y  504   2.837   0.883   9.174  0.8433 -0.7390  0.8423
    4SAPS  C310  505   3.014   0.879   9.045 -0.5230  0.1039 -0.2367
    4SAPS  H10X  506   3.045   0.779   9.082 -0.9157  0.0621 -0.0189
    4SAPS  H10Y  507   3.099   0.946   9.017 -1.8966  1.4382 -1.3889
    4SAPS  C311  508   2.946   0.859   8.905  0.5777 -0.2558 -0.5234
    4SAPS  H11X  509   2.892   0.953   8.881 -0.6317 -1.0619 -1.1243
    4SAPS  H11Y  510   2.872   0.776   8.907  0.4355 -0.3425 -3.9411
    4SAPS  C312  511   3.030   0.838   8.779  0.3178  0.4262  0.4057
    4SAPS  H12X  512   3.082   0.740   8.793 -1.3457 -0.1399  3.4279
    4SAPS  H12Y  513   3.096   0.927   8.769 -1.1570  1.6147  1.0334
    4SAPS  C313  514   2.935   0.845   8.660  0.2171  0.0827  0.2811
    4SAPS  H13X  515   2.916   0.954   8.646 -2.4767  0.0183  2.5204
    4SAPS  H13Y  516   2.843   0.789   8.686  0.6839 -0.3103  1.1252
    4SAPS  C314  517   2.992   0.780   8.532  0.3415  0.0171 -0.2290
    4SAPS  H14X  518   3.008   0.670   8.535 -1.0212 -0.2370 -1.2681
    4SAPS  H14Y  519   3.089   0.832   8.519 -0.7939  2.3185  0.0598
    4SAPS  C315  520   2.898   0.808   8.409 -0.2733  0.1261 -0.0213
    4SAPS  H15X  521   2.790   0.785   8.420 -0.5178  0.8383 -0.8480
    4SAPS  H15Y  522   2.937   0.731   8.339  0.3857  0.1947  0.2573
    4SAPS  C316  523   2.919   0.950   8.358  0.6123  0.0822  0.2166
    4SAPS  H16X  524   3.026   0.967   8.336  0.7233 -0.5686  0.2317
    4SAPS  H16Y  525   2.876   1.028   8.425 -4.6701 -1.1139 -1.2898
    4SAPS  C317  526   2.844   0.976   8.224 -0.0735 -0.9195 -0.1656
    4SAPS  H17X  527   2.740   0.936   8.225 -0.6855  0.6005  0.3252
    4SAPS  H17Y  528   2.907   0.920   8.152 -0.2415 -0.8690 -0.3560
    4SAPS  C318  529   2.830   1.125   8.180  0.0207  0.6940  0.0079
    4SAPS  H18X  530   2.759   1.137   8.095  0.3262 -1.4085 -0.6120
    4SAPS  H18Y  531   2.928   1.174   8.164  0.3368 -0.7274 -3.0617
    4SAPS  H18Z  532   2.792   1.173   8.273  0.6651  1.4580 -0.1185
    5SAPS     N  533   5.293   6.649  10.950  0.3307 -0.9424 -0.0864
    5SAPS   HN1  534   5.226   6.658  11.030  2.8609 -0.6694  2.1589
    5SAPS   HN2  535   5.248   6.684  10.863  0.3098 -1.2556 -0.2050
    5SAPS   HN3  536   5.315   6.548  10.934  0.1137 -1.2037  1.1443
    5SAPS   C12  537   5.416   6.719  10.959  0.9050  0.4627 -0.3642
    5SAPS  H12A  538   5.402   6.827  10.959 -0.0809  0.3482 -0.5177
    5SAPS   C13  539   5.481   6.685  11.091 -0.2387 -0.3935 -0.3100
    5SAPS  O13A  540   5.427   6.611  11.177 -0.4594 -0.3143  1.0646
    5SAPS  O13B  541   5.580   6.754  11.128  0.5137 -0.1144 -0.1719
    5SAPS   C11  542   5.517   6.688  10.839  1.1767 -0.0475 -0.2007
    5SAPS  H11A  543   5.615   6.733  10.862  2.2175 -2.4426  0.3156
    5SAPS  H11B  544   5.484   6.730  10.741  2.3854 -1.3900 -1.2253
    5SAPS     P  545   5.607   6.479  10.693  0.0652 -0.0391  0.1312
    5SAPS   O13  546   5.694   6.366  10.732 -0.2651  0.2455  0.0067
    5SAPS   O14  547   5.507   6.447  10.593 -0.1481 -0.3357  0.4566
    5SAPS   O12  548   5.535   6.548  10.822 -0.4470 -0.4054  0.3940
    5SAPS   O11  549   5.707   6.592  10.650 -0.4036 -0.1802  0.7018
    5SAPS    C1  550   5.769   6.571  10.524  0.4464 -0.6982 -0.0863
    5SAPS    HA  551   5.821   6.474  10.513 -0.0786 -0.9560 -0.3009
    5SAPS    HB  552   5.693   6.585  10.445  1.8799  1.2888 -1.2097
    5SAPS    C2  553   5.872   6.679  10.488 -0.2208 -0.0741  0.7041
    5SAPS    HS  554   5.819   6.777  10.484  1.5237  1.0429  2.7939
    5SAPS   O21  555   5.934   6.652  10.364  0.6791 -0.5227  0.3084
    5SAPS   C21  556   5.855   6.678  10.256 -0.3134 -0.3969 -0.8816
    5SAPS   O22  557   5.745   6.730  10.257  0.0551 -0.0596  0.0812
    5SAPS   C22  558   5.925   6.623  10.132 -0.4538  0.1320 -0.3181
    5SAPS   H2R  559   6.031   6.648  10.150 -0.4436 -0.7862  1.0674
    5SAPS   H2S  560   5.923   6.512  10.140  0.1586  0.0973 -0.6354
    5SAPS    C3  561   5.987   6.699  10.590 -0.2855 -0.5046  0.9113
    5SAPS    HX  562   5.923   6.722  10.678 -2.4752 -1.2351 -0.3945
    5SAPS    HY  563   6.057   6.780  10.558  0.1973 -1.1743  0.2513
    5SAPS   O31  564   6.061   6.579  10.617  0.0330  0.0464  0.3108
    5SAPS   C31  565   6.176   6.570  10.541 -0.0293  0.1938 -0.5652
    5SAPS   O32  566   6.229   6.654  10.475 -0.1092 -0.0322  0.9624
    5SAPS   C32  567   6.207   6.421  10.537 -0.1744  0.1081  0.4337
    5SAPS   H2X  568   6.111   6.365  10.539 -2.0325  3.0673  1.1246
    5SAPS   H2Y  569   6.262   6.394  10.629  0.4709  0.2298  0.0892
    5SAPS   C23  570   5.872   6.678  10.001  0.0039 -0.3148 -0.3370
    5SAPS   H3R  571   5.761   6.686  10.007 -0.2159 -3.0325  0.4806
    5SAPS   H3S  572   5.893   6.600   9.925  2.9829  0.7948 -0.7827
    5SAPS   C24  573   5.933   6.812   9.959  0.6302 -0.0164  0.1785
    5SAPS   H4R  574   5.926   6.879  10.047 -0.0625  0.2073 -0.0424
    5SAPS   H4S  575   5.868   6.859   9.882  2.2312 -0.1875 -1.3417
    5SAPS   C25  576   6.068   6.791   9.894  0.8795 -0.2003  0.1206
    5SAPS   H5R  577   6.151   6.766   9.961  1.9854 -1.6916 -1.7294
    5SAPS   C26  578   6.085   6.786   9.760 -0.0985  0.4530 -0.0430
    5SAPS   H6R  579   6.187   6.772   9.720 -0.7445 -1.0139 -1.2591
    5SAPS   C27  580   5.965   6.776   9.667 -0.0529  0.0341 -0.4525
    5SAPS   H7R  581   5.920   6.877   9.674  1.3643  0.5814  3.0400
    5SAPS   H7S  582   5.899   6.700   9.714  0.2419  0.1005  0.0887
    5SAPS   C28  583   5.995   6.729   9.521  0.1718  0.0186 -0.5155
    5SAPS   H8R  584   6.074   6.654   9.514  0.5334  0.0787  1.9919
    5SAPS   C29  585   5.911   6.749   9.416  0.3418 -0.3995 -0.7422
    5SAPS   H9R  586   5.945   6.721   9.315 -0.2139  0.3825 -1.1534
    5SAPS  C210  587   5.787   6.839   9.424 -0.2961  0.4772 -0.6389
    5SAPS  H10R  588   5.820   6.926   9.485 -3.9261  1.3664  0.2742
    5SAPS  H10S  589   5.717   6.778   9.485  0.7371 -0.3265 -0.2118
    5SAPS  C211  590   5.725   6.889   9.295  0.1356  0.1426  0.1621
    5SAPS  H11R  591   5.616   6.879   9.288  0.1085 -0.0542  0.8625
    5SAPS  C212  592   5.790   6.952   9.194  0.7361  0.0282  0.1465
    5SAPS  H12R  593   5.733   6.973   9.102  0.3655 -1.2707  0.0577
    5SAPS  C213  594   5.935   6.994   9.196  0.2539 -1.1541  0.7118
    5SAPS  H13R  595   5.986   6.933   9.274 -1.2161 -3.0322  0.2851
    5SAPS  H13S  596   5.944   7.100   9.227  0.4147 -1.2956  1.1534
    5SAPS  C214  597   6.013   6.969   9.067  0.8373 -0.2476  0.3933
    5SAPS  H14R  598   5.959   6.919   8.986  0.4479 -1.0499  1.1357
    5SAPS  C215  599   6.144   6.982   9.060 -0.3634 -0.0742 -0.2935
    5SAPS  H15R  600   6.191   6.960   8.962 -0.0358  1.2299 -0.4578
    5SAPS  C216  601   6.238   7.022   9.177  0.0245  0.0113 -0.1535
    5SAPS  H16R  602   6.175   7.071   9.255 -2.8529 -1.3743 -1.4580
    5SAPS  H16S  603   6.311   7.101   9.151 -0.4360  1.4673  2.5676
    5SAPS  C217  604   6.305   6.896   9.230 -0.0582  0.2145  0.6594
    5SAPS  H17R  605   6.361   6.850   9.146 -0.8267  0.4568  0.0014
    5SAPS  H17S  606   6.231   6.819   9.263 -2.2246  1.4087 -1.1927
    5SAPS  C218  607   6.399   6.930   9.352 -0.4768 -0.4702  0.1799
    5SAPS  H18R  608   6.439   6.831   9.382 -0.1433 -1.3485 -2.8134
    5SAPS  H18S  609   6.481   6.993   9.311 -0.6906  0.0025  0.4649
    5SAPS  C219  610   6.318   6.986   9.469 -1.1488  0.2811 -0.9293
    5SAPS  H19R  611   6.220   6.935   9.465 -0.5686 -0.9021 -0.4136
    5SAPS  H19S  612   6.304   7.096   9.463  1.1499  0.6600 -0.5726
    5SAPS  C220  613   6.389   6.955   9.602 -0.2761  0.1297  0.8845
    5SAPS  H20R  614   6.482   7.016   9.599 -0.1035 -0.0823  1.6646
    5SAPS  H20S  615   6.414   6.848   9.619 -1.4785 -0.7378 -2.2799
    5SAPS  H20T  616   6.332   7.000   9.686  0.8436  2.7100  0.3657
    5SAPS   C33  617   6.293   6.383  10.414  0.2423 -0.0004 -0.1733
    5SAPS   H3X  618   6.318   6.274  10.419 -1.7558 -0.4632  0.6516
    5SAPS   H3Y  619   6.379   6.453  10.410 -0.3334  0.8233  1.2070
    5SAPS   C34  620   6.218   6.393  10.276 -0.3745  0.0380  0.1942
    5SAPS   H4X  621   6.157   6.484  10.264  0.3883  0.3832 -1.3619
    5SAPS   H4Y  622   6.145   6.311  10.263 -0.4355 -0.0666  1.0910
    5SAPS   C35  623   6.306   6.405  10.146 -0.3236  0.0790  0.0458
    5SAPS   H5X  624   6.375   6.319  10.154 -1.3206 -0.7360  0.1963
    5SAPS   H5Y  625   6.357   6.503  10.142 -1.1480  0.4741 -1.3508
    5SAPS   C36  626   6.217   6.412  10.023  0.4487 -1.2033  0.4704
    5SAPS   H6X  627   6.139   6.490  10.031  1.0371 -0.3697 -1.2623
    5SAPS   H6Y  628   6.155   6.320  10.029 -2.0792  0.3975  0.1479
    5SAPS   C37  629   6.298   6.417   9.888  1.2690  0.2960  0.3444
    5SAPS   H7X  630   6.362   6.326   9.884 -0.6962 -1.1118 -2.3965
    5SAPS   H7Y  631   6.360   6.509   9.884  3.2228 -0.9050  1.2683
    5SAPS   C38  632   6.208   6.410   9.770  0.2861  0.1228  0.4382
    5SAPS   H8X  633   6.132   6.488   9.792  1.9090  1.7124  0.7136
    5SAPS   H8Y  634   6.147   6.318   9.761 -1.5605  1.3685 -0.4359
    5SAPS   C39  635   6.271   6.434   9.629  0.2053  0.0336 -0.1072
    5SAPS   H9X  636   6.363   6.375   9.612 -0.6212 -1.2745 -0.2442
    5SAPS   H9Y  637   6.293   6.543   9.630  0.9702 -0.1071 -0.8584
    5SAPS  C310  638   6.166   6.402   9.524  0.7379  0.3095 -0.3204
    5SAPS  H10X  639   6.067   6.449   9.544 -0.3802 -3.2039  3.9974
    5SAPS  H10Y  640   6.160   6.291   9.519 -1.8176  0.4115 -0.6805
    5SAPS  C311  641   6.212   6.452   9.388  0.5577 -0.2575  0.6077
    5SAPS  H11X  642   6.301   6.405   9.342  1.5514  1.3880  0.7851
    5SAPS  H11Y  643   6.244   6.558   9.387  2.8258 -0.8867 -1.0937
    5SAPS  C312  644   6.104   6.445   9.287  0.0222 -0.2385 -0.2783
    5SAPS  H12X  645   6.007   6.487   9.322 -0.3137  0.4712 -1.9773
    5SAPS  H12Y  646   6.092   6.337   9.263 -1.2723 -0.6323  1.9006
    5SAPS  C313  647   6.133   6.506   9.149 -0.0633  0.2032 -0.3345
    5SAPS  H13X  648   6.166   6.611   9.163 -1.3826  0.7669 -1.2257
    5SAPS  H13Y  649   6.035   6.517   9.098 -0.7208 -1.8707  0.3662
    5SAPS  C314  650   6.237   6.435   9.058 -0.5459 -0.1915  0.8801
    5SAPS  H14X  651   6.213   6.327   9.044 -2.1254  0.0879  1.2635
    5SAPS  H14Y  652   6.336   6.436   9.107 -0.1517 -3.5120  0.4237
    5SAPS  C315  653   6.247   6.511   8.924 -1.0591 -0.9336  0.2485
    5SAPS  H15X  654   6.252   6.620   8.943  0.2140 -0.6392 -1.5239
    5SAPS  H15Y  655   6.163   6.497   8.852 -1.0153 -0.6566  0.1447
    5SAPS  C316  656   6.379   6.472   8.845  0.3409  0.8043  0.2084
    5SAPS  H16X  657   6.338   6.456   8.743 -3.0096 -0.6574  1.6414
    5SAPS  H16Y  658   6.425   6.381   8.890 -0.0395 -0.1167 -1.1828
    5SAPS  C317  659   6.482   6.585   8.828 -0.3455  0.0755  0.0036
    5SAPS  H17X  660   6.422   6.676   8.807  0.9354  1.2725  1.3268
    5SAPS  H17Y  661   6.554   6.559   8.748 -1.3669  1.2271 -1.3527
    5SAPS  C318  662   6.559   6.599   8.954 -0.2005  0.0554  0.1549
    5SAPS  H18X  663   6.648   6.665   8.940  0.2655 -0.0982  2.1185
    5SAPS  H18Y  664   6.603   6.499   8.975  0.7596  0.8203  1.9803
    5SAPS  H18Z  665   6.504   6.640   9.041 -0.4894 -1.0445  0.5052
    6SAPS     N  666   5.937   4.783  10.580  0.7189  0.0706 -0.3382
    6SAPS   HN1  667   5.876   4.784  10.496  0.4272  0.7678 -0.1249
    6SAPS   HN2  668   5.965   4.882  10.594 -0.6790  0.1904  2.4333
    6SAPS   HN3  669   6.024   4.730  10.561 -0.0620 -1.9901  1.4263
    6SAPS   C12  670   5.853   4.752  10.698 -1.1594  0.5079 -0.1700
    6SAPS  H12A  671   5.831   4.646  10.698  1.2563 -0.0670  0.1722
    6SAPS   C13  672   5.930   4.776  10.841 -0.0908 -0.6702  0.5524
    6SAPS  O13A  673   6.057   4.795  10.837 -0.2751 -0.0271  0.3158
    6SAPS  O13B  674   5.870   4.744  10.943 -0.0550 -0.1259 -0.0359
    6SAPS   C11  675   5.722   4.839  10.697 -0.5329  0.1655  0.1440
    6SAPS  H11A  676   5.741   4.947  10.679 -2.6458  0.3691 -1.1422
    6SAPS  H11B  677   5.675   4.816  10.795  0.5030  0.1991  0.6744
    6SAPS     P  678   5.475   4.768  10.618 -0.0958 -0.5286 -0.2300
    6SAPS   O13  679   5.451   4.689  10.741 -0.0729 -0.4818 -0.7708
    6SAPS   O14  680   5.407   4.898  10.602  0.3437  0.4083  0.8312
    6SAPS   O12  681   5.631   4.799  10.605  0.2925  0.1072  0.2895
    6SAPS   O11  682   5.443   4.683  10.497  0.4377  0.1427  0.4848
    6SAPS    C1  683   5.521   4.582  10.443 -0.5021 -0.2341 -0.2025
    6SAPS    HA  684   5.620   4.579  10.494  0.8636  3.6029 -2.2564
    6SAPS    HB  685   5.472   4.484  10.464 -0.0911 -0.4952 -0.4365
    6SAPS    C2  686   5.553   4.607  10.293  0.8566  0.3852  0.4067
    6SAPS    HS  687   5.631   4.535  10.259 -0.1902 -0.5262 -0.1730
    6SAPS   O21  688   5.581   4.743  10.260 -0.1009  0.2478  0.4103
    6SAPS   C21  689   5.691   4.798  10.306 -0.4853  0.1903  1.0004
    6SAPS   O22  690   5.782   4.747  10.367 -0.2845 -0.2689  0.4481
    6SAPS   C22  691   5.702   4.930  10.236 -0.3030  0.0272 -0.0585
    6SAPS   H2R  692   5.724   4.902  10.131  1.4860 -1.0797  0.5680
    6SAPS   H2S  693   5.607   4.988  10.240 -0.0856  0.3287  1.6384
    6SAPS    C3  694   5.437   4.546  10.211  0.9102  0.2620  0.4191
    6SAPS    HX  695   5.341   4.596  10.237  0.1161 -0.5816 -0.7765
    6SAPS    HY  696   5.430   4.437  10.232  1.7091 -0.1823 -1.4050
    6SAPS   O31  697   5.465   4.555  10.065  0.6088 -0.1472  0.0210
    6SAPS   C31  698   5.429   4.662  10.012  0.2929 -0.1348  0.1368
    6SAPS   O32  699   5.359   4.753  10.062 -0.1504  0.2498  0.0172
    6SAPS   C32  700   5.495   4.668   9.873 -0.0304 -0.2207  0.2224
    6SAPS   H2X  701   5.485   4.571   9.820 -0.3517 -0.3250  0.4752
    6SAPS   H2Y  702   5.604   4.680   9.889  0.1730 -2.0958  0.4263
    6SAPS   C23  703   5.819   5.009  10.294  0.3147  0.3467  0.2363
    6SAPS   H3R  704   5.913   4.951  10.282  0.6984  1.0762 -0.4071
    6SAPS   H3S  705   5.805   5.034  10.401 -0.1303 -1.3063  0.5840
    6SAPS   C24  706   5.846   5.148  10.227  0.4003 -0.3271  0.6347
    6SAPS   H4R  707   5.900   5.131  10.131  0.2009  0.0745  0.4483
    6SAPS   H4S  708   5.926   5.202  10.281 -0.4775  0.7486  0.8847
    6SAPS   C25  709   5.720   5.232  10.219 -0.0313 -0.8955  0.5079
    6SAPS   H5R  710   5.663   5.236  10.312 -3.0349 -1.2193 -1.1913
    6SAPS   C26  711   5.669   5.299  10.115 -0.0223  0.4279 -0.7717
    6SAPS   H6R  712   5.581   5.365  10.126 -1.4911 -1.7180  1.2468
    6SAPS   C27  713   5.735   5.292   9.979 -0.4331 -0.2676  0.4740
    6SAPS   H7R  714   5.845   5.276   9.981 -0.6189 -1.6710  0.5706
    6SAPS   H7S  715   5.729   5.387   9.922 -0.0239 -0.8488 -0.5589
    6SAPS   C28  716   5.677   5.173   9.907  0.4250  0.0817 -0.6130
    6SAPS   H8R  717   5.681   5.078   9.962 -0.3068 -0.5215 -1.5509
    6SAPS   C29  718   5.605   5.180   9.791 -0.4106  0.6686 -0.8995
    6SAPS   H9R  719   5.574   5.085   9.744  0.3218  0.2320 -0.5043
    6SAPS  C210  720   5.569   5.302   9.710  0.0792  0.2894 -0.2810
    6SAPS  H10R  721   5.566   5.392   9.775 -2.9206  0.3976 -0.4172
    6SAPS  H10S  722   5.468   5.286   9.666 -0.7873 -0.1432  1.7166
    6SAPS  C211  723   5.667   5.336   9.601 -0.7139 -0.6100 -0.0481
    6SAPS  H11R  724   5.756   5.391   9.636  0.8557 -2.4609 -0.9126
    6SAPS  C212  725   5.661   5.308   9.474 -0.5529 -0.9005  1.0792
    6SAPS  H12R  726   5.744   5.342   9.411  1.1513  0.1100  3.6803
    6SAPS  C213  727   5.556   5.242   9.389  0.0700 -0.0647  0.0111
    6SAPS  H13R  728   5.572   5.261   9.281  2.0430  0.5008  0.3704
    6SAPS  H13S  729   5.456   5.284   9.413  0.5533  0.4187  1.2460
    6SAPS  C214  730   5.547   5.091   9.413  0.1990 -0.3236 -0.0827
    6SAPS  H14R  731   5.560   5.059   9.517  1.7782 -1.0162 -0.4565
    6SAPS  C215  732   5.515   4.991   9.330 -0.3560  0.3284 -0.6276
    6SAPS  H15R  733   5.518   4.890   9.373 -0.4578  0.2728 -0.7486
    6SAPS  C216  734   5.478   4.996   9.183 -0.1540 -0.3963  0.2078
    6SAPS  H16R  735   5.439   5.096   9.152 -0.3786 -0.5970 -0.1629
    6SAPS  H16S  736   5.396   4.925   9.161  1.3291 -1.6993 -1.2778
    6SAPS  C217  737   5.595   4.959   9.086 -0.2306  0.1687  0.5861
    6SAPS  H17R  738   5.622   4.852   9.099 -3.2870 -0.7510  0.2125
    6SAPS  H17S  739   5.684   5.022   9.106  1.0244  0.1032 -3.7655
    6SAPS  C218  740   5.565   4.987   8.940 -0.0473  0.6369  0.0260
    6SAPS  H18R  741   5.578   5.096   8.925  2.3609  0.4629  0.4067
    6SAPS  H18S  742   5.464   4.959   8.903  1.0636 -1.1016 -1.9785
    6SAPS  C219  743   5.680   4.915   8.856 -0.1623 -0.1723  0.6947
    6SAPS  H19R  744   5.676   4.804   8.868  1.6495 -0.4891 -1.1853
    6SAPS  H19S  745   5.774   4.938   8.911 -0.4239  0.8455  0.7223
    6SAPS  C220  746   5.678   4.960   8.711  0.6777 -0.4581 -0.4405
    6SAPS  H20R  747   5.691   5.070   8.725  1.2253 -0.6813  0.9704
    6SAPS  H20S  748   5.585   4.932   8.657  0.2144  1.2681 -0.5882
    6SAPS  H20T  749   5.770   4.922   8.661  0.9943 -1.4771  0.8610
    6SAPS   C33  750   5.444   4.789   9.797  0.0861 -0.9242 -0.0258
    6SAPS   H3X  751   5.461   4.881   9.857 -2.5057 -0.2616 -0.1954
    6SAPS   H3Y  752   5.334   4.790   9.780  0.2632 -1.3265 -1.3113
    6SAPS   C34  753   5.504   4.801   9.660 -0.0421 -0.2156 -0.5019
    6SAPS   H4X  754   5.613   4.816   9.670 -0.0504  0.6688 -1.5595
    6SAPS   H4Y  755   5.457   4.887   9.607  1.5866  2.2682  1.8052
    6SAPS   C35  756   5.477   4.692   9.558 -0.3302  0.3482  0.4370
    6SAPS   H5X  757   5.512   4.593   9.594 -0.3519 -1.4339 -3.7640
    6SAPS   H5Y  758   5.538   4.709   9.466 -2.9792  0.2261 -1.4682
    6SAPS   C36  759   5.335   4.668   9.530  0.3152 -0.2848  0.3278
    6SAPS   H6X  760   5.276   4.762   9.525  1.4676  0.4388 -0.1529
    6SAPS   H6Y  761   5.295   4.611   9.617 -0.7040 -0.1276 -0.0325
    6SAPS   C37  762   5.316   4.584   9.395 -0.1560 -0.1404  0.3959
    6SAPS   H7X  763   5.206   4.572   9.390 -0.4730  2.5371 -1.5653
    6SAPS   H7Y  764   5.375   4.490   9.403  0.9931  0.4401 -0.7909
    6SAPS   C38  765   5.345   4.652   9.261 -0.1267  0.0102  0.0966
    6SAPS   H8X  766   5.452   4.683   9.265 -0.1113 -0.1508  2.4758
    6SAPS   H8Y  767   5.278   4.741   9.255 -0.0920  0.1439  1.4033
    6SAPS   C39  768   5.317   4.563   9.139 -0.6238  0.1976 -0.4506
    6SAPS   H9X  769   5.213   4.523   9.149 -0.0219 -0.9290  2.6201
    6SAPS   H9Y  770   5.387   4.477   9.149 -0.0036  0.7516  0.1268
    6SAPS  C310  771   5.362   4.634   9.008  0.2856 -0.2830 -0.7353
    6SAPS  H10X  772   5.471   4.651   9.024  0.0542  0.6799 -0.1235
    6SAPS  H10Y  773   5.320   4.737   9.006 -0.3654 -0.5274 -0.0646
    6SAPS  C311  774   5.335   4.554   8.883  0.1693 -0.6832  0.0982
    6SAPS  H11X  775   5.225   4.545   8.899  0.2469  0.9099  1.8474
    6SAPS  H11Y  776   5.369   4.448   8.881  1.2289 -0.4266  2.3617
    6SAPS  C312  777   5.371   4.631   8.761  0.1996 -0.3708  0.9143
    6SAPS  H12X  778   5.479   4.618   8.737  0.8628  2.4687  1.9982
    6SAPS  H12Y  779   5.342   4.737   8.777  0.2337 -0.2337  0.1334
    6SAPS  C313  780   5.282   4.586   8.630 -0.3358 -0.4863 -0.3482
    6SAPS  H13X  781   5.316   4.644   8.542 -0.3106 -1.0394 -0.7052
    6SAPS  H13Y  782   5.184   4.628   8.662 -0.0751  1.3961 -1.8705
    6SAPS  C314  783   5.284   4.441   8.599 -0.3066  0.1046 -0.3975
    6SAPS  H14X  784   5.248   4.385   8.688 -0.2208  1.3057  0.4198
    6SAPS  H14Y  785   5.391   4.414   8.592 -0.4414 -1.4240  2.2276
    6SAPS  C315  786   5.203   4.397   8.482 -0.1900  0.2684  0.0292
    6SAPS  H15X  787   5.224   4.288   8.476 -1.6130 -0.1779  2.1758
    6SAPS  H15Y  788   5.241   4.451   8.392 -0.1684  0.7749  0.3399
    6SAPS  C316  789   5.052   4.425   8.485  0.5180  0.3147  0.0682
    6SAPS  H16X  790   5.037   4.533   8.505  0.9707  0.5477 -0.8030
    6SAPS  H16Y  791   5.009   4.361   8.566  2.8007  0.2001  1.2563
    6SAPS  C317  792   4.979   4.393   8.355  0.3834  0.6461  0.2140
    6SAPS  H17X  793   5.013   4.474   8.287  0.4470  0.8264  0.4577
    6SAPS  H17Y  794   4.872   4.397   8.382  0.7934  2.5100  1.7545
    6SAPS  C318  795   5.022   4.258   8.283  0.0430  0.0719  0.6172
    6SAPS  H18X  796   4.992   4.176   8.351 -1.7564 -0.8135 -1.1676
    6SAPS  H18Y  797   5.131   4.254   8.260 -0.2094 -1.0238 -0.4698
    6SAPS  H18Z  798   4.971   4.251   8.185  0.3202  1.2659  0.3648
    7SAPS     N  799   1.038   0.351  11.020 -0.3817  0.2060  0.4482
    7SAPS   HN1  800   1.060   0.260  10.975  1.0597  1.1661 -0.8880
    7SAPS   HN2  801   1.083   0.355  11.114 -0.1507  1.2290  0.3053
    7SAPS   HN3  802   0.934   0.350  11.030 -0.5017 -0.0941 -0.7224
    7SAPS   C12  803   1.066   0.476  10.948 -0.1068  0.0357  0.4621
    7SAPS  H12A  804   1.028   0.558  11.008 -0.9989 -1.7076  2.3959
    7SAPS   C13  805   1.216   0.494  10.923 -0.2383  0.1395 -0.1117
    7SAPS  O13A  806   1.299   0.421  10.988  0.0641  0.5482 -0.0048
    7SAPS  O13B  807   1.254   0.589  10.849 -0.6690 -0.0110  0.6505
    7SAPS   C11  808   0.987   0.482  10.813 -0.6385 -0.1614 -0.3118
    7SAPS  H11A  809   1.037   0.410  10.745  2.4128 -0.1006  1.6363
    7SAPS  H11B  810   0.999   0.585  10.772 -0.6998  0.9666  2.3278
    7SAPS     P  811   0.747   0.416  10.729 -0.1049  0.2194  0.1057
    7SAPS   O13  812   0.789   0.303  10.643 -0.3871  0.4080 -0.3079
    7SAPS   O14  813   0.620   0.392  10.790  0.5847 -0.5357  0.0041
    7SAPS   O12  814   0.856   0.443  10.843  0.5083  0.1218 -0.3888
    7SAPS   O11  815   0.742   0.553  10.661 -0.1099 -0.0845 -0.3672
    7SAPS    C1  816   0.813   0.602  10.548 -1.0413 -0.5733  0.2544
    7SAPS    HA  817   0.823   0.712  10.550  1.3031 -0.7337  0.6190
    7SAPS    HB  818   0.920   0.571  10.556 -0.9235 -0.4087 -0.5821
    7SAPS    C2  819   0.733   0.586  10.420 -0.3251 -0.1015  0.7197
    7SAPS    HS  820   0.657   0.666  10.411 -1.1474 -0.9245  0.1500
    7SAPS   O21  821   0.654   0.466  10.425  0.1020  0.9357 -0.2461
    7SAPS   C21  822   0.557   0.453  10.346  0.5280 -0.1535 -0.3831
    7SAPS   O22  823   0.506   0.542  10.283  0.1635 -0.3048 -0.3145
    7SAPS   C22  824   0.513   0.304  10.344  0.2572 -0.5501  0.3025
    7SAPS   H2R  825   0.602   0.237  10.349 -0.6160 -1.9281 -1.4028
    7SAPS   H2S  826   0.451   0.293  10.435  0.5541  1.2036  0.7665
    7SAPS    C3  827   0.821   0.596  10.293 -0.3926  0.0032 -0.2159
    7SAPS    HX  828   0.892   0.513  10.311 -1.4520 -0.8580  0.1552
    7SAPS    HY  829   0.882   0.688  10.290  1.7817 -1.3974 -1.3175
    7SAPS   O31  830   0.753   0.578  10.169  0.2921 -0.3031  0.1413
    7SAPS   C31  831   0.714   0.681  10.101 -0.0649  0.1284  0.0025
    7SAPS   O32  832   0.724   0.795  10.130  0.0161 -0.3270 -0.4746
    7SAPS   C32  833   0.645   0.624   9.975  1.0637  0.8335 -0.4030
    7SAPS   H2X  834   0.568   0.696   9.941  0.6789 -0.2174 -1.8367
    7SAPS   H2Y  835   0.593   0.531  10.008 -0.3331  1.8512  0.3559
    7SAPS   C23  836   0.440   0.263  10.208  0.2608 -0.9153 -0.2057
    7SAPS   H3R  837   0.504   0.305  10.129 -2.0033 -0.6114 -1.9753
    7SAPS   H3S  838   0.341   0.313  10.203  0.5182 -0.1591  1.4550
    7SAPS   C24  839   0.425   0.112  10.182 -0.0872  0.0783  0.1390
    7SAPS   H4R  840   0.379   0.086  10.280 -0.6125  3.7797  1.0407
    7SAPS   H4S  841   0.524   0.064  10.167 -0.3289 -0.9777  1.6608
    7SAPS   C25  842   0.347   0.106  10.058 -0.1021 -0.3302  0.0841
    7SAPS   H5R  843   0.240   0.089  10.075 -0.4562  2.4793  1.1310
    7SAPS   C26  844   0.386   0.113   9.929  0.1771  0.5459  0.2577
    7SAPS   H6R  845   0.306   0.118   9.854  1.2697  2.7425 -0.8782
    7SAPS   C27  846   0.527   0.144   9.878  0.3282  0.0316 -0.8389
    7SAPS   H7R  847   0.581   0.215   9.944 -0.4732 -1.9430  2.1099
    7SAPS   H7S  848   0.520   0.187   9.776 -0.9939  0.3395 -0.6287
    7SAPS   C28  849   0.608   0.020   9.878 -0.1266 -0.1573 -0.1373
    7SAPS   H8R  850   0.569  -0.070   9.928  1.3504 -1.0463 -0.5016
    7SAPS   C29  851   0.734   0.015   9.828 -0.0358 -0.4593  0.2846
    7SAPS   H9R  852   0.786  -0.077   9.860  0.0960 -0.7027 -0.6017
    7SAPS  C210  853   0.807   0.133   9.761  0.6378 -0.5232 -0.8881
    7SAPS  H10R  854   0.870   0.175   9.842 -0.0156 -0.4967 -0.3863
    7SAPS  H10S  855   0.731   0.210   9.737  0.0877 -0.8522 -0.2374
    7SAPS  C211  856   0.887   0.077   9.652  0.2768 -0.1661  0.0181
    7SAPS  H11R  857   0.835   0.081   9.556 -1.5923  0.5813  1.0199
    7SAPS  C212  858   1.011   0.026   9.662 -0.0823  0.5095  0.0767
    7SAPS  H12R  859   1.067  -0.005   9.573 -0.3888  0.8990 -0.2543
    7SAPS  C213  860   1.104   0.027   9.782  0.1906  0.5115 -0.2266
    7SAPS  H13R  861   1.067   0.090   9.865 -1.3232 -0.5222 -0.0713
    7SAPS  H13S  862   1.203   0.064   9.748  1.6340 -0.8146  2.2596
    7SAPS  C214  863   1.134  -0.114   9.841  0.2619  0.1650 -0.8549
    7SAPS  H14R  864   1.064  -0.152   9.917  0.0097  2.1982  0.0000
    7SAPS  C215  865   1.246  -0.182   9.822 -0.1969  0.3184 -0.5480
    7SAPS  H15R  866   1.265  -0.277   9.873 -0.5951  1.0080  0.9347
    7SAPS  C216  867   1.363  -0.145   9.737  0.1019  0.5162 -0.5875
    7SAPS  H16R  868   1.442  -0.220   9.756 -0.5120 -0.2045 -0.8577
    7SAPS  H16S  869   1.397  -0.042   9.764  1.7190 -0.3480  0.8801
    7SAPS  C217  870   1.338  -0.151   9.593 -0.2143 -0.9505  0.9235
    7SAPS  H17R  871   1.276  -0.063   9.565  1.6107  0.0516 -0.1312
    7SAPS  H17S  872   1.276  -0.235   9.556 -1.5474 -0.3211  1.6270
    7SAPS  C218  873   1.453  -0.132   9.499  0.2766  0.6949 -0.2661
    7SAPS  H18R  874   1.409  -0.155   9.400 -2.4221 -0.3292  1.0830
    7SAPS  H18S  875   1.529  -0.210   9.524  0.1260  1.0451  1.4451
    7SAPS  C219  876   1.527   0.004   9.491  0.3623  0.0295 -0.2690
    7SAPS  H19R  877   1.620  -0.015   9.434  2.5649  0.0132  3.0518
    7SAPS  H19S  878   1.564   0.020   9.594  0.0419 -0.6565 -0.0454
    7SAPS  C220  879   1.445   0.124   9.443  0.0552  0.2078  0.5398
    7SAPS  H20R  880   1.367   0.145   9.520  0.0160 -1.2010  0.9160
    7SAPS  H20S  881   1.395   0.097   9.348 -0.6817 -0.5225  1.1101
    7SAPS  H20T  882   1.503   0.217   9.431 -1.6743  1.3371  0.5578
    7SAPS   C33  883   0.738   0.594   9.858 -0.7271  0.6114  0.4886
    7SAPS   H3X  884   0.796   0.500   9.875  1.4266  1.8274  0.1780
    7SAPS   H3Y  885   0.815   0.673   9.848 -2.8245  2.7995  0.5861
    7SAPS   C34  886   0.666   0.586   9.725 -0.4653 -1.2912  0.0020
    7SAPS   H4X  887   0.650   0.688   9.685  0.7260 -1.4510 -0.9265
    7SAPS   H4Y  888   0.572   0.527   9.728 -1.4340 -0.1451 -3.5109
    7SAPS   C35  889   0.757   0.518   9.620  0.9470 -0.1074  0.0145
    7SAPS   H5X  890   0.781   0.413   9.648 -0.6681 -0.0330  1.8037
    7SAPS   H5Y  891   0.850   0.576   9.602 -0.4252  1.8573 -1.1914
    7SAPS   C36  892   0.688   0.513   9.487 -0.0777  0.1186 -0.5733
    7SAPS   H6X  893   0.646   0.611   9.457 -0.5158  0.6739  1.6646
    7SAPS   H6Y  894   0.603   0.441   9.491  0.1979 -0.2910 -1.6559
    7SAPS   C37  895   0.782   0.465   9.372  0.2981 -0.4321 -0.3120
    7SAPS   H7X  896   0.887   0.497   9.387  0.4070 -1.1075  0.4337
    7SAPS   H7Y  897   0.739   0.521   9.286  0.1144  1.0183  0.6802
    7SAPS   C38  898   0.792   0.320   9.358  0.0728  0.1602 -0.3923
    7SAPS   H8X  899   0.821   0.274   9.455 -1.7131  1.3216  0.7514
    7SAPS   H8Y  900   0.870   0.289   9.285 -2.0619 -0.6761 -2.4148
    7SAPS   C39  901   0.662   0.246   9.308 -0.1016 -0.5046  0.8726
    7SAPS   H9X  902   0.579   0.263   9.379 -0.7673  1.0345 -0.2109
    7SAPS   H9Y  903   0.694   0.140   9.305  2.3837  0.1703  0.6724
    7SAPS  C310  904   0.621   0.276   9.161 -1.3390  0.5976 -0.2804
    7SAPS  H10X  905   0.613   0.178   9.109 -2.1667  1.0446 -1.0237
    7SAPS  H10Y  906   0.691   0.343   9.106 -1.5818  0.7176 -0.4444
    7SAPS  C311  907   0.485   0.348   9.156 -0.2485 -0.3629  0.2280
    7SAPS  H11X  908   0.479   0.441   9.218  2.2774  0.2200 -0.2960
    7SAPS  H11Y  909   0.406   0.284   9.200  1.9307 -2.0945  1.8538
    7SAPS  C312  910   0.437   0.379   9.014 -0.2428 -0.4377  0.4557
    7SAPS  H12X  911   0.332   0.412   9.007 -1.1187 -3.1144 -0.1100
    7SAPS  H12Y  912   0.455   0.292   8.947 -0.5962 -1.4894  1.6815
    7SAPS  C313  913   0.522   0.488   8.941 -0.1005 -0.4905  0.0869
    7SAPS  H13X  914   0.624   0.449   8.924  0.4560  0.7295  0.4628
    7SAPS  H13Y  915   0.524   0.580   9.003 -2.6799 -0.5931  0.4595
    7SAPS  C314  916   0.453   0.544   8.808  0.7978  0.6188  0.1878
    7SAPS  H14X  917   0.345   0.561   8.828  0.6554  1.0397 -0.8522
    7SAPS  H14Y  918   0.461   0.457   8.739 -0.3615 -0.8356  1.8121
    7SAPS  C315  919   0.502   0.671   8.744 -0.2833 -0.2875  0.9603
    7SAPS  H15X  920   0.612   0.680   8.758 -0.3392  3.1201  0.2745
    7SAPS  H15Y  921   0.459   0.757   8.799  1.2350 -0.4209  2.4576
    7SAPS  C316  922   0.450   0.685   8.594 -0.3914  0.4415 -0.4739
    7SAPS  H16X  923   0.339   0.679   8.598 -0.3144 -1.2410  0.1235
    7SAPS  H16Y  924   0.468   0.588   8.543 -2.4469  0.1473 -0.7235
    7SAPS  C317  925   0.474   0.818   8.523 -1.0470 -0.0225  0.0356
    7SAPS  H17X  926   0.581   0.846   8.531 -0.8013 -0.1370 -2.2014
    7SAPS  H17Y  927   0.425   0.901   8.578 -1.4531 -0.2221 -0.0264
    7SAPS  C318  928   0.436   0.807   8.373  0.1350  0.0690 -0.4950
    7SAPS  H18X  929   0.326   0.796   8.365  0.2094 -0.2211 -1.1588
    7SAPS  H18Y  930   0.472   0.717   8.319  0.1164 -2.3784  3.2640
    7SAPS  H18Z  931   0.477   0.897   8.322 -1.1434  0.9429 -0.0268
    8SAPS     N  932   6.006   2.241  11.030  0.1454  0.4327 -0.5636
    8SAPS   HN1  933   6.069   2.160  11.012 -0.1862 -0.1504  0.7088
    8SAPS   HN2  934   6.061   2.326  11.053  2.0563 -1.7359  4.3619
    8SAPS   HN3  935   5.960   2.213  11.119  0.9886  0.4680 -0.1080
    8SAPS   C12  936   5.909   2.273  10.911  1.0286 -0.1829 -0.4140
    8SAPS  H12A  937   5.814   2.300  10.956  1.3581  1.9544 -0.8920
    8SAPS   C13  938   5.954   2.402  10.838 -0.6418  0.1754  0.0084
    8SAPS  O13A  939   6.041   2.477  10.891  0.8096  0.6772  0.7169
    8SAPS  O13B  940   5.903   2.429  10.728  0.0310  0.3136 -0.2829
    8SAPS   C11  941   5.897   2.156  10.812 -0.3064 -0.2956  0.1566
    8SAPS  H11A  942   5.992   2.155  10.755  1.2934  0.4849  2.6546
    8SAPS  H11B  943   5.818   2.187  10.740 -0.3053  2.0103  1.0573
    8SAPS     P  944   5.723   1.991  10.897  0.4004  0.1360  0.2542
    8SAPS   O13  945   5.723   1.855  10.951  0.3158 -0.4506 -0.4820
    8SAPS   O14  946   5.650   2.100  10.973 -0.0815  0.5395  0.3650
    8SAPS   O12  947   5.873   2.032  10.871 -0.1964 -0.2598  0.1916
    8SAPS   O11  948   5.660   1.986  10.756 -0.1867  0.5199  0.5316
    8SAPS    C1  949   5.718   1.912  10.646 -0.2477 -0.3028  0.6495
    8SAPS    HA  950   5.829   1.913  10.647 -0.2595  0.7430  1.2593
    8SAPS    HB  951   5.683   1.806  10.653  0.6494 -0.7230 -0.7345
    8SAPS    C2  952   5.680   1.966  10.506 -0.1124  0.3734  0.3764
    8SAPS    HS  953   5.754   2.045  10.482  0.5816 -0.6211 -0.9084
    8SAPS   O21  954   5.551   2.033  10.516  0.5453 -0.6274  0.0015
    8SAPS   C21  955   5.539   2.153  10.448 -0.7053 -0.0041 -0.3485
    8SAPS   O22  956   5.638   2.210  10.397  0.5031  0.5500 -0.1565
    8SAPS   C22  957   5.397   2.204  10.455 -0.8361  0.0708 -1.0039
    8SAPS   H2R  958   5.330   2.123  10.418 -0.3522  0.4472 -2.8017
    8SAPS   H2S  959   5.383   2.226  10.563  2.0352 -0.2993 -0.4869
    8SAPS    C3  960   5.669   1.865  10.385  0.2062  0.1944  0.0570
    8SAPS    HX  961   5.592   1.789  10.410 -1.7824  2.4565  1.1679
    8SAPS    HY  962   5.766   1.809  10.382  0.1672  0.0926  0.5534
    8SAPS   O31  963   5.650   1.929  10.258 -0.2750 -0.3873 -0.3398
    8SAPS   C31  964   5.522   1.933  10.217  0.5354 -0.4796  0.0862
    8SAPS   O32  965   5.432   1.865  10.268 -0.0968 -0.1666  0.9192
    8SAPS   C32  966   5.505   2.018  10.098 -0.1181 -0.8363 -0.2086
    8SAPS   H2X  967   5.594   2.006  10.033 -1.4513  0.4723 -2.4245
    8SAPS   H2Y  968   5.492   2.127  10.116  0.3646 -0.6935 -0.6778
    8SAPS   C23  969   5.381   2.325  10.373 -0.3643  0.4633 -0.0158
    8SAPS   H3R  970   5.456   2.330  10.291  1.2999 -1.9528  1.2474
    8SAPS   H3S  971   5.400   2.412  10.438  0.4747  0.3719 -0.1318
    8SAPS   C24  972   5.240   2.330  10.313 -0.0809  0.3708 -0.9424
    8SAPS   H4R  973   5.165   2.303  10.390  0.6709 -2.1857 -1.0232
    8SAPS   H4S  974   5.237   2.257  10.230 -3.7379  0.0361 -0.7049
    8SAPS   C25  975   5.215   2.467  10.242 -0.1442  0.8084 -0.4870
    8SAPS   H5R  976   5.208   2.545  10.319  0.4094 -0.3166  0.7279
    8SAPS   C26  977   5.236   2.502  10.112 -0.4812 -0.4508  0.2041
    8SAPS   H6R  978   5.217   2.608  10.087  1.0879 -0.0053  0.7960
    8SAPS   C27  979   5.269   2.410  10.003 -0.1551  0.5640 -0.0257
    8SAPS   H7R  980   5.211   2.317  10.018 -1.6095  1.4203 -0.1642
    8SAPS   H7S  981   5.375   2.379  10.015 -0.4772  0.4571  3.5933
    8SAPS   C28  982   5.243   2.477   9.870  0.0146  0.6301 -0.1791
    8SAPS   H8R  983   5.202   2.579   9.866 -1.8979 -0.0588  0.7330
    8SAPS   C29  984   5.276   2.415   9.754 -0.0455 -0.2382  0.6705
    8SAPS   H9R  985   5.255   2.463   9.658 -0.4582 -1.3309  0.1985
    8SAPS  C210  986   5.334   2.281   9.738 -0.5717  0.7226  0.1827
    8SAPS  H10R  987   5.263   2.212   9.788  1.0933 -1.0803  0.1574
    8SAPS  H10S  988   5.426   2.281   9.801  0.2719  0.2622 -0.9958
    8SAPS  C211  989   5.368   2.247   9.595  0.6077  0.0481 -0.5397
    8SAPS  H11R  990   5.402   2.337   9.541 -1.8866 -0.0746 -2.4771
    8SAPS  C212  991   5.349   2.127   9.531  0.1733 -0.0884  0.6151
    8SAPS  H12R  992   5.390   2.110   9.430  3.2550 -0.9969  1.9104
    8SAPS  C213  993   5.283   2.003   9.589 -0.4691  0.0386  0.1141
    8SAPS  H13R  994   5.173   2.010   9.598 -0.7145 -3.6078  1.7653
    8SAPS  H13S  995   5.315   1.995   9.695 -0.4457  0.9472  0.1803
    8SAPS  C214  996   5.331   1.877   9.529 -0.4280 -0.4052 -0.4885
    8SAPS  H14R  997   5.435   1.844   9.544 -1.1054 -2.5612 -0.1588
    8SAPS  C215  998   5.244   1.781   9.489  0.7217 -0.6343  0.5705
    8SAPS  H15R  999   5.283   1.692   9.437  1.0616  0.5955 -1.3574
    8SAPS  C216 1000   5.091   1.799   9.493 -0.4483 -0.0449  0.7061
    8SAPS  H16R 1001   5.054   1.775   9.391 -0.7289 -0.8872  0.9972
    8SAPS  H16S 1002   5.049   1.902   9.495 -1.3486 -0.3585 -0.5631
    8SAPS  C217 1003   5.005   1.711   9.588 -0.2735 -0.4754 -0.1494
    8SAPS  H17R 1004   5.014   1.602   9.567 -0.2595 -0.2024 -1.6612
    8SAPS  H17S 1005   4.899   1.730   9.560 -0.3738 -1.8096 -0.7504
    8SAPS  C218 1006   5.032   1.738   9.736 -0.1782 -0.2978 -0.4767
    8SAPS  H18R 1007   4.965   1.819   9.774  0.1721 -0.2686  0.0965
    8SAPS  H18S 1008   5.136   1.765   9.766 -0.3481 -1.2967  1.1453
    8SAPS  C219 1009   4.977   1.626   9.812 -0.4330  0.6808  0.1916
    8SAPS  H19R 1010   5.019   1.528   9.782  0.0918 -0.0915  3.1531
    8SAPS  H19S 1011   4.870   1.615   9.784 -0.3918  2.9530 -1.0787
    8SAPS  C220 1012   4.987   1.641   9.959  0.1683  0.2128 -0.4162
    8SAPS  H20R 1013   5.091   1.647   9.996  1.0911 -1.2493 -2.5953
    8SAPS  H20S 1014   4.945   1.550  10.007  0.5260  0.6221  0.6938
    8SAPS  H20T 1015   4.925   1.728   9.989 -0.4469 -0.6763  1.0113
    8SAPS   C33 1016   5.388   1.967  10.011  0.1319 -0.6101 -0.1758
    8SAPS   H3X 1017   5.375   2.037   9.926  0.2067 -1.2553 -0.7266
    8SAPS   H3Y 1018   5.308   1.986  10.086  0.8082 -0.2307  0.4710
    8SAPS   C34 1019   5.397   1.829   9.946 -0.5199 -0.4469 -0.1622
    8SAPS   H4X 1020   5.308   1.823   9.880 -1.1700  1.0248  0.5473
    8SAPS   H4Y 1021   5.401   1.752  10.026  1.2405  0.6232  0.8581
    8SAPS   C35 1022   5.523   1.820   9.861 -0.2257  0.7162 -0.4804
    8SAPS   H5X 1023   5.618   1.824   9.918 -1.0597  1.4718  0.9028
    8SAPS   H5Y 1024   5.533   1.909   9.794 -0.5584  0.4263 -0.9237
    8SAPS   C36 1025   5.526   1.687   9.777  0.8047 -0.8317 -0.2226
    8SAPS   H6X 1026   5.431   1.672   9.720  0.6953 -5.1270  0.7476
    8SAPS   H6Y 1027   5.504   1.597   9.839  1.2995 -2.1632 -1.9225
    8SAPS   C37 1028   5.650   1.668   9.694 -0.7104  0.0996  0.2624
    8SAPS   H7X 1029   5.735   1.674   9.764 -0.9668 -1.9619  0.8256
    8SAPS   H7Y 1030   5.646   1.748   9.617 -1.0768  0.7420  0.9332
    8SAPS   C38 1031   5.679   1.529   9.634  0.0130  0.3577  0.3201
    8SAPS   H8X 1032   5.582   1.515   9.582 -0.2423 -0.7785  1.0810
    8SAPS   H8Y 1033   5.687   1.462   9.721 -1.1173  0.1836  0.3018
    8SAPS   C39 1034   5.801   1.515   9.538 -0.0038  0.3178 -0.3787
    8SAPS   H9X 1035   5.799   1.601   9.468 -0.6361 -0.0012 -0.7655
    8SAPS   H9Y 1036   5.807   1.417   9.484 -1.6156  0.1222 -0.2308
    8SAPS  C310 1037   5.935   1.514   9.614  0.0954  0.2727 -0.1651
    8SAPS  H10X 1038   5.937   1.434   9.691  1.5827 -0.4832 -0.9482
    8SAPS  H10Y 1039   5.942   1.612   9.667  0.2397 -0.7872  1.9059
    8SAPS  C311 1040   6.057   1.481   9.519 -0.1497  0.0183 -0.1464
    8SAPS  H11X 1041   6.026   1.402   9.448  0.2834 -0.6500  0.4037
    8SAPS  H11Y 1042   6.140   1.436   9.578 -1.4552 -2.7559 -0.2762
    8SAPS  C312 1043   6.093   1.600   9.425 -0.0680 -0.6158 -0.2329
    8SAPS  H12X 1044   6.001   1.636   9.375  1.3497  1.0958 -1.7569
    8SAPS  H12Y 1045   6.158   1.549   9.350 -0.7988 -0.6860 -0.8316
    8SAPS  C313 1046   6.156   1.725   9.489  0.2262 -0.4247  0.3897
    8SAPS  H13X 1047   6.220   1.701   9.576  1.3886  1.3696  0.0970
    8SAPS  H13Y 1048   6.091   1.805   9.531  2.6746  1.5034  0.7615
    8SAPS  C314 1049   6.246   1.801   9.391  0.3779  0.6478  0.2779
    8SAPS  H14X 1050   6.317   1.734   9.338 -0.5412 -0.1260 -0.0060
    8SAPS  H14Y 1051   6.312   1.867   9.450  0.3995  2.3914 -1.5816
    8SAPS  C315 1052   6.169   1.897   9.306 -0.3830  0.2791  0.2839
    8SAPS  H15X 1053   6.094   1.937   9.377 -2.9744 -0.3371 -1.9593
    8SAPS  H15Y 1054   6.125   1.836   9.225 -1.0934  1.5939 -0.3506
    8SAPS  C316 1055   6.241   2.023   9.256  0.1023 -0.3265 -1.1456
    8SAPS  H16X 1056   6.179   2.071   9.177  1.1625  0.6148 -1.4428
    8SAPS  H16Y 1057   6.338   1.995   9.209  0.7001  0.3721 -0.3718
    8SAPS  C317 1058   6.269   2.128   9.361  0.2343  0.4091 -0.1318
    8SAPS  H17X 1059   6.316   2.071   9.444 -0.1539  0.4448  0.1131
    8SAPS  H17Y 1060   6.176   2.174   9.399  0.9393  1.7476  0.0561
    8SAPS  C318 1061   6.358   2.242   9.326 -1.3145 -0.8652 -0.7585
    8SAPS  H18X 1062   6.464   2.212   9.317 -0.9154 -0.2670  1.3000
    8SAPS  H18Y 1063   6.351   2.314   9.411 -0.0968 -1.5056 -0.0946
    8SAPS  H18Z 1064   6.335   2.312   9.243  0.9325  1.0540  0.1265
    9SAPS     N 1065   2.242   4.113   6.239  0.4908 -0.7713 -0.3372
    9SAPS   HN1 1066   2.273   4.171   6.158 -1.5888  0.0866 -0.5870
    9SAPS   HN2 1067   2.147   4.142   6.270  1.4957  1.6163  0.7397
    9SAPS   HN3 1068   2.303   4.126   6.322 -0.7098  2.7459  0.1733
    9SAPS   C12 1069   2.215   3.980   6.186  0.2747  0.2928 -0.0175
    9SAPS  H12A 1070   2.193   3.925   6.276 -1.8864  1.0784 -0.0140
    9SAPS   C13 1071   2.092   3.969   6.088 -0.5405 -0.3296 -0.3280
    9SAPS  O13A 1072   2.026   4.064   6.046  0.1257 -0.0231 -0.0870
    9SAPS  O13B 1073   2.072   3.857   6.037  0.5269  0.3815  0.2155
    9SAPS   C11 1074   2.351   3.934   6.113 -0.1971  0.3207  0.0499
    9SAPS  H11A 1075   2.371   4.001   6.027 -0.8916 -0.2703 -0.5949
    9SAPS  H11B 1076   2.340   3.840   6.054  0.4123 -0.9506  1.8806
    9SAPS     P 1077   2.529   3.798   6.261  0.1201  0.3449 -0.1744
    9SAPS   O13 1078   2.438   3.731   6.362 -0.1187  0.0777 -0.2188
    9SAPS   O14 1079   2.562   3.721   6.136  0.3312  0.8173 -0.2418
    9SAPS   O12 1080   2.463   3.929   6.208 -0.0371  0.2002 -0.0942
    9SAPS   O11 1081   2.657   3.849   6.330  0.5264 -0.3867  0.2333
    9SAPS    C1 1082   2.665   3.963   6.413 -0.1990  0.0209  0.3740
    9SAPS    HA 1083   2.769   4.001   6.409 -0.7677  2.1004  2.9651
    9SAPS    HB 1084   2.595   4.044   6.385 -0.3270  0.0147  0.6721
    9SAPS    C2 1085   2.654   3.934   6.574 -0.2582 -0.0369  0.4143
    9SAPS    HS 1086   2.719   3.846   6.594 -1.4945 -1.1181 -0.1813
    9SAPS   O21 1087   2.515   3.907   6.595  0.1302 -0.1786 -0.0180
    9SAPS   C21 1088   2.485   3.806   6.679  0.6825 -0.6779 -0.5806
    9SAPS   O22 1089   2.570   3.736   6.727  0.4314 -0.4091  0.6830
    9SAPS   C22 1090   2.339   3.788   6.690  0.5279  0.4962  0.6207
    9SAPS   H2R 1091   2.289   3.839   6.605 -0.9028 -2.8693 -0.7699
    9SAPS   H2S 1092   2.320   3.678   6.683  0.1149  0.5614  0.7197
    9SAPS    C3 1093   2.712   4.052   6.658  0.4290  0.0023  0.9171
    9SAPS    HX 1094   2.647   4.136   6.625  2.7215  1.1828 -0.8272
    9SAPS    HY 1095   2.816   4.080   6.630 -0.7601  1.1329 -2.8407
    9SAPS   O31 1096   2.696   4.039   6.794  0.5670  0.1626 -0.7407
    9SAPS   C31 1097   2.773   3.942   6.847  0.7580 -0.8103  0.1887
    9SAPS   O32 1098   2.866   3.890   6.796  0.1825  0.4077  0.5974
    9SAPS   C32 1099   2.711   3.909   6.981  0.2077 -0.8509 -0.1544
    9SAPS   H2X 1100   2.666   3.808   6.973 -3.6840  0.6827  0.1877
    9SAPS   H2Y 1101   2.627   3.981   6.991  1.7194  0.9151  0.6174
    9SAPS   C23 1102   2.283   3.847   6.817 -1.1571  0.7199  0.9655
    9SAPS   H3R 1103   2.260   3.954   6.798 -0.8239  1.3263  3.5330
    9SAPS   H3S 1104   2.348   3.843   6.907 -1.5909 -0.8492  1.2356
    9SAPS   C24 1105   2.149   3.783   6.858  0.6102  0.4677  0.1258
    9SAPS   H4R 1106   2.080   3.778   6.771 -1.4335  0.9527  1.6288
    9SAPS   H4S 1107   2.104   3.857   6.927  1.4701 -0.0269  1.2570
    9SAPS   C25 1108   2.155   3.654   6.926  0.3118 -0.8119  0.1343
    9SAPS   H5R 1109   2.106   3.574   6.869 -1.3225  0.7398 -0.7335
    9SAPS   C26 1110   2.196   3.637   7.052 -0.4546 -0.2602  0.0827
    9SAPS   H6R 1111   2.170   3.544   7.105 -2.8422 -0.1677 -0.7739
    9SAPS   C27 1112   2.241   3.745   7.146 -0.2280 -0.4844  0.0769
    9SAPS   H7R 1113   2.167   3.737   7.228  0.8669 -1.5316  0.9909
    9SAPS   H7S 1114   2.230   3.846   7.099  1.1234  0.5792  1.9125
    9SAPS   C28 1115   2.385   3.723   7.195 -0.2728 -0.1669 -0.0146
    9SAPS   H8R 1116   2.459   3.708   7.115  1.3723 -1.5216  1.6709
    9SAPS   C29 1117   2.430   3.741   7.316 -0.0272  0.4114 -0.2011
    9SAPS   H9R 1118   2.534   3.718   7.344 -0.4038 -0.9622  0.1558
    9SAPS  C210 1119   2.342   3.765   7.431 -0.1553 -0.0297 -1.0156
    9SAPS  H10R 1120   2.268   3.683   7.442 -0.8540  0.8303  1.3196
    9SAPS  H10S 1121   2.284   3.856   7.404  0.1270  0.5869  0.3643
    9SAPS  C211 1122   2.405   3.779   7.572  0.6045 -0.4969  0.1677
    9SAPS  H11R 1123   2.511   3.767   7.598  0.4703 -0.0042  0.9532
    9SAPS  C212 1124   2.322   3.798   7.676 -0.3142 -0.4032 -0.4693
    9SAPS  H12R 1125   2.365   3.841   7.768 -3.0437  0.4720  0.4988
    9SAPS  C213 1126   2.173   3.819   7.684 -0.7653 -0.2089  0.0552
    9SAPS  H13R 1127   2.112   3.813   7.591 -2.3755 -0.0117  1.0673
    9SAPS  H13S 1128   2.153   3.924   7.714  3.1046  0.2060  1.9166
    9SAPS  C214 1129   2.111   3.731   7.784  0.5394  0.1147 -0.8473
    9SAPS  H14R 1130   2.080   3.627   7.765 -3.5203  0.4145  2.6818
    9SAPS  C215 1131   2.095   3.767   7.914 -0.5278 -0.2935 -0.0103
    9SAPS  H15R 1132   2.042   3.700   7.983  1.2599 -1.6982  0.0716
    9SAPS  C216 1133   2.144   3.892   7.983  0.2887  0.5637 -0.2524
    9SAPS  H16R 1134   2.062   3.933   8.045  1.1156  0.1307  1.1685
    9SAPS  H16S 1135   2.176   3.980   7.924 -2.1294  2.1197  0.6047
    9SAPS  C217 1136   2.265   3.878   8.084 -0.3565 -0.3964 -0.8244
    9SAPS  H17R 1137   2.235   3.809   8.167 -0.8304  0.0790 -0.5947
    9SAPS  H17S 1138   2.273   3.980   8.125 -0.0626 -0.6950 -0.1228
    9SAPS  C218 1139   2.404   3.834   8.036  0.4093  0.4266  0.3390
    9SAPS  H18R 1140   2.464   3.913   7.986  1.4230 -1.2073 -1.1564
    9SAPS  H18S 1141   2.389   3.753   7.962  1.0234 -0.4376  1.1272
    9SAPS  C219 1142   2.492   3.788   8.150 -0.2516 -0.3580 -0.4491
    9SAPS  H19R 1143   2.585   3.744   8.108  0.1070  0.0814 -0.1252
    9SAPS  H19S 1144   2.435   3.706   8.198  1.6730 -1.3820  0.2127
    9SAPS  C220 1145   2.531   3.893   8.255 -0.1670  0.3274 -0.6437
    9SAPS  H20R 1146   2.588   3.835   8.330  0.1233  1.9339  0.4316
    9SAPS  H20S 1147   2.444   3.946   8.300  1.3900  0.8746  1.9380
    9SAPS  H20T 1148   2.600   3.974   8.223  0.8034 -1.4051 -3.1619
    9SAPS   C33 1149   2.799   3.933   7.106 -0.0470 -0.1640 -0.2212
    9SAPS   H3X 1150   2.805   4.044   7.117  2.0374 -0.0547 -1.7832
    9SAPS   H3Y 1151   2.898   3.884   7.103 -0.0196 -0.3503  2.0996
    9SAPS   C34 1152   2.731   3.881   7.236  0.3514 -0.0144 -0.4407
    9SAPS   H4X 1153   2.692   3.779   7.219 -2.3320  0.8891 -0.2459
    9SAPS   H4Y 1154   2.645   3.947   7.262 -0.3289 -1.2860  0.6719
    9SAPS   C35 1155   2.836   3.879   7.353  0.8046 -0.4579  0.5046
    9SAPS   H5X 1156   2.876   3.981   7.367 -0.3886  0.1274 -0.1278
    9SAPS   H5Y 1157   2.919   3.808   7.333 -0.0948 -0.7836 -2.6470
    9SAPS   C36 1158   2.768   3.855   7.490 -0.1277  0.6258  0.5622
    9SAPS   H6X 1159   2.730   3.751   7.496 -0.7801  0.8377  0.1661
    9SAPS   H6Y 1160   2.678   3.917   7.513 -0.0009  1.0480 -0.0655
    9SAPS   C37 1161   2.870   3.880   7.608 -0.0174  0.2697 -0.9515
    9SAPS   H7X 1162   2.877   3.990   7.612  1.2689  0.1819  0.0438
    9SAPS   H7Y 1163   2.966   3.833   7.577  0.4708 -1.8077  2.9903
    9SAPS   C38 1164   2.817   3.845   7.752 -0.2125 -0.0065  1.1593
    9SAPS   H8X 1165   2.827   3.735   7.765 -1.4844 -0.5834 -1.8926
    9SAPS   H8Y 1166   2.714   3.879   7.774  0.9351  2.4593  3.2166
    9SAPS   C39 1167   2.916   3.901   7.856  0.0615  0.3786  0.6426
    9SAPS   H9X 1168   2.938   4.010   7.850 -0.9071  0.5836  0.7427
    9SAPS   H9Y 1169   3.019   3.858   7.848 -0.5080 -0.8000 -0.9948
    9SAPS  C310 1170   2.859   3.881   7.999 -0.2751  1.2229 -0.2468
    9SAPS  H10X 1171   2.796   3.791   8.011  1.6985 -0.2255 -0.2462
    9SAPS  H10Y 1172   2.784   3.959   8.023 -0.2171  1.1085  0.3001
    9SAPS  C311 1173   2.961   3.892   8.110  0.4264 -0.3050  0.1170
    9SAPS  H11X 1174   3.017   3.986   8.090 -0.0061 -0.3477 -1.3893
    9SAPS  H11Y 1175   3.036   3.812   8.097 -2.5134 -3.4522  1.0070
    9SAPS  C312 1176   2.901   3.881   8.248 -0.2048 -0.3456 -0.6204
    9SAPS  H12X 1177   2.844   3.788   8.268 -1.3678  1.1481  4.2736
    9SAPS  H12Y 1178   2.835   3.969   8.259  0.1166 -0.2723  0.8957
    9SAPS  C313 1179   2.999   3.911   8.363  0.5412  0.2846 -0.2052
    9SAPS  H13X 1180   3.071   3.984   8.320  0.3658  0.8871  0.4999
    9SAPS  H13Y 1181   3.044   3.815   8.394 -0.7742 -0.1183  0.5517
    9SAPS  C314 1182   2.926   3.964   8.484  0.3288 -0.1469 -0.0644
    9SAPS  H14X 1183   2.836   3.911   8.522 -1.0939  1.5760 -0.8823
    9SAPS  H14Y 1184   2.899   4.070   8.465 -3.7702 -1.0583 -0.1452
    9SAPS  C315 1185   3.023   3.960   8.606 -0.9714  0.3296  0.1892
    9SAPS  H15X 1186   3.071   3.860   8.603 -0.7254  0.4764 -1.6783
    9SAPS  H15Y 1187   2.969   3.971   8.703 -0.5932 -0.7573  0.5312
    9SAPS  C316 1188   3.127   4.074   8.615 -0.2257 -0.0438  0.8990
    9SAPS  H16X 1189   3.073   4.170   8.602  0.4621  0.2911  0.4130
    9SAPS  H16Y 1190   3.196   4.060   8.529 -1.2102 -2.0146  0.3783
    9SAPS  C317 1191   3.219   4.075   8.737  0.8912  0.3928  0.3201
    9SAPS  H17X 1192   3.156   4.063   8.827 -1.6734  0.1683 -1.3912
    9SAPS  H17Y 1193   3.274   4.172   8.739 -1.0275  1.5310  3.0037
    9SAPS  C318 1194   3.336   3.969   8.723 -0.0603  0.0765 -1.3694
    9SAPS  H18X 1195   3.311   3.861   8.724 -0.0877  0.0865 -0.4061
    9SAPS  H18Y 1196   3.404   3.985   8.810  1.1888 -1.7531 -1.9492
    9SAPS  H18Z 1197   3.406   3.986   8.638 -0.6123 -1.6961 -2.2314
   10SAPS     N 1198   2.955   2.912   6.177  0.7268  0.3698 -0.1382
   10SAPS   HN1 1199   3.001   2.997   6.215  0.8482  0.3523 -0.2453
   10SAPS   HN2 1200   2.973   2.833   6.242 -0.6027 -0.5879 -0.8920
   10SAPS   HN3 1201   3.010   2.888   6.091 -0.5347 -0.3285 -0.7693
   10SAPS   C12 1202   2.809   2.937   6.168 -0.8988  0.3464  0.3956
   10SAPS  H12A 1203   2.794   3.044   6.172 -0.3844  0.3789  3.3006
   10SAPS   C13 1204   2.746   2.879   6.038 -0.4457 -0.6081 -0.5922
   10SAPS  O13A 1205   2.818   2.826   5.946 -0.1482  0.0393 -0.9519
   10SAPS  O13B 1206   2.628   2.904   6.014  0.8681 -0.3523  0.5028
   10SAPS   C11 1207   2.733   2.883   6.292 -0.2951  0.3321  1.1029
   10SAPS  H11A 1208   2.629   2.921   6.280 -0.0140  0.3823 -1.8971
   10SAPS  H11B 1209   2.764   2.945   6.378  0.4696  0.5006  0.7141
   10SAPS     P 1210   2.831   2.652   6.387  0.3350 -0.1436 -0.0622
   10SAPS   O13 1211   2.823   2.514   6.348 -0.1286 -0.2408  0.0243
   10SAPS   O14 1212   2.965   2.713   6.377 -0.1120 -0.5691 -0.2661
   10SAPS   O12 1213   2.726   2.738   6.306  0.1659  0.3695  0.0064
   10SAPS   O11 1214   2.780   2.664   6.533  0.3340  0.6332  0.2010
   10SAPS    C1 1215   2.651   2.654   6.581  0.0285  0.1739 -0.8841
   10SAPS    HA 1216   2.613   2.758   6.595  0.2784  0.1185  0.3327
   10SAPS    HB 1217   2.579   2.597   6.519 -2.0581 -0.5720  2.0052
   10SAPS    C2 1218   2.638   2.578   6.712  0.0392  0.4819  0.4315
   10SAPS    HS 1219   2.533   2.570   6.748  0.0305 -1.8494  0.0955
   10SAPS   O21 1220   2.724   2.629   6.814 -0.4208 -0.3046 -0.3083
   10SAPS   C21 1221   2.685   2.750   6.866  0.2088 -0.3940 -0.3024
   10SAPS   O22 1222   2.571   2.792   6.848  0.6587  0.4456 -0.1013
   10SAPS   C22 1223   2.797   2.805   6.952  0.4656  0.0289 -0.4639
   10SAPS   H2R 1224   2.853   2.724   7.003  1.0580  0.6249 -0.1498
   10SAPS   H2S 1225   2.864   2.849   6.876  0.6554  0.0910 -0.2622
   10SAPS    C3 1226   2.659   2.423   6.675  0.2217 -0.1060  0.7133
   10SAPS    HX 1227   2.744   2.401   6.607  0.6677  0.6714  1.0037
   10SAPS    HY 1228   2.564   2.406   6.620  0.3325  1.0022  0.1610
   10SAPS   O31 1229   2.666   2.333   6.789 -0.6597 -0.0529 -0.4342
   10SAPS   C31 1230   2.783   2.295   6.838 -0.0405  0.1388 -0.1160
   10SAPS   O32 1231   2.892   2.340   6.811 -0.8067  0.1314  0.4448
   10SAPS   C32 1232   2.764   2.199   6.950 -0.1155  0.9396 -0.2026
   10SAPS   H2X 1233   2.854   2.136   6.931  0.1857  1.8641 -1.9977
   10SAPS   H2Y 1234   2.678   2.130   6.942 -0.5601  1.1880  1.7649
   10SAPS   C23 1235   2.754   2.907   7.058  0.2512 -0.4150 -0.1947
   10SAPS   H3R 1236   2.701   2.859   7.143  0.3996  0.3891  0.3653
   10SAPS   H3S 1237   2.687   2.983   7.011 -1.5393 -1.8187 -0.0594
   10SAPS   C24 1238   2.876   2.990   7.113 -0.0075  0.0152 -0.6740
   10SAPS   H4R 1239   2.829   3.060   7.185  0.0291 -0.2736 -0.3678
   10SAPS   H4S 1240   2.919   3.039   7.023 -1.2396  2.1413 -0.1614
   10SAPS   C25 1241   2.974   2.890   7.178 -0.1712 -0.4427  0.4997
   10SAPS   H5R 1242   3.062   2.861   7.120  0.6808  2.0482  0.4094
   10SAPS   C26 1243   2.981   2.861   7.312  0.5282  0.2269  0.0580
   10SAPS   H6R 1244   3.051   2.782   7.345 -1.0077 -0.4266  1.9652
   10SAPS   C27 1245   2.879   2.900   7.423  0.6584 -0.4436 -0.0815
   10SAPS   H7R 1246   2.794   2.828   7.427  1.3235 -1.2411 -0.1257
   10SAPS   H7S 1247   2.828   2.993   7.389  2.4626  1.3509  1.8307
   10SAPS   C28 1248   2.943   2.911   7.557 -0.5190  0.3044 -0.5418
   10SAPS   H8R 1249   3.010   2.998   7.570  0.0088 -0.2373  0.4704
   10SAPS   C29 1250   2.930   2.820   7.651 -0.8319  0.4431 -0.0086
   10SAPS   H9R 1251   2.989   2.834   7.742  1.6111 -0.3246 -1.3732
   10SAPS  C210 1252   2.863   2.686   7.649  0.3123 -0.2963 -0.1161
   10SAPS  H10R 1253   2.785   2.694   7.570  1.1721  3.1223 -0.7618
   10SAPS  H10S 1254   2.807   2.667   7.743 -1.2321 -1.2507 -1.1732
   10SAPS  C211 1255   2.946   2.567   7.609 -0.6408  0.2414 -0.2917
   10SAPS  H11R 1256   2.976   2.548   7.505  0.3806 -0.9339  0.1895
   10SAPS  C212 1257   2.970   2.468   7.697 -0.0562 -0.5650 -0.9138
   10SAPS  H12R 1258   3.029   2.381   7.663  0.0031  0.4570 -3.7096
   10SAPS  C213 1259   2.942   2.482   7.849  0.5342  0.3802  0.5457
   10SAPS  H13R 1260   2.832   2.474   7.865  0.1332  1.3528 -1.3013
   10SAPS  H13S 1261   2.965   2.582   7.892 -0.3622  0.4646  0.8610
   10SAPS  C214 1262   3.016   2.384   7.933  0.2031 -0.2349 -1.1498
   10SAPS  H14R 1263   3.101   2.340   7.879  2.3167 -0.2644  1.9441
   10SAPS  C215 1264   2.983   2.342   8.057 -0.8875  0.0848  0.2510
   10SAPS  H15R 1265   3.061   2.283   8.106  0.4729 -0.3071 -2.2373
   10SAPS  C216 1266   2.866   2.383   8.135 -0.1577 -0.4622 -0.4340
   10SAPS  H16R 1267   2.797   2.299   8.161 -0.7188  0.0504 -0.2417
   10SAPS  H16S 1268   2.804   2.463   8.089  1.5977  1.1685 -0.0512
   10SAPS  C217 1269   2.913   2.464   8.260  0.3469 -1.0096 -0.7417
   10SAPS  H17R 1270   3.001   2.529   8.239 -0.7887  0.5454 -0.9058
   10SAPS  H17S 1271   2.933   2.388   8.338  1.7655  1.1637  1.1590
   10SAPS  C218 1272   2.805   2.567   8.311 -0.6865  0.2335 -0.4534
   10SAPS  H18R 1273   2.818   2.655   8.245  0.0082  1.3431  1.0838
   10SAPS  H18S 1274   2.833   2.604   8.412  1.3952  0.0262 -0.9038
   10SAPS  C219 1275   2.660   2.528   8.305 -0.2026 -0.3636  0.3446
   10SAPS  H19R 1276   2.625   2.502   8.203 -2.6914  1.4061  0.6624
   10SAPS  H19S 1277   2.599   2.614   8.337  0.1520  0.9027 -2.1406
   10SAPS  C220 1278   2.621   2.399   8.386 -0.5284 -0.5515 -0.0125
   10SAPS  H20R 1279   2.673   2.405   8.484  1.4121  0.3437 -1.0319
   10SAPS  H20S 1280   2.661   2.310   8.332  2.8230  0.5023  0.5050
   10SAPS  H20T 1281   2.511   2.395   8.395 -0.4160 -2.4888  0.9612
   10SAPS   C33 1282   2.777   2.271   7.087  0.6452  0.6193 -0.0700
   10SAPS   H3X 1283   2.686   2.332   7.096  0.5039  0.4052 -0.0391
   10SAPS   H3Y 1284   2.858   2.347   7.096  0.8001  0.5903 -1.0886
   10SAPS   C34 1285   2.779   2.171   7.198 -0.1783  0.4320 -0.2298
   10SAPS   H4X 1286   2.873   2.111   7.200 -0.0133  0.6878 -0.2356
   10SAPS   H4Y 1287   2.697   2.096   7.193 -0.7456  0.7613  2.3829
   10SAPS   C35 1288   2.766   2.255   7.329  0.7263  0.1841 -0.2249
   10SAPS   H5X 1289   2.660   2.285   7.336  0.7433  0.0585  0.7148
   10SAPS   H5Y 1290   2.819   2.353   7.326  1.1066  0.0036  0.4186
   10SAPS   C36 1291   2.795   2.181   7.459  0.6687  0.8816  0.0821
   10SAPS   H6X 1292   2.745   2.082   7.463  3.0079 -0.4151 -0.5671
   10SAPS   H6Y 1293   2.754   2.257   7.530 -0.3635  1.2094 -0.8529
   10SAPS   C37 1294   2.945   2.150   7.474 -0.3273 -0.5333 -0.5689
   10SAPS   H7X 1295   3.008   2.238   7.450 -2.1797  0.5542 -1.7305
   10SAPS   H7Y 1296   2.971   2.071   7.401  1.6241 -0.3549 -0.1240
   10SAPS   C38 1297   2.993   2.111   7.612 -0.0461 -0.5118 -0.2975
   10SAPS   H8X 1298   2.949   2.013   7.640  0.7944 -1.7932 -3.1299
   10SAPS   H8Y 1299   2.951   2.176   7.692 -0.8697  1.2721 -2.1005
   10SAPS   C39 1300   3.145   2.093   7.611  0.0584  0.0408  0.1483
   10SAPS   H9X 1301   3.186   2.185   7.566 -0.4044  0.1949  0.0357
   10SAPS   H9Y 1302   3.185   2.008   7.552  0.7291  1.9532 -2.3023
   10SAPS  C310 1303   3.206   2.081   7.750  0.1144  0.3300 -0.0668
   10SAPS  H10X 1304   3.189   1.978   7.787  3.0383 -0.1107  0.2957
   10SAPS  H10Y 1305   3.149   2.137   7.828  1.5457  0.6162  0.8184
   10SAPS  C311 1306   3.353   2.109   7.762 -0.7285 -0.6248 -0.1171
   10SAPS  H11X 1307   3.363   2.219   7.747  0.7553 -0.6581  0.5092
   10SAPS  H11Y 1308   3.412   2.055   7.685  0.6571 -0.3407  0.7085
   10SAPS  C312 1309   3.408   2.069   7.907 -0.4818 -0.4157  0.0900
   10SAPS  H12X 1310   3.435   1.962   7.895 -3.5134 -1.3800  0.7982
   10SAPS  H12Y 1311   3.322   2.093   7.974 -0.3139  2.7285 -0.6593
   10SAPS  C313 1312   3.524   2.156   7.961 -0.4458  0.3614 -0.9025
   10SAPS  H13X 1313   3.598   2.181   7.882  2.0833 -0.4517  1.0731
   10SAPS  H13Y 1314   3.573   2.098   8.041 -0.4249  0.2245 -1.0144
   10SAPS  C314 1315   3.488   2.294   8.018 -0.2314 -0.3518  0.1349
   10SAPS  H14X 1316   3.453   2.361   7.937  0.2995 -0.6668 -0.3622
   10SAPS  H14Y 1317   3.589   2.337   8.035 -1.1194  1.4226  1.2928
   10SAPS  C315 1318   3.417   2.296   8.147  0.2298  0.1862 -0.1003
   10SAPS  H15X 1319   3.462   2.225   8.219  0.9069  2.6278  2.0388
   10SAPS  H15Y 1320   3.311   2.264   8.139  0.8921 -2.3004  0.2279
   10SAPS  C316 1321   3.410   2.424   8.222 -0.4798 -0.5980  0.2267
   10SAPS  H16X 1322   3.508   2.474   8.237 -0.6776 -0.2824  0.4682
   10SAPS  H16Y 1323   3.364   2.411   8.322  0.5945 -1.1683  0.6672
   10SAPS  C317 1324   3.319   2.534   8.151 -0.5432  0.9650 -0.4620
   10SAPS  H17X 1325   3.219   2.489   8.133 -0.8405  0.7054  1.5400
   10SAPS  H17Y 1326   3.365   2.574   8.058  0.9041  1.9439  0.6389
   10SAPS  C318 1327   3.298   2.651   8.246 -0.3414 -0.0299 -0.2718
   10SAPS  H18X 1328   3.223   2.720   8.203 -0.7547 -0.2928  0.0153
   10SAPS  H18Y 1329   3.393   2.705   8.268 -0.5984  0.0689  0.6648
   10SAPS  H18Z 1330   3.262   2.621   8.347  2.0268 -0.2471  0.5766
   11SAPS     N 1331   5.586   5.913   5.622  0.1033  0.3923  0.4270
   11SAPS   HN1 1332   5.610   6.011   5.647  0.9182  0.2797  0.1252
   11SAPS   HN2 1333   5.661   5.849   5.657 -0.0794 -0.3462 -0.4741
   11SAPS   HN3 1334   5.568   5.890   5.522  1.2275 -3.2592  0.8889
   11SAPS   C12 1335   5.458   5.878   5.696  0.4420  0.1177 -0.0109
   11SAPS  H12A 1336   5.375   5.936   5.658  1.8597  1.7479 -0.7247
   11SAPS   C13 1337   5.417   5.729   5.678  0.1982  0.2293  0.2489
   11SAPS  O13A 1338   5.479   5.646   5.608  0.0658 -0.0489 -0.8758
   11SAPS  O13B 1339   5.306   5.695   5.722  0.3083 -0.1470  0.0201
   11SAPS   C11 1340   5.473   5.896   5.846  0.0322  0.0650 -0.4977
   11SAPS  H11A 1341   5.565   5.840   5.871  1.3258  2.0948 -0.4680
   11SAPS  H11B 1342   5.382   5.856   5.897  0.1179  1.8923  1.2176
   11SAPS     P 1343   5.391   6.133   5.930 -0.0132  0.0516 -0.4421
   11SAPS   O13 1344   5.462   6.255   5.977 -0.1037  0.2407 -0.3094
   11SAPS   O14 1345   5.292   6.146   5.818 -0.1467  0.0638  0.0596
   11SAPS   O12 1346   5.501   6.033   5.877  0.4263  0.2839 -0.4517
   11SAPS   O11 1347   5.328   6.058   6.060 -0.4215 -0.3190  0.1654
   11SAPS    C1 1348   5.196   6.011   6.055 -0.4580 -0.1795 -0.0046
   11SAPS    HA 1349   5.134   6.101   6.042 -0.7246 -0.6130 -1.9183
   11SAPS    HB 1350   5.180   5.939   5.972  1.6156  1.2909 -1.7754
   11SAPS    C2 1351   5.165   5.938   6.193 -0.4117 -0.1229  0.7768
   11SAPS    HS 1352   5.056   5.921   6.198 -0.5958  1.1984  1.4802
   11SAPS   O21 1353   5.220   6.009   6.306 -0.0752  0.1595  0.6557
   11SAPS   C21 1354   5.151   6.120   6.337 -0.0829  0.3472 -0.2754
   11SAPS   O22 1355   5.045   6.154   6.287  0.3662  0.0515  0.3375
   11SAPS   C22 1356   5.220   6.181   6.465 -0.4258 -0.3963  0.6948
   11SAPS   H2R 1357   5.214   6.100   6.541  2.2657 -1.2390  0.0878
   11SAPS   H2S 1358   5.325   6.199   6.433 -0.7493 -1.1713 -0.8903
   11SAPS    C3 1359   5.224   5.799   6.204 -0.0235  0.3637 -0.6821
   11SAPS    HX 1360   5.335   5.789   6.206 -0.1131 -0.9266  1.4281
   11SAPS    HY 1361   5.194   5.731   6.121 -0.3929  0.8451 -0.9413
   11SAPS   O31 1362   5.204   5.741   6.339  0.0648  0.6564 -0.3281
   11SAPS   C31 1363   5.104   5.645   6.343  0.1189 -1.0334 -0.6475
   11SAPS   O32 1364   5.039   5.615   6.243 -0.0531 -0.8618  0.0137
   11SAPS   C32 1365   5.088   5.572   6.479 -0.6887 -0.4709 -0.0683
   11SAPS   H2X 1366   5.188   5.564   6.526 -0.1875 -4.3127 -1.4248
   11SAPS   H2Y 1367   5.055   5.469   6.454 -1.2142  0.2137 -2.4144
   11SAPS   C23 1368   5.147   6.309   6.512  0.1147 -0.1384  0.1230
   11SAPS   H3R 1369   5.112   6.370   6.426  0.2891  0.1293  0.2404
   11SAPS   H3S 1370   5.219   6.375   6.564  0.3688 -1.4366  1.4935
   11SAPS   C24 1371   5.023   6.271   6.600 -0.3678  0.3803  0.3594
   11SAPS   H4R 1372   5.048   6.208   6.688 -1.8880 -1.7037 -0.6060
   11SAPS   H4S 1373   4.955   6.210   6.537  0.6136 -1.5734  1.0839
   11SAPS   C25 1374   4.955   6.402   6.643  0.2182 -0.2532 -0.5887
   11SAPS   H5R 1375   4.924   6.472   6.564  1.5822 -0.9993 -1.8342
   11SAPS   C26 1376   4.956   6.445   6.773  0.2016  0.1423 -0.2790
   11SAPS   H6R 1377   4.896   6.533   6.799 -0.9471 -0.8733  0.6216
   11SAPS   C27 1378   5.006   6.371   6.899  0.8782  0.2758 -0.3790
   11SAPS   H7R 1379   5.074   6.431   6.963  0.8976 -1.6781  1.5598
   11SAPS   H7S 1380   5.068   6.284   6.867  0.9460 -0.6811  2.1131
   11SAPS   C28 1381   4.913   6.310   6.998  0.6893 -0.8889 -0.2691
   11SAPS   H8R 1382   4.886   6.206   6.973  1.5482 -0.9684 -0.9169
   11SAPS   C29 1383   4.866   6.372   7.112  0.6510 -0.8561  0.6174
   11SAPS   H9R 1384   4.809   6.322   7.192 -0.4929  3.0277  2.4562
   11SAPS  C210 1385   4.892   6.516   7.148  0.3354 -0.1216 -0.1212
   11SAPS  H10R 1386   4.795   6.570   7.160  1.6407  2.4016 -0.2097
   11SAPS  H10S 1387   4.936   6.574   7.064  1.9488  0.3078  0.9815
   11SAPS  C211 1388   4.961   6.543   7.281  0.8102  0.5008  0.1784
   11SAPS  H11R 1389   5.066   6.577   7.277  1.3510 -1.1601 -1.2925
   11SAPS  C212 1390   4.903   6.549   7.400  0.5867 -0.6671 -0.5713
   11SAPS  H12R 1391   4.968   6.575   7.485  1.9044 -3.0747 -0.7364
   11SAPS  C213 1392   4.762   6.518   7.441 -0.9139 -0.1703 -0.3260
   11SAPS  H13R 1393   4.764   6.432   7.511 -0.1525 -0.5439 -0.7911
   11SAPS  H13S 1394   4.706   6.484   7.351 -1.8864 -2.2415  0.9888
   11SAPS  C214 1395   4.706   6.641   7.511 -0.1057  0.2060  1.0100
   11SAPS  H14R 1396   4.714   6.738   7.460 -0.4768 -0.4203 -0.2806
   11SAPS  C215 1397   4.643   6.629   7.629  0.1089  0.5060  0.1129
   11SAPS  H15R 1398   4.599   6.721   7.670 -1.9240  0.1292 -1.0838
   11SAPS  C216 1399   4.613   6.510   7.716 -0.0019  0.4557 -0.2941
   11SAPS  H16R 1400   4.592   6.416   7.660  2.8600 -0.1444 -0.5446
   11SAPS  H16S 1401   4.519   6.522   7.773 -1.4317 -1.3168 -2.1113
   11SAPS  C217 1402   4.721   6.481   7.822 -0.2345  0.6251  0.5704
   11SAPS  H17R 1403   4.818   6.456   7.775 -0.9826  2.3264 -2.0819
   11SAPS  H17S 1404   4.710   6.387   7.881  3.2115  0.3005  0.8718
   11SAPS  C218 1405   4.739   6.593   7.924  0.1472  0.6667  0.5169
   11SAPS  H18R 1406   4.789   6.674   7.866  1.5530 -0.9071 -0.5277
   11SAPS  H18S 1407   4.808   6.568   8.008 -1.0677  2.9700  2.3495
   11SAPS  C219 1408   4.610   6.628   7.992  0.4104 -0.0919  0.3666
   11SAPS  H19R 1409   4.552   6.539   8.026 -1.4990  0.6885 -0.6683
   11SAPS  H19S 1410   4.545   6.674   7.914  0.5923  0.2163  0.3939
   11SAPS  C220 1411   4.631   6.725   8.106 -0.1020 -0.1685  1.1294
   11SAPS  H20R 1412   4.631   6.677   8.207  1.1023  0.2178  1.3418
   11SAPS  H20S 1413   4.550   6.799   8.092  0.9467  0.7672 -0.1804
   11SAPS  H20T 1414   4.730   6.777   8.102 -0.4487  0.4151 -1.8339
   11SAPS   C33 1415   4.981   5.630   6.580  0.3171  0.2463  0.3304
   11SAPS   H3X 1416   4.966   5.545   6.650 -0.7742 -0.3718 -0.6317
   11SAPS   H3Y 1417   4.884   5.641   6.528  0.8269 -2.3861 -1.3703
   11SAPS   C34 1418   5.021   5.756   6.656  0.3614  0.6300  0.0429
   11SAPS   H4X 1419   5.008   5.837   6.582 -2.7881 -1.3676 -1.8265
   11SAPS   H4Y 1420   5.129   5.756   6.680  0.4547  2.0632 -0.3199
   11SAPS   C35 1421   4.927   5.778   6.779 -0.5217  0.6430 -0.5003
   11SAPS   H5X 1422   4.954   5.710   6.862 -0.3734  3.5103  1.9990
   11SAPS   H5Y 1423   4.821   5.755   6.753 -0.7723 -0.4916  1.3250
   11SAPS   C36 1424   4.933   5.921   6.837 -0.5922  0.0202  0.6692
   11SAPS   H6X 1425   4.898   6.000   6.768 -0.0431 -0.3683 -0.0634
   11SAPS   H6Y 1426   5.040   5.942   6.858 -0.5737  0.2698  0.3192
   11SAPS   C37 1427   4.856   5.923   6.971 -1.0623  0.1438 -0.2748
   11SAPS   H7X 1428   4.902   5.994   7.043 -3.5391  1.3178  0.2395
   11SAPS   H7Y 1429   4.866   5.821   7.012 -1.3302  0.7541  1.3908
   11SAPS   C38 1430   4.703   5.947   6.961 -0.4052  0.0811 -0.3527
   11SAPS   H8X 1431   4.659   5.882   6.883  0.0043  0.6348 -1.0483
   11SAPS   H8Y 1432   4.696   6.048   6.917 -1.2973 -0.4727 -1.5420
   11SAPS   C39 1433   4.623   5.933   7.088 -0.2979  0.0407  0.1602
   11SAPS   H9X 1434   4.626   5.825   7.115 -0.2327 -0.3355 -1.3042
   11SAPS   H9Y 1435   4.514   5.949   7.071  0.1110  2.4188 -0.5796
   11SAPS  C310 1436   4.662   6.010   7.213 -0.1690 -0.6483  0.6443
   11SAPS  H10X 1437   4.651   6.118   7.193 -0.6938 -1.0077 -1.0998
   11SAPS  H10Y 1438   4.764   5.985   7.250  0.2142  1.5756  1.2112
   11SAPS  C311 1439   4.577   5.986   7.332  0.3088  0.2295 -0.3118
   11SAPS  H11X 1440   4.553   5.879   7.347 -1.8010  0.5350 -1.1652
   11SAPS  H11Y 1441   4.479   6.038   7.323  0.4294  0.4954 -0.1197
   11SAPS  C312 1442   4.650   6.032   7.463  0.3675 -0.9568 -0.3087
   11SAPS  H12X 1443   4.691   6.135   7.462  0.7899 -1.0696  1.3750
   11SAPS  H12Y 1444   4.738   5.965   7.468 -0.5125 -2.0899  0.5186
   11SAPS  C313 1445   4.564   6.034   7.592  0.5300  0.1930  0.7180
   11SAPS  H13X 1446   4.635   6.059   7.674  1.1406  1.7902 -0.2572
   11SAPS  H13Y 1447   4.527   5.930   7.609 -0.7116  0.2328 -1.3177
   11SAPS  C314 1448   4.447   6.128   7.597  1.0349 -0.4220  0.6137
   11SAPS  H14X 1449   4.383   6.099   7.510  0.2855  0.1398  0.9682
   11SAPS  H14Y 1450   4.481   6.234   7.588 -1.3333  0.3928  0.2842
   11SAPS  C315 1451   4.378   6.117   7.729 -0.1169 -0.1006  0.7363
   11SAPS  H15X 1452   4.454   6.155   7.800  0.6164  0.5300 -0.3519
   11SAPS  H15Y 1453   4.359   6.011   7.755  0.8544 -0.0004  1.9616
   11SAPS  C316 1454   4.253   6.207   7.759  0.1127  0.0742 -0.6868
   11SAPS  H16X 1455   4.197   6.153   7.839 -0.7487 -0.1902 -1.4514
   11SAPS  H16Y 1456   4.192   6.216   7.667  1.4989  1.1569 -1.5306
   11SAPS  C317 1457   4.294   6.352   7.807 -0.4353  0.4602  0.1476
   11SAPS  H17X 1458   4.201   6.412   7.798 -0.5988 -0.0171 -1.7985
   11SAPS  H17Y 1459   4.372   6.383   7.735  2.3624 -1.5995  2.1025
   11SAPS  C318 1460   4.345   6.354   7.950  0.7280  0.2225  0.4300
   11SAPS  H18X 1461   4.439   6.295   7.959 -0.2113 -1.4978 -0.5626
   11SAPS  H18Y 1462   4.265   6.307   8.011  1.9425 -2.5123  0.0877
   11SAPS  H18Z 1463   4.365   6.461   7.972 -1.9665  1.5210 -2.7381
   12SAPS     N 1464   3.293   1.844   6.072 -0.0698 -0.4523 -0.1635
   12SAPS   HN1 1465   3.335   1.933   6.105  2.2456 -0.8332 -1.8909
   12SAPS   HN2 1466   3.255   1.792   6.153  2.6281 -1.1584  0.7354
   12SAPS   HN3 1467   3.376   1.794   6.035 -1.2972 -1.1340 -2.1876
   12SAPS   C12 1468   3.185   1.872   5.972  0.3354  0.7977 -0.8121
   12SAPS  H12A 1469   3.130   1.956   6.012  1.2529 -0.1466  2.8433
   12SAPS   C13 1470   3.254   1.929   5.849  0.4761  0.2911  0.5811
   12SAPS  O13A 1471   3.378   1.949   5.844 -0.2173  1.1118 -0.4806
   12SAPS  O13B 1472   3.181   1.969   5.758  0.0110 -0.1724  0.1835
   12SAPS   C11 1473   3.100   1.749   5.934  0.0551  0.1096  1.0157
   12SAPS  H11A 1474   3.158   1.680   5.869 -2.2325  1.4485 -2.7569
   12SAPS  H11B 1475   3.033   1.790   5.855  3.3390  2.1843 -0.9290
   12SAPS     P 1476   2.884   1.706   6.068  0.1562  0.6278  0.1638
   12SAPS   O13 1477   2.855   1.832   6.145  0.1317  0.9778 -0.1479
   12SAPS   O14 1478   2.816   1.696   5.932  0.0340  0.0191  0.0363
   12SAPS   O12 1479   3.042   1.689   6.049  0.0522  0.3769 -0.5289
   12SAPS   O11 1480   2.831   1.586   6.148  0.5223  0.0482 -0.1102
   12SAPS    C1 1481   2.884   1.547   6.276  0.6792 -0.0691  0.4924
   12SAPS    HA 1482   2.991   1.519   6.265  0.7143  0.7512 -1.9516
   12SAPS    HB 1483   2.886   1.634   6.345  2.8601 -1.5956  2.4959
   12SAPS    C2 1484   2.816   1.422   6.341 -0.5917  0.0505  0.3321
   12SAPS    HS 1485   2.849   1.340   6.274 -2.8402  0.5413 -1.5174
   12SAPS   O21 1486   2.666   1.439   6.352 -0.5452  0.7907  0.0286
   12SAPS   C21 1487   2.610   1.328   6.359 -0.0220  0.0216  0.3238
   12SAPS   O22 1488   2.665   1.220   6.335  0.6285 -0.0399  0.1736
   12SAPS   C22 1489   2.466   1.355   6.396  0.1167  0.0219  0.1818
   12SAPS   H2R 1490   2.438   1.443   6.334  1.1280  1.6490  1.9424
   12SAPS   H2S 1491   2.401   1.278   6.348 -2.1236  2.0382 -0.1966
   12SAPS    C3 1492   2.858   1.391   6.489 -0.2095 -0.2267 -0.2233
   12SAPS    HX 1493   2.967   1.372   6.498 -0.0913 -0.4592 -1.8312
   12SAPS    HY 1494   2.803   1.303   6.529  1.8330 -2.4144 -1.9095
   12SAPS   O31 1495   2.818   1.511   6.556  0.1477 -0.4132 -0.1400
   12SAPS   C31 1496   2.861   1.521   6.680 -0.2537 -0.0796 -0.1312
   12SAPS   O32 1497   2.928   1.442   6.742 -0.2822 -0.0482  0.2667
   12SAPS   C32 1498   2.815   1.658   6.738  0.8995 -0.7960  0.4514
   12SAPS   H2X 1499   2.704   1.654   6.736  0.8616  0.1855 -0.6957
   12SAPS   H2Y 1500   2.836   1.745   6.671 -2.4050 -0.8976 -0.9185
   12SAPS   C23 1501   2.440   1.385   6.543  0.4800  0.3615 -0.5459
   12SAPS   H3R 1502   2.330   1.404   6.550  0.7383  2.1410 -0.8250
   12SAPS   H3S 1503   2.492   1.478   6.572 -0.4312  0.5702  0.5179
   12SAPS   C24 1504   2.466   1.262   6.640 -0.2506 -0.1967 -0.2887
   12SAPS   H4R 1505   2.574   1.250   6.660 -0.0397  2.1657  0.3117
   12SAPS   H4S 1506   2.436   1.173   6.581 -0.9726  0.7718 -1.4325
   12SAPS   C25 1507   2.393   1.274   6.766 -0.5492 -0.4220 -0.0462
   12SAPS   H5R 1508   2.284   1.276   6.754 -0.5466 -0.5211 -0.0867
   12SAPS   C26 1509   2.434   1.290   6.892 -0.0276 -0.1432 -0.3192
   12SAPS   H6R 1510   2.360   1.287   6.974  1.4225  1.2455  1.1212
   12SAPS   C27 1511   2.580   1.290   6.942  0.8686  0.2565  0.6983
   12SAPS   H7R 1512   2.655   1.304   6.861  1.5567  1.0152  1.4516
   12SAPS   H7S 1513   2.603   1.190   6.986  0.0845 -0.7210 -1.0108
   12SAPS   C28 1514   2.610   1.402   7.035  0.3700 -0.8699  1.2497
   12SAPS   H8R 1515   2.542   1.485   7.008  2.2561  1.0147  1.9646
   12SAPS   C29 1516   2.698   1.411   7.131  0.0534  0.3377  0.5869
   12SAPS   H9R 1517   2.708   1.512   7.174  0.0228  0.6293 -0.0814
   12SAPS  C210 1518   2.800   1.305   7.164 -0.0498 -0.2059  0.6499
   12SAPS  H10R 1519   2.759   1.206   7.136 -2.3631  0.9238 -0.2382
   12SAPS  H10S 1520   2.805   1.301   7.275  1.1037  1.3173  0.6870
   12SAPS  C211 1521   2.936   1.314   7.084 -0.1359  0.2475  0.1166
   12SAPS  H11R 1522   2.925   1.312   6.974 -1.7857  0.7710  0.2387
   12SAPS  C212 1523   3.053   1.351   7.128  0.1124  0.6998 -0.4850
   12SAPS  H12R 1524   3.140   1.348   7.061 -0.5288 -0.9169 -1.2899
   12SAPS  C213 1525   3.087   1.396   7.270  0.3880  0.4244 -0.6917
   12SAPS  H13R 1526   2.997   1.425   7.328  1.3220  1.0657  0.4982
   12SAPS  H13S 1527   3.137   1.495   7.263  0.7819  0.4581  1.7007
   12SAPS  C214 1528   3.164   1.293   7.347  0.0990  0.1383 -0.1779
   12SAPS  H14R 1529   3.242   1.248   7.285  0.5699  1.3890 -0.5223
   12SAPS  C215 1530   3.149   1.267   7.476 -0.6159  0.0085  0.3483
   12SAPS  H15R 1531   3.221   1.197   7.521 -0.2651  0.8665  1.1509
   12SAPS  C216 1532   3.048   1.337   7.565  0.5676  0.6777  0.2813
   12SAPS  H16R 1533   2.949   1.341   7.514 -0.8386 -0.6401  2.7238
   12SAPS  H16S 1534   3.087   1.439   7.585  0.5213  0.7900 -0.1813
   12SAPS  C217 1535   3.018   1.259   7.695 -0.1346  0.5225 -1.4485
   12SAPS  H17R 1536   2.973   1.160   7.671 -3.0852  1.2597  0.5566
   12SAPS  H17S 1537   2.937   1.315   7.747  0.9944  0.3348  0.6106
   12SAPS  C218 1538   3.137   1.232   7.783  0.3918 -0.1577 -0.6242
   12SAPS  H18R 1539   3.187   1.330   7.803  2.6536 -0.6852 -3.1916
   12SAPS  H18S 1540   3.213   1.167   7.735 -0.4586 -0.6133 -1.3773
   12SAPS  C219 1541   3.093   1.158   7.906  1.0514 -0.5957  0.4756
   12SAPS  H19R 1542   3.055   1.056   7.881 -0.6118 -0.0710  0.7081
   12SAPS  H19S 1543   3.014   1.221   7.952  0.4208 -1.9117  1.2533
   12SAPS  C220 1544   3.205   1.148   8.007  0.2589  0.2119 -0.4661
   12SAPS  H20R 1545   3.178   1.077   8.088  0.6595  0.1943 -0.3470
   12SAPS  H20S 1546   3.243   1.247   8.041  3.6145 -1.4008  0.9517
   12SAPS  H20T 1547   3.297   1.105   7.962  1.6388  1.4418  1.0547
   12SAPS   C33 1548   2.875   1.687   6.875 -0.1939 -0.6924 -0.0874
   12SAPS   H3X 1549   2.984   1.705   6.877  0.0833 -1.8652  3.9578
   12SAPS   H3Y 1550   2.853   1.604   6.946 -1.0026 -1.7697 -1.5230
   12SAPS   C34 1551   2.812   1.806   6.949 -0.3018  0.2531  0.3822
   12SAPS   H4X 1552   2.734   1.847   6.880  0.6231  1.2623 -0.0981
   12SAPS   H4Y 1553   2.887   1.887   6.965 -1.1263  1.4158 -1.2869
   12SAPS   C35 1554   2.754   1.776   7.089  0.3272 -0.1199 -0.1276
   12SAPS   H5X 1555   2.681   1.692   7.082  0.8503 -0.4446 -3.2955
   12SAPS   H5Y 1556   2.696   1.865   7.120 -1.4373 -1.8053  1.6799
   12SAPS   C36 1557   2.865   1.753   7.194  0.4117 -0.3046 -0.2190
   12SAPS   H6X 1558   2.941   1.833   7.178  0.1487 -0.2836 -1.4930
   12SAPS   H6Y 1559   2.917   1.659   7.166  1.4536  0.8006 -2.2677
   12SAPS   C37 1560   2.801   1.748   7.336  0.4410 -0.4047 -0.0665
   12SAPS   H7X 1561   2.743   1.654   7.350  4.9822 -3.3417  1.4579
   12SAPS   H7Y 1562   2.739   1.840   7.344 -0.9632 -1.4530  2.2275
   12SAPS   C38 1563   2.912   1.747   7.445  0.3741  0.0736 -0.0497
   12SAPS   H8X 1564   2.987   1.826   7.424 -0.4856  0.7961 -0.4809
   12SAPS   H8Y 1565   2.973   1.655   7.450  1.8706  1.0411 -0.0337
   12SAPS   C39 1566   2.860   1.766   7.592 -0.8538  0.3314  1.1376
   12SAPS   H9X 1567   2.810   1.864   7.606  0.9141  1.4809 -0.1406
   12SAPS   H9Y 1568   2.944   1.781   7.664  1.1737  0.4033 -1.1083
   12SAPS  C310 1569   2.771   1.659   7.645  0.1956 -0.0245 -0.2610
   12SAPS  H10X 1570   2.817   1.557   7.644 -0.3494 -0.2786  0.1198
   12SAPS  H10Y 1571   2.678   1.647   7.585  0.0401  0.9261 -0.2175
   12SAPS  C311 1572   2.710   1.695   7.782 -0.0816 -0.2546 -0.7542
   12SAPS  H11X 1573   2.654   1.789   7.766  1.1102  0.0861 -3.5586
   12SAPS  H11Y 1574   2.792   1.695   7.858 -0.1479  0.0924 -0.6809
   12SAPS  C312 1575   2.604   1.589   7.820  0.1767 -0.4936  0.3985
   12SAPS  H12X 1576   2.659   1.503   7.863  0.3482  0.7909  2.8802
   12SAPS  H12Y 1577   2.543   1.563   7.731 -0.7224 -1.5969  1.3224
   12SAPS  C313 1578   2.500   1.643   7.924  0.2253  0.7517 -0.1436
   12SAPS  H13X 1579   2.460   1.743   7.896  0.7087  1.0080  0.0725
   12SAPS  H13Y 1580   2.553   1.658   8.021  0.6896 -0.3104 -0.2203
   12SAPS  C314 1581   2.376   1.546   7.938 -0.2765  0.3225  0.7791
   12SAPS  H14X 1582   2.419   1.444   7.940  0.1020  0.2118 -3.3995
   12SAPS  H14Y 1583   2.323   1.547   7.840  1.2781  1.4895 -0.0939
   12SAPS  C315 1584   2.297   1.572   8.069  0.5996 -0.3906  0.0531
   12SAPS  H15X 1585   2.243   1.668   8.062 -1.5679 -1.6369 -1.8230
   12SAPS  H15Y 1586   2.350   1.563   8.167  0.0627 -0.1988  0.3632
   12SAPS  C316 1587   2.185   1.473   8.104 -0.1337  0.3928 -0.0761
   12SAPS  H16X 1588   2.229   1.371   8.107  1.5023  0.8761 -3.0793
   12SAPS  H16Y 1589   2.120   1.480   8.014 -2.3792  2.1657  1.5673
   12SAPS  C317 1590   2.099   1.505   8.231  0.7607 -0.3318  0.3218
   12SAPS  H17X 1591   2.171   1.509   8.315  1.7243  1.2014 -0.5390
   12SAPS  H17Y 1592   2.023   1.424   8.240 -0.7571  0.9084 -0.8979
   12SAPS  C318 1593   2.022   1.644   8.224  0.1266 -0.4194 -0.2054
   12SAPS  H18X 1594   1.989   1.672   8.326 -3.1310 -2.1789 -0.6254
   12SAPS  H18Y 1595   1.930   1.633   8.163  1.3771 -0.1428 -2.2393
   12SAPS  H18Z 1596   2.096   1.720   8.193  0.2834 -1.2394 -1.9560
   13SAPS     N 1597   4.500   4.019   5.836  0.5138  0.4688  1.0217
   13SAPS   HN1 1598   4.423   3.976   5.891 -0.7189 -1.9420 -2.2484
   13SAPS   HN2 1599   4.512   3.984   5.739 -1.9496  1.5115  0.2742
   13SAPS   HN3 1600   4.583   3.973   5.878  0.3121 -1.3420 -0.4402
   13SAPS   C12 1601   4.518   4.169   5.849 -0.4608  0.0019  0.0621
   13SAPS  H12A 1602   4.553   4.192   5.949  1.5188  2.6055 -1.0847
   13SAPS   C13 1603   4.629   4.234   5.762 -0.7394  0.7589 -0.3098
   13SAPS  O13A 1604   4.716   4.165   5.699 -0.0871 -0.3027  0.4545
   13SAPS  O13B 1605   4.632   4.357   5.765  0.3136 -0.3173 -0.0489
   13SAPS   C11 1606   4.384   4.249   5.828  0.4200  0.1451  0.1061
   13SAPS  H11A 1607   4.367   4.245   5.719 -0.2089  0.2713  0.1982
   13SAPS  H11B 1608   4.404   4.354   5.857 -0.8408  0.6807 -0.9002
   13SAPS     P 1609   4.177   4.259   5.990 -0.0706 -0.0415 -0.5297
   13SAPS   O13 1610   4.146   4.391   5.935  0.2773 -0.3250  0.3610
   13SAPS   O14 1611   4.058   4.176   6.009  0.4251 -0.2636 -0.6258
   13SAPS   O12 1612   4.282   4.180   5.897 -0.1676 -0.7819  0.5421
   13SAPS   O11 1613   4.247   4.274   6.129 -0.2381 -0.1009  0.3519
   13SAPS    C1 1614   4.336   4.183   6.185  0.4135 -0.3568 -0.6705
   13SAPS    HA 1615   4.345   4.087   6.130  0.0721 -1.2586  0.8031
   13SAPS    HB 1616   4.432   4.238   6.194 -0.9115  1.7926  1.6584
   13SAPS    C2 1617   4.279   4.145   6.325 -0.0427  0.2737 -0.2355
   13SAPS    HS 1618   4.183   4.091   6.307 -0.6978  1.2860  0.1141
   13SAPS   O21 1619   4.274   4.259   6.410  0.4249  0.1642 -0.1644
   13SAPS   C21 1620   4.173   4.265   6.495  0.4170  0.0583 -0.2503
   13SAPS   O22 1621   4.090   4.175   6.501  0.4920 -0.3714  0.6025
   13SAPS   C22 1622   4.184   4.397   6.573  0.2600 -0.4378  0.2334
   13SAPS   H2R 1623   4.259   4.376   6.652 -0.2444 -1.9891  0.3332
   13SAPS   H2S 1624   4.220   4.473   6.501  0.6868 -0.9224 -0.0720
   13SAPS    C3 1625   4.371   4.035   6.388  0.1646 -0.0169 -0.1972
   13SAPS    HX 1626   4.473   4.080   6.393 -0.0947  0.6895 -0.9615
   13SAPS    HY 1627   4.377   3.943   6.327  1.7017  0.1771 -0.3769
   13SAPS   O31 1628   4.335   4.002   6.522 -0.4762 -0.4245  0.2584
   13SAPS   C31 1629   4.228   3.927   6.540 -0.1535  0.2202  0.0783
   13SAPS   O32 1630   4.172   3.873   6.443  0.4368  0.7057 -0.2989
   13SAPS   C32 1631   4.205   3.907   6.690 -0.3496 -0.1534 -0.1536
   13SAPS   H2X 1632   4.239   3.807   6.724 -2.0426 -0.8055 -0.2565
   13SAPS   H2Y 1633   4.096   3.921   6.710 -0.4299 -1.5992  0.5308
   13SAPS   C23 1634   4.050   4.441   6.634  0.6606  0.4496  0.2224
   13SAPS   H3R 1635   4.011   4.358   6.696 -0.5382  0.1681 -0.8620
   13SAPS   H3S 1636   3.979   4.470   6.554 -0.7296 -0.1114  1.2244
   13SAPS   C24 1637   4.073   4.563   6.731 -0.3433 -0.3727 -0.1420
   13SAPS   H4R 1638   4.077   4.655   6.668 -0.6027 -1.5538 -1.9809
   13SAPS   H4S 1639   4.178   4.554   6.766 -0.3542 -0.6291 -0.1711
   13SAPS   C25 1640   3.969   4.581   6.845  0.5008 -0.3795 -0.1286
   13SAPS   H5R 1641   3.871   4.619   6.812  0.6568 -0.9719 -1.2954
   13SAPS   C26 1642   4.001   4.566   6.978  0.5058 -0.1814  0.3783
   13SAPS   H6R 1643   3.919   4.579   7.050  0.6878 -1.1547  0.7767
   13SAPS   C27 1644   4.130   4.515   7.039 -0.0897  0.4519  0.2844
   13SAPS   H7R 1645   4.179   4.602   7.088  1.1257 -0.1070  0.0975
   13SAPS   H7S 1646   4.198   4.480   6.958  0.7379  1.9676  0.2874
   13SAPS   C28 1647   4.117   4.416   7.142 -0.8029 -0.1763 -0.6939
   13SAPS   H8R 1648   4.135   4.317   7.098 -0.0668 -0.6704  0.6591
   13SAPS   C29 1649   4.086   4.440   7.274 -0.4353  0.1425  0.2930
   13SAPS   H9R 1650   4.088   4.355   7.344  0.0720 -1.1281 -1.1778
   13SAPS  C210 1651   4.066   4.570   7.335  0.4703 -0.0158 -0.0991
   13SAPS  H10R 1652   4.035   4.653   7.267 -0.7032  0.9142  1.5145
   13SAPS  H10S 1653   4.161   4.612   7.375 -0.2096  1.9932 -0.4574
   13SAPS  C211 1654   3.964   4.578   7.445 -0.2262 -0.4732 -0.6738
   13SAPS  H11R 1655   3.870   4.615   7.402  0.1850 -0.5966 -1.7141
   13SAPS  C212 1656   3.969   4.560   7.581 -0.0887 -0.5853  0.6062
   13SAPS  H12R 1657   3.873   4.592   7.625 -0.2471  2.0934 -1.4027
   13SAPS  C213 1658   4.090   4.518   7.671  0.8381  0.2870 -0.3823
   13SAPS  H13R 1659   4.168   4.487   7.598 -0.6150  1.2158 -2.4305
   13SAPS  H13S 1660   4.062   4.427   7.728  2.6021  0.8768  1.5517
   13SAPS  C214 1661   4.134   4.628   7.772  0.8063 -0.7899  0.0823
   13SAPS  H14R 1662   4.068   4.662   7.853 -0.5458 -1.1627 -0.8130
   13SAPS  C215 1663   4.262   4.677   7.767  0.8808  0.0659 -0.1305
   13SAPS  H15R 1664   4.298   4.750   7.842  0.1504  1.0259 -0.6838
   13SAPS  C216 1665   4.367   4.635   7.675 -0.3089  0.1069  0.1544
   13SAPS  H16R 1666   4.342   4.641   7.567  1.3435 -0.5036 -0.2833
   13SAPS  H16S 1667   4.407   4.534   7.696 -1.3478 -0.1232  1.1141
   13SAPS  C217 1668   4.490   4.733   7.680  0.3290  0.2731  0.0551
   13SAPS  H17R 1669   4.461   4.838   7.655  1.7300  0.1749 -2.2440
   13SAPS  H17S 1670   4.552   4.693   7.597 -0.3116  0.7335 -0.6547
   13SAPS  C218 1671   4.567   4.732   7.814  0.2623  0.0136 -0.0017
   13SAPS  H18R 1672   4.597   4.626   7.827  2.4815  0.6496  0.4074
   13SAPS  H18S 1673   4.519   4.751   7.912  0.2045  0.2356 -0.0727
   13SAPS  C219 1674   4.694   4.812   7.819 -0.6759  0.3817  0.4315
   13SAPS  H19R 1675   4.667   4.919   7.828  1.4407  1.1583 -1.4172
   13SAPS  H19S 1676   4.744   4.790   7.722 -0.3715 -0.2450  0.7216
   13SAPS  C220 1677   4.795   4.770   7.932 -0.2905  0.1335 -0.3228
   13SAPS  H20R 1678   4.814   4.661   7.923  3.0129  0.7220 -1.6474
   13SAPS  H20S 1679   4.759   4.804   8.032  1.7764 -0.3903  0.6499
   13SAPS  H20T 1680   4.895   4.816   7.923 -0.6902  0.8483 -1.2320
   13SAPS   C33 1681   4.276   4.009   6.785 -0.0034  0.7534 -0.6291
   13SAPS   H3X 1682   4.267   4.114   6.752  0.3685  1.5064  1.4920
   13SAPS   H3Y 1683   4.383   3.983   6.770 -0.2539 -1.0619  0.3447
   13SAPS   C34 1684   4.237   3.986   6.929  0.8557 -0.3275 -0.4936
   13SAPS   H4X 1685   4.256   3.880   6.957 -0.1138 -0.4046 -0.0819
   13SAPS   H4Y 1686   4.128   4.007   6.938  0.5433 -2.3329  1.7178
   13SAPS   C35 1687   4.308   4.065   7.034 -0.6237 -0.1229 -0.1081
   13SAPS   H5X 1688   4.284   4.173   7.021 -0.6168  0.4922  3.7608
   13SAPS   H5Y 1689   4.416   4.041   7.025 -0.7761 -1.2106  0.7141
   13SAPS   C36 1690   4.274   4.028   7.181  0.1157 -0.1086  0.6091
   13SAPS   H6X 1691   4.311   3.926   7.205 -0.4351  0.2335  3.2670
   13SAPS   H6Y 1692   4.164   4.013   7.189  0.5134 -4.0362  0.9471
   13SAPS   C37 1693   4.333   4.121   7.292  0.1532  0.3477  0.3848
   13SAPS   H7X 1694   4.316   4.229   7.272 -0.4183 -0.2047 -2.4837
   13SAPS   H7Y 1695   4.441   4.097   7.296 -0.0514 -1.4817 -2.3976
   13SAPS   C38 1696   4.272   4.099   7.438 -0.1474  0.4825  0.0044
   13SAPS   H8X 1697   4.303   3.996   7.467  3.4297  1.7917  1.3900
   13SAPS   H8Y 1698   4.162   4.101   7.421 -0.0086  1.0036 -0.8763
   13SAPS   C39 1699   4.318   4.191   7.548  0.0688  0.1396 -0.2368
   13SAPS   H9X 1700   4.277   4.293   7.532  0.8215  0.2635 -1.5757
   13SAPS   H9Y 1701   4.428   4.186   7.555  0.1966 -1.3189 -2.3228
   13SAPS  C310 1702   4.267   4.132   7.680 -0.3457 -0.9195 -0.4657
   13SAPS  H10X 1703   4.308   4.029   7.681 -0.5502 -1.0270 -1.4980
   13SAPS  H10Y 1704   4.158   4.112   7.673 -0.1623 -1.7110 -1.2765
   13SAPS  C311 1705   4.296   4.212   7.803 -1.0501  0.2701  0.7255
   13SAPS  H11X 1706   4.254   4.314   7.794 -0.8011  0.2810 -0.5336
   13SAPS  H11Y 1707   4.401   4.235   7.831 -0.6571 -1.2608  0.5903
   13SAPS  C312 1708   4.247   4.146   7.932 -0.5201  0.4106  1.3201
   13SAPS  H12X 1709   4.136   4.139   7.936 -0.4658 -1.5228  0.3078
   13SAPS  H12Y 1710   4.273   4.220   8.011  0.3563  0.1195  1.3127
   13SAPS  C313 1711   4.297   4.005   7.970  0.1451  0.6361 -0.3644
   13SAPS  H13X 1712   4.408   4.004   7.977  0.1330 -0.9618 -0.0219
   13SAPS  H13Y 1713   4.277   3.931   7.890  1.3733  0.3317 -0.4122
   13SAPS  C314 1714   4.250   3.955   8.105  0.2376  0.2496 -0.2947
   13SAPS  H14X 1715   4.270   3.846   8.112 -1.8630 -0.1162  0.9126
   13SAPS  H14Y 1716   4.139   3.962   8.100  0.0358 -1.8300  0.4137
   13SAPS  C315 1717   4.320   4.020   8.233  0.0969  0.2117 -0.2674
   13SAPS  H15X 1718   4.283   4.125   8.228 -1.1301 -0.1429  0.7216
   13SAPS  H15Y 1719   4.428   4.001   8.220  0.2976  0.3189  1.0766
   13SAPS  C316 1720   4.271   3.951   8.357  0.1653  0.4490  0.3850
   13SAPS  H16X 1721   4.322   3.983   8.451  2.1259 -2.6958  0.5339
   13SAPS  H16Y 1722   4.283   3.841   8.353 -1.7496  0.2555 -0.7909
   13SAPS  C317 1723   4.113   3.962   8.383 -0.0199  0.2411 -0.4164
   13SAPS  H17X 1724   4.059   3.937   8.289  1.4549 -3.3895 -0.4925
   13SAPS  H17Y 1725   4.079   4.065   8.406 -1.4772 -0.3718  0.2556
   13SAPS  C318 1726   4.071   3.875   8.499 -0.5096  0.4842  0.3176
   13SAPS  H18X 1727   4.078   3.927   8.597 -0.5907  2.3545 -0.6060
   13SAPS  H18Y 1728   4.145   3.793   8.502 -0.3008  0.6042 -0.7944
   13SAPS  H18Z 1729   3.963   3.849   8.490 -1.7132  4.6897  0.4034
   14SAPS     N 1730   3.544   6.286   5.701 -0.1018  0.4814  0.2672
   14SAPS   HN1 1731   3.500   6.232   5.624 -1.7620 -1.2786  2.3111
   14SAPS   HN2 1732   3.488   6.263   5.786  0.4235  0.9292  0.7467
   14SAPS   HN3 1733   3.524   6.387   5.688  0.9553  0.8940  1.5427
   14SAPS   C12 1734   3.689   6.243   5.711 -0.5236 -0.1822  0.2132
   14SAPS  H12A 1735   3.729   6.261   5.613  0.0230  2.1344  0.7919
   14SAPS   C13 1736   3.774   6.336   5.802  0.4148  0.2190 -0.0383
   14SAPS  O13A 1737   3.719   6.425   5.873  0.0771 -0.0958  0.3690
   14SAPS  O13B 1738   3.890   6.306   5.818 -0.3222 -0.2725  0.4944
   14SAPS   C11 1739   3.691   6.092   5.765  1.2233 -0.5902 -0.2135
   14SAPS  H11A 1740   3.683   6.091   5.875  1.0528  0.0381 -0.2200
   14SAPS  H11B 1741   3.794   6.053   5.746  1.8051  0.4765  0.6847
   14SAPS     P 1742   3.597   5.853   5.744 -0.1452  0.1897 -0.0063
   14SAPS   O13 1743   3.463   5.800   5.708  0.2700 -0.7566 -0.4613
   14SAPS   O14 1744   3.719   5.801   5.677  0.5889  0.3519  0.2645
   14SAPS   O12 1745   3.595   6.008   5.708  0.2134  0.0261  0.5239
   14SAPS   O11 1746   3.622   5.844   5.896  0.6529  0.1151  0.1495
   14SAPS    C1 1747   3.516   5.786   5.977  0.5453 -0.1388  0.2694
   14SAPS    HA 1748   3.430   5.852   5.953  1.5769  0.2201 -2.9652
   14SAPS    HB 1749   3.493   5.682   5.945  0.5056 -0.3442  0.9625
   14SAPS    C2 1750   3.555   5.795   6.122 -0.0716  0.2998  0.4512
   14SAPS    HS 1751   3.469   5.764   6.186  1.9696 -0.9961  2.7307
   14SAPS   O21 1752   3.611   5.925   6.151 -0.1474  0.4047 -0.1721
   14SAPS   C21 1753   3.527   6.023   6.155 -0.1973  0.0826  0.0801
   14SAPS   O22 1754   3.404   6.020   6.142 -0.1927 -0.2614 -0.5485
   14SAPS   C22 1755   3.608   6.148   6.183  0.2367  0.0867  0.5112
   14SAPS   H2R 1756   3.679   6.155   6.098 -1.6340  1.8622 -1.0325
   14SAPS   H2S 1757   3.537   6.234   6.180 -1.3763 -1.1949 -2.4336
   14SAPS    C3 1758   3.654   5.677   6.154 -0.6088  0.6241  0.1362
   14SAPS    HX 1759   3.738   5.685   6.083 -0.6757  0.2376  0.0140
   14SAPS    HY 1760   3.594   5.588   6.127 -0.3456  0.6143 -0.4094
   14SAPS   O31 1761   3.684   5.663   6.288  0.0381 -0.3350 -0.1315
   14SAPS   C31 1762   3.781   5.738   6.331 -0.8671 -0.4501 -0.4515
   14SAPS   O32 1763   3.847   5.808   6.259 -0.2083  0.0463  0.0034
   14SAPS   C32 1764   3.812   5.692   6.471  0.6596  0.1321 -0.2340
   14SAPS   H2X 1765   3.905   5.631   6.469  0.3725 -0.3224  0.2476
   14SAPS   H2Y 1766   3.732   5.622   6.502  0.7338 -0.9731 -2.3652
   14SAPS   C23 1767   3.669   6.135   6.316 -0.6159  0.9862 -0.1100
   14SAPS   H3R 1768   3.755   6.064   6.316  0.3831  2.1691 -0.3566
   14SAPS   H3S 1769   3.603   6.080   6.386  2.3058 -0.9113  1.3935
   14SAPS   C24 1770   3.725   6.270   6.378 -0.1739 -0.6477  0.0806
   14SAPS   H4R 1771   3.796   6.319   6.307 -0.7368 -0.3458 -0.2817
   14SAPS   H4S 1772   3.787   6.238   6.464  0.5483 -0.9392 -0.5362
   14SAPS   C25 1773   3.621   6.367   6.434  0.2236  0.7435 -0.5700
   14SAPS   H5R 1774   3.560   6.421   6.360  0.5912  0.7227 -0.8920
   14SAPS   C26 1775   3.610   6.413   6.561 -0.1441  0.2128  0.4747
   14SAPS   H6R 1776   3.533   6.489   6.580  0.6381  1.1840 -0.1382
   14SAPS   C27 1777   3.698   6.369   6.682  0.1741 -0.6219 -0.6013
   14SAPS   H7R 1778   3.795   6.326   6.651  0.1245 -2.1988  1.2175
   14SAPS   H7S 1779   3.651   6.279   6.727  1.3960 -0.6578  0.6545
   14SAPS   C28 1780   3.719   6.480   6.792 -0.7573  0.2026  0.3483
   14SAPS   H8R 1781   3.697   6.585   6.768 -2.8401 -0.4604 -0.9097
   14SAPS   C29 1782   3.776   6.463   6.913 -0.8324  0.2738 -0.1351
   14SAPS   H9R 1783   3.764   6.545   6.985 -2.6125 -0.8553  0.9145
   14SAPS  C210 1784   3.824   6.334   6.977  0.6630  0.1009 -0.0378
   14SAPS  H10R 1785   3.859   6.271   6.893 -3.2172 -1.7494 -0.4756
   14SAPS  H10S 1786   3.735   6.286   7.023  0.8745  0.5397  0.8607
   14SAPS  C211 1787   3.929   6.359   7.077 -0.4878  0.0662  0.5465
   14SAPS  H11R 1788   4.031   6.346   7.038 -0.8732  1.4219 -1.0230
   14SAPS  C212 1789   3.908   6.362   7.208 -0.1647 -0.4858 -0.1592
   14SAPS  H12R 1790   3.994   6.362   7.277 -0.3111 -0.0551  0.0246
   14SAPS  C213 1791   3.775   6.364   7.282 -0.2650 -0.2428 -0.2670
   14SAPS  H13R 1792   3.774   6.293   7.367 -0.5313 -1.1506 -1.0084
   14SAPS  H13S 1793   3.684   6.344   7.221 -1.2730 -0.6540  1.3131
   14SAPS  C214 1794   3.757   6.505   7.339  0.7281 -0.3008 -0.2728
   14SAPS  H14R 1795   3.729   6.571   7.255  3.9544  1.0173 -0.4580
   14SAPS  C215 1796   3.765   6.549   7.467  1.1887 -0.2561  0.5935
   14SAPS  H15R 1797   3.729   6.652   7.478  2.5251  0.4900 -1.4058
   14SAPS  C216 1798   3.803   6.473   7.587  0.2505  0.1454 -0.0119
   14SAPS  H16R 1799   3.858   6.537   7.659  0.9016  1.3479 -1.5419
   14SAPS  H16S 1800   3.879   6.394   7.568  0.8855  0.5967  0.5814
   14SAPS  C217 1801   3.676   6.411   7.642 -0.3882  0.3234  0.2309
   14SAPS  H17R 1802   3.623   6.357   7.562  0.9767 -1.3243  0.3792
   14SAPS  H17S 1803   3.608   6.494   7.672  1.5351  2.3946 -0.8290
   14SAPS  C218 1804   3.691   6.310   7.755 -0.1812  0.1794  0.0617
   14SAPS  H18R 1805   3.719   6.208   7.722  1.9041 -0.4968  3.4320
   14SAPS  H18S 1806   3.588   6.307   7.796 -1.6878 -0.2405 -3.3961
   14SAPS  C219 1807   3.778   6.356   7.868  0.0239  0.3776  0.2407
   14SAPS  H19R 1808   3.729   6.443   7.916 -1.2848 -0.8890  1.2690
   14SAPS  H19S 1809   3.883   6.375   7.834  0.4591 -2.7069 -0.4446
   14SAPS  C220 1810   3.788   6.248   7.971 -0.8354 -0.1720  0.8863
   14SAPS  H20R 1811   3.818   6.147   7.935 -3.7006  0.0263 -2.5635
   14SAPS  H20S 1812   3.687   6.239   8.017 -1.3756  0.2480 -0.1977
   14SAPS  H20T 1813   3.857   6.279   8.052 -0.7185 -0.0373  0.7354
   14SAPS   C33 1814   3.824   5.813   6.568  1.3114 -0.1148  0.4461
   14SAPS   H3X 1815   3.723   5.858   6.585  2.2320  1.7765  1.1912
   14SAPS   H3Y 1816   3.877   5.893   6.512 -0.3547  1.1920  0.6527
   14SAPS   C34 1817   3.881   5.774   6.709 -0.1207 -0.2017  0.9850
   14SAPS   H4X 1818   3.974   5.715   6.708 -0.5781 -0.9398  0.2277
   14SAPS   H4Y 1819   3.810   5.704   6.757 -0.8881  0.5816  1.0231
   14SAPS   C35 1820   3.904   5.903   6.803  0.0500  0.2928  0.4920
   14SAPS   H5X 1821   3.919   5.987   6.732 -1.9279 -0.9948 -1.6000
   14SAPS   H5Y 1822   3.990   5.890   6.871  0.0082  1.5856  0.8158
   14SAPS   C36 1823   3.776   5.946   6.884  0.1578 -0.3735 -0.6481
   14SAPS   H6X 1824   3.700   5.946   6.802  1.9183 -2.7232 -2.4256
   14SAPS   H6Y 1825   3.789   6.047   6.927  2.7835 -0.2164 -1.6232
   14SAPS   C37 1826   3.752   5.843   6.995 -0.5312  0.0062 -0.5700
   14SAPS   H7X 1827   3.849   5.821   7.044 -0.5711 -0.8907 -0.8633
   14SAPS   H7Y 1828   3.723   5.747   6.946 -1.8660  0.8178 -1.4297
   14SAPS   C38 1829   3.643   5.887   7.093  0.4995  0.3490  0.2939
   14SAPS   H8X 1830   3.637   5.806   7.168 -0.5745  0.0981 -0.0461
   14SAPS   H8Y 1831   3.545   5.910   7.045  1.3192 -0.4073 -1.8788
   14SAPS   C39 1832   3.665   6.024   7.166 -0.5414 -0.4095 -0.3179
   14SAPS   H9X 1833   3.616   6.102   7.105 -2.8738 -0.0739  1.8104
   14SAPS   H9Y 1834   3.775   6.027   7.178 -0.6258  0.8802  0.2958
   14SAPS  C310 1835   3.604   6.031   7.309 -0.0323  0.5577 -0.0663
   14SAPS  H10X 1836   3.601   6.133   7.352 -1.9440  0.3591  0.3671
   14SAPS  H10Y 1837   3.667   5.970   7.377 -0.1137  0.0699 -0.4216
   14SAPS  C311 1838   3.464   5.979   7.324  0.2985 -0.9355 -0.3632
   14SAPS  H11X 1839   3.458   5.871   7.296  0.1094 -1.2797  0.9338
   14SAPS  H11Y 1840   3.388   6.020   7.254 -0.9482  0.2764  1.5823
   14SAPS  C312 1841   3.410   6.020   7.467  0.3974  0.1975 -0.5955
   14SAPS  H12X 1842   3.308   5.976   7.472  0.4745  0.1732  1.9261
   14SAPS  H12Y 1843   3.391   6.129   7.461 -0.5148  0.3022  2.5110
   14SAPS  C313 1844   3.486   5.990   7.593  0.0179  0.2444  0.4600
   14SAPS  H13X 1845   3.584   6.041   7.583  0.0435 -0.0159 -0.7630
   14SAPS  H13Y 1846   3.496   5.879   7.595  2.7422  0.4193 -0.0131
   14SAPS  C314 1847   3.410   6.026   7.717  0.0728  0.2964  0.0801
   14SAPS  H14X 1848   3.327   5.952   7.724 -2.6566  3.0476 -0.9014
   14SAPS  H14Y 1849   3.368   6.129   7.712  0.8794  0.5853 -1.1579
   14SAPS  C315 1850   3.494   6.007   7.842  0.5966 -0.3473 -0.1836
   14SAPS  H15X 1851   3.599   6.043   7.831  0.1706  0.5582 -1.5859
   14SAPS  H15Y 1852   3.522   5.900   7.848  1.9409  0.0184  0.7167
   14SAPS  C316 1853   3.426   6.063   7.968 -0.5619 -0.4126 -0.0363
   14SAPS  H16X 1854   3.371   6.156   7.945  0.3317  0.6339  1.7896
   14SAPS  H16Y 1855   3.500   6.100   8.043  0.3034 -0.2062 -0.9638
   14SAPS  C317 1856   3.326   5.956   8.028 -0.4736 -0.4188 -0.6111
   14SAPS  H17X 1857   3.374   5.863   8.066 -1.3982 -1.1480 -1.1934
   14SAPS  H17Y 1858   3.250   5.944   7.948 -2.3440 -2.2295  1.3078
   14SAPS  C318 1859   3.252   6.017   8.144 -0.2814 -0.4722 -0.4454
   14SAPS  H18X 1860   3.319   6.034   8.231  1.2062 -1.5421 -1.3374
   14SAPS  H18Y 1861   3.163   5.958   8.173 -2.3036  1.7698 -1.6577
   14SAPS  H18Z 1862   3.207   6.114   8.111  3.0093  0.5936 -2.1881
   15SAPS     N 1863   4.701   6.499   5.542  0.4367 -0.6221 -0.2907
   15SAPS   HN1 1864   4.661   6.495   5.638  1.6790  2.4579  0.4603
   15SAPS   HN2 1865   4.802   6.515   5.560  0.1588  2.2554 -0.8628
   15SAPS   HN3 1866   4.666   6.589   5.503  0.0879 -0.3906  0.5255
   15SAPS   C12 1867   4.684   6.383   5.468  0.0355  0.0960  0.7150
   15SAPS  H12A 1868   4.580   6.365   5.448  0.6857 -0.6354 -2.6649
   15SAPS   C13 1869   4.753   6.393   5.334 -0.2674 -0.8447  0.3016
   15SAPS  O13A 1870   4.828   6.490   5.310  0.1753  0.2001  0.2275
   15SAPS  O13B 1871   4.708   6.327   5.242  0.7757  0.4115  0.2642
   15SAPS   C11 1872   4.751   6.264   5.543 -0.0332 -0.5483 -0.2134
   15SAPS  H11A 1873   4.861   6.277   5.555 -0.1554  0.1874  0.1490
   15SAPS  H11B 1874   4.732   6.172   5.483  2.3767 -0.1289 -1.7545
   15SAPS     P 1875   4.653   6.134   5.766 -0.0454  0.2658 -0.1313
   15SAPS   O13 1876   4.511   6.130   5.788  0.0699  0.1993  0.3463
   15SAPS   O14 1877   4.722   6.009   5.719 -0.0099 -0.9538 -0.2392
   15SAPS   O12 1878   4.692   6.255   5.671 -0.1059 -0.5196  0.2192
   15SAPS   O11 1879   4.718   6.189   5.899 -0.7357  0.1712 -0.1647
   15SAPS    C1 1880   4.794   6.101   5.982 -0.3791  0.4486 -0.0498
   15SAPS    HA 1881   4.881   6.066   5.923  0.1235  0.2675  0.7872
   15SAPS    HB 1882   4.819   6.144   6.082 -0.6640 -2.5186  1.4139
   15SAPS    C2 1883   4.718   5.971   6.026 -0.0401  0.3854 -0.5048
   15SAPS    HS 1884   4.707   5.920   5.928  1.0183 -0.8365 -0.0172
   15SAPS   O21 1885   4.581   6.007   6.069 -0.7858 -0.3706 -0.5719
   15SAPS   C21 1886   4.498   5.906   6.080 -0.5570 -0.1021 -0.2415
   15SAPS   O22 1887   4.524   5.792   6.043  0.8149  0.1316 -0.4741
   15SAPS   C22 1888   4.369   5.961   6.149  0.3614 -0.3487 -0.8428
   15SAPS   H2R 1889   4.391   6.035   6.229 -3.4594  0.3661 -0.2345
   15SAPS   H2S 1890   4.321   6.018   6.066  3.4315  0.4120 -2.2301
   15SAPS    C3 1891   4.795   5.875   6.119  0.5926 -0.3665  0.8871
   15SAPS    HX 1892   4.894   5.852   6.074  0.2076 -0.8689  0.2860
   15SAPS    HY 1893   4.752   5.772   6.119  1.3409 -0.7059 -0.3717
   15SAPS   O31 1894   4.818   5.934   6.247 -1.0019  0.3894 -0.2768
   15SAPS   C31 1895   4.743   5.890   6.350  0.1035  0.2490 -0.8173
   15SAPS   O32 1896   4.667   5.793   6.349  0.6517 -0.0056 -0.0309
   15SAPS   C32 1897   4.777   5.979   6.467  0.0001 -0.0706 -0.3370
   15SAPS   H2X 1898   4.886   5.975   6.490 -0.2615 -1.1491  0.8592
   15SAPS   H2Y 1899   4.735   5.930   6.558 -0.4595 -0.1094 -0.5662
   15SAPS   C23 1900   4.271   5.851   6.193 -0.0549 -0.2184 -0.9543
   15SAPS   H3R 1901   4.244   5.799   6.099  0.8032 -1.2810 -0.6306
   15SAPS   H3S 1902   4.179   5.902   6.230 -0.3902 -0.5793 -1.2921
   15SAPS   C24 1903   4.325   5.766   6.304 -0.1318  0.1081 -0.3018
   15SAPS   H4R 1904   4.330   5.825   6.398 -0.5557  0.2349 -0.3562
   15SAPS   H4S 1905   4.429   5.744   6.275 -0.0413  1.1249 -0.7862
   15SAPS   C25 1906   4.254   5.636   6.319  0.6634 -0.0684  0.0514
   15SAPS   H5R 1907   4.236   5.586   6.223  2.7546  3.8925 -2.6829
   15SAPS   C26 1908   4.235   5.578   6.443  0.0445 -0.5032  0.4669
   15SAPS   H6R 1909   4.181   5.483   6.452 -0.2601 -0.2680  1.2594
   15SAPS   C27 1910   4.260   5.617   6.588 -0.6932 -0.0287 -0.0138
   15SAPS   H7R 1911   4.195   5.553   6.650 -0.7295  1.6487  1.7835
   15SAPS   H7S 1912   4.234   5.725   6.596  1.1287  0.3291  1.9868
   15SAPS   C28 1913   4.395   5.610   6.639 -0.3191  0.5275  0.1008
   15SAPS   H8R 1914   4.471   5.638   6.564 -0.5826 -0.6167 -0.6194
   15SAPS   C29 1915   4.437   5.570   6.765 -0.3921 -0.1432 -0.2391
   15SAPS   H9R 1916   4.546   5.573   6.779 -0.5939 -1.6111  2.0697
   15SAPS  C210 1917   4.345   5.531   6.880  0.3809  0.4207 -0.1870
   15SAPS  H10R 1918   4.399   5.482   6.963  0.5206 -0.8198 -0.9800
   15SAPS  H10S 1919   4.293   5.444   6.834  0.0140  1.8438 -2.6463
   15SAPS  C211 1920   4.250   5.634   6.928 -0.0036  0.7120  0.1045
   15SAPS  H11R 1921   4.272   5.733   6.885 -1.3724  0.5825 -0.9723
   15SAPS  C212 1922   4.154   5.622   7.025  0.5068 -0.4195  0.9356
   15SAPS  H12R 1923   4.090   5.709   7.047  1.0914  0.2279  0.1163
   15SAPS  C213 1924   4.120   5.492   7.090  0.4950 -0.3685  0.3685
   15SAPS  H13R 1925   4.211   5.428   7.089  0.3112 -0.6336 -0.4560
   15SAPS  H13S 1926   4.045   5.444   7.024 -0.2436 -2.9015  2.8073
   15SAPS  C214 1927   4.063   5.511   7.229 -1.4661 -0.1993  0.6712
   15SAPS  H14R 1928   4.039   5.616   7.254 -3.5874 -0.4983  0.1204
   15SAPS  C215 1929   4.044   5.415   7.319  0.3019 -0.2949 -0.1445
   15SAPS  H15R 1930   3.987   5.448   7.408  0.2001  3.0303 -1.3109
   15SAPS  C216 1931   4.078   5.269   7.292 -0.9267  0.4538  0.3146
   15SAPS  H16R 1932   4.140   5.255   7.201 -0.1333 -1.4301  1.0954
   15SAPS  H16S 1933   3.984   5.209   7.295 -0.2447 -0.7617 -1.0982
   15SAPS  C217 1934   4.156   5.218   7.414  0.2928 -0.5662 -0.1587
   15SAPS  H17R 1935   4.091   5.204   7.503  0.4648  2.7496  0.6330
   15SAPS  H17S 1936   4.244   5.281   7.442  0.6594 -0.4348 -1.5385
   15SAPS  C218 1937   4.214   5.081   7.392 -0.2839  0.4857 -0.9767
   15SAPS  H18R 1938   4.295   5.089   7.317  1.0334  2.1646  0.5408
   15SAPS  H18S 1939   4.142   5.008   7.350 -1.5853  0.2405  1.4993
   15SAPS  C219 1940   4.272   5.011   7.521  0.0650 -0.0121 -0.2186
   15SAPS  H19R 1941   4.320   4.914   7.494 -1.2627 -0.6655 -0.3089
   15SAPS  H19S 1942   4.181   4.995   7.583  0.0373  3.0161  0.6913
   15SAPS  C220 1943   4.365   5.109   7.600 -0.0017  0.4327  0.2202
   15SAPS  H20R 1944   4.304   5.179   7.662 -0.7508  0.7116 -0.8070
   15SAPS  H20S 1945   4.426   5.166   7.527  0.5656  2.0322  1.8825
   15SAPS  H20T 1946   4.445   5.061   7.660  0.4747 -0.8418 -1.3586
   15SAPS   C33 1947   4.726   6.124   6.463  0.1170 -0.3481 -0.5288
   15SAPS   H3X 1948   4.783   6.180   6.385 -0.9486  2.1630  0.3962
   15SAPS   H3Y 1949   4.726   6.168   6.564  0.8562  0.4281 -0.8615
   15SAPS   C34 1950   4.579   6.133   6.420 -0.2426  0.2615  0.8575
   15SAPS   H4X 1951   4.560   6.096   6.317 -1.1512  2.2726  0.2461
   15SAPS   H4Y 1952   4.552   6.241   6.422 -2.4167 -0.2341  0.7313
   15SAPS   C35 1953   4.480   6.056   6.508 -0.9333  0.8348  0.6608
   15SAPS   H5X 1954   4.488   5.946   6.515 -0.3996  0.9259  1.5964
   15SAPS   H5Y 1955   4.379   6.063   6.462 -0.1099 -0.5355 -1.5170
   15SAPS   C36 1956   4.479   6.105   6.650  0.4317  0.4275  0.2674
   15SAPS   H6X 1957   4.486   6.215   6.660  2.3992  0.2072  1.8833
   15SAPS   H6Y 1958   4.567   6.061   6.701  1.1935 -1.0099 -2.1142
   15SAPS   C37 1959   4.349   6.048   6.709 -0.4824 -0.6526 -0.1397
   15SAPS   H7X 1960   4.350   5.937   6.705  0.3719 -0.6111 -1.4325
   15SAPS   H7Y 1961   4.266   6.096   6.653  0.3946  2.5633  1.0950
   15SAPS   C38 1962   4.332   6.102   6.848 -0.0643  0.2273  0.2766
   15SAPS   H8X 1963   4.327   6.213   6.849  2.1450  0.3889 -1.2320
   15SAPS   H8Y 1964   4.418   6.090   6.917 -1.7778  2.1018  2.9549
   15SAPS   C39 1965   4.203   6.052   6.920 -0.2405  0.9149  0.6415
   15SAPS   H9X 1966   4.179   5.949   6.886 -0.5186  0.4710  2.1144
   15SAPS   H9Y 1967   4.116   6.111   6.886 -1.1032 -0.1549  0.9609
   15SAPS  C310 1968   4.211   6.049   7.076 -0.1569 -0.1091  0.3147
   15SAPS  H10X 1969   4.221   6.150   7.122 -0.2135 -1.0114  2.4506
   15SAPS  H10Y 1970   4.294   5.977   7.095 -0.7684 -1.8943 -3.0849
   15SAPS  C311 1971   4.085   5.991   7.139  0.2109  0.9757 -0.7408
   15SAPS  H11X 1972   4.071   5.884   7.113  0.7781  0.5485  0.6275
   15SAPS  H11Y 1973   3.999   6.059   7.118  0.3069  1.7613  1.2154
   15SAPS  C312 1974   4.102   5.990   7.292  0.1750 -0.0098 -0.4315
   15SAPS  H12X 1975   4.144   6.087   7.326 -0.3152 -0.3234  1.1427
   15SAPS  H12Y 1976   4.193   5.929   7.310  1.0693  0.7043 -2.3376
   15SAPS  C313 1977   3.983   5.940   7.365 -0.0441 -0.2981  0.7960
   15SAPS  H13X 1978   3.962   5.842   7.318  0.3243 -0.3458  0.7291
   15SAPS  H13Y 1979   3.901   6.013   7.343 -1.4541 -1.9766  0.1813
   15SAPS  C314 1980   3.990   5.926   7.518 -0.4380 -0.0245  0.3780
   15SAPS  H14X 1981   3.882   5.917   7.541 -0.6345 -1.9954 -1.0561
   15SAPS  H14Y 1982   4.047   6.013   7.556  0.4112 -0.4509  0.1063
   15SAPS  C315 1983   4.063   5.799   7.555  0.0649 -0.3337 -0.6259
   15SAPS  H15X 1984   4.164   5.798   7.510  0.1494  0.8316 -0.4983
   15SAPS  H15Y 1985   4.013   5.704   7.529 -1.1897 -0.0145  0.5025
   15SAPS  C316 1986   4.090   5.812   7.707  0.5223 -0.3277  0.0571
   15SAPS  H16X 1987   4.163   5.896   7.713 -0.1355  0.2464  0.0904
   15SAPS  H16Y 1988   4.132   5.715   7.742 -0.3533 -1.3356 -1.5533
   15SAPS  C317 1989   3.965   5.845   7.784  0.8875 -0.1236 -0.5383
   15SAPS  H17X 1990   3.880   5.790   7.739 -0.0647  2.9760 -2.8496
   15SAPS  H17Y 1991   3.947   5.954   7.773 -1.4672  0.1334  3.8170
   15SAPS  C318 1992   3.988   5.821   7.930 -0.0292  0.0178 -0.0658
   15SAPS  H18X 1993   3.895   5.851   7.982 -1.2748 -1.0419 -1.5899
   15SAPS  H18Y 1994   4.069   5.885   7.971 -1.5612  1.2751  1.1285
   15SAPS  H18Z 1995   4.024   5.719   7.956  0.2167 -0.2716 -1.4315
   16SAPS     N 1996   6.079   1.085   6.501  0.0272  0.1054 -0.1308
   16SAPS   HN1 1997   6.096   1.029   6.587  4.1423 -2.2725 -2.1638
   16SAPS   HN2 1998   6.149   1.053   6.431  1.7370 -0.7511  1.8341
   16SAPS   HN3 1999   6.120   1.178   6.519  0.7609 -0.1855 -0.2586
   16SAPS   C12 2000   5.935   1.103   6.453  0.8119  0.0282  0.1392
   16SAPS  H12A 2001   5.883   1.155   6.533  3.1556 -0.3731  2.0464
   16SAPS   C13 2002   5.922   1.189   6.320 -0.1639  0.3689 -0.0411
   16SAPS  O13A 2003   6.022   1.247   6.270  0.1337  0.1272 -0.4794
   16SAPS  O13B 2004   5.806   1.232   6.304  0.1295 -0.1763 -0.0749
   16SAPS   C11 2005   5.882   0.958   6.443 -0.3701  0.4237 -0.1392
   16SAPS  H11A 2006   5.943   0.902   6.368 -1.1077 -0.9568  0.2650
   16SAPS  H11B 2007   5.778   0.959   6.404 -0.0373  1.7663 -1.0710
   16SAPS     P 2008   5.766   0.818   6.627 -0.1494  0.2757  0.6957
   16SAPS   O13 2009   5.721   0.728   6.521 -0.2659  0.0860 -0.4123
   16SAPS   O14 2010   5.799   0.750   6.751  0.0080 -0.1316  0.1970
   16SAPS   O12 2011   5.890   0.895   6.574 -0.1027  0.7055  0.1102
   16SAPS   O11 2012   5.669   0.938   6.658  0.6793 -0.2454 -0.7927
   16SAPS    C1 2013   5.705   1.038   6.755  0.2651  0.4528 -0.1308
   16SAPS    HA 2014   5.729   0.996   6.855  1.0983 -0.4733 -0.7067
   16SAPS    HB 2015   5.800   1.090   6.729 -0.5112  1.2883 -1.3697
   16SAPS    C2 2016   5.588   1.138   6.779 -0.0567  0.4644 -0.0322
   16SAPS    HS 2017   5.544   1.148   6.678  0.0258  0.0604 -0.1089
   16SAPS   O21 2018   5.644   1.261   6.825  0.2341  0.6449 -0.1497
   16SAPS   C21 2019   5.703   1.334   6.726  0.1623  1.1564  0.4026
   16SAPS   O22 2020   5.693   1.310   6.609 -0.1240 -0.2032 -0.1312
   16SAPS   C22 2021   5.781   1.457   6.787 -0.0012 -0.5074  0.4144
   16SAPS   H2R 2022   5.744   1.547   6.734  0.6557 -0.3518  0.2113
   16SAPS   H2S 2023   5.766   1.467   6.897  2.1609 -1.8705  0.8928
   16SAPS    C3 2024   5.480   1.088   6.883  0.3385 -0.2676  0.0501
   16SAPS    HX 2025   5.534   1.072   6.979 -0.7731  0.5395  0.8312
   16SAPS    HY 2026   5.438   0.992   6.848 -0.1565  0.7191 -2.2035
   16SAPS   O31 2027   5.363   1.176   6.887  0.4397 -0.1012 -0.0154
   16SAPS   C31 2028   5.371   1.282   6.966 -0.5335 -0.2536 -1.0738
   16SAPS   O32 2029   5.446   1.301   7.058 -0.0649  0.1539 -0.4149
   16SAPS   C32 2030   5.240   1.356   6.964 -0.1473  0.2304 -0.3080
   16SAPS   H2X 2031   5.211   1.369   6.858 -0.4621  1.9916 -0.0427
   16SAPS   H2Y 2032   5.244   1.454   7.018 -2.4750 -0.4398  1.2245
   16SAPS   C23 2033   5.937   1.447   6.760  0.1713 -0.5405  0.7440
   16SAPS   H3R 2034   5.988   1.537   6.799 -0.2302 -0.2873  0.6878
   16SAPS   H3S 2035   5.962   1.439   6.652  1.8327  1.3272  0.9320
   16SAPS   C24 2036   6.007   1.324   6.834  0.2600 -0.3522  1.0040
   16SAPS   H4R 2037   6.116   1.339   6.823 -0.0235  2.3407  1.0574
   16SAPS   H4S 2038   5.969   1.231   6.787 -0.7456  0.9432 -0.9138
   16SAPS   C25 2039   5.986   1.340   6.979 -0.4782 -0.1424  0.0270
   16SAPS   H5R 2040   6.006   1.444   7.010  0.0367  0.2669 -1.5880
   16SAPS   C26 2041   5.974   1.242   7.071  0.2661  0.6076 -0.8098
   16SAPS   H6R 2042   5.949   1.265   7.176  0.8880  1.9648 -0.9396
   16SAPS   C27 2043   5.996   1.094   7.047 -0.3062 -0.2508  1.6261
   16SAPS   H7R 2044   6.054   1.079   6.953  0.5913  3.3509  1.4278
   16SAPS   H7S 2045   5.900   1.053   7.009 -0.2253  1.1045 -0.2157
   16SAPS   C28 2046   6.046   1.021   7.164  0.5684  0.2535  0.0407
   16SAPS   H8R 2047   6.154   1.006   7.177  1.3422  2.2503 -2.9175
   16SAPS   C29 2048   5.959   0.959   7.251 -0.1668  0.2626 -0.4013
   16SAPS   H9R 2049   6.001   0.920   7.344 -0.0234 -0.0175 -0.5806
   16SAPS  C210 2050   5.804   0.954   7.252 -0.3523  0.1293  0.4404
   16SAPS  H10R 2051   5.753   1.028   7.186 -0.7541 -1.0739 -0.6399
   16SAPS  H10S 2052   5.779   0.998   7.351  0.0112 -0.0701  0.6195
   16SAPS  C211 2053   5.742   0.821   7.230  0.2602  0.7125  0.0548
   16SAPS  H11R 2054   5.707   0.801   7.128  2.0727 -0.0831 -0.4490
   16SAPS  C212 2055   5.712   0.721   7.318  0.5207  0.2102  0.0698
   16SAPS  H12R 2056   5.652   0.633   7.294 -0.5549  0.1978  2.4909
   16SAPS  C213 2057   5.735   0.736   7.466 -0.0040  0.0749 -0.6096
   16SAPS  H13R 2058   5.642   0.725   7.526  1.0826 -2.0968  0.8113
   16SAPS  H13S 2059   5.752   0.843   7.488  0.5635  0.0719 -1.0221
   16SAPS  C214 2060   5.848   0.656   7.516 -0.4923  0.2016 -0.5005
   16SAPS  H14R 2061   5.949   0.688   7.486 -0.5608 -0.1392 -1.1020
   16SAPS  C215 2062   5.839   0.542   7.591  0.5991 -0.4012  0.1249
   16SAPS  H15R 2063   5.925   0.484   7.625 -0.8040 -2.4388  0.3511
   16SAPS  C216 2064   5.705   0.475   7.618  0.4779  0.1265 -0.4434
   16SAPS  H16R 2065   5.613   0.528   7.587 -2.2356 -3.7983  0.0905
   16SAPS  H16S 2066   5.701   0.450   7.727  3.1122 -1.8149 -0.6815
   16SAPS  C217 2067   5.693   0.338   7.553  0.5012  0.0070 -0.2195
   16SAPS  H17R 2068   5.620   0.270   7.601  2.8416 -3.1244 -0.7688
   16SAPS  H17S 2069   5.792   0.290   7.570  1.4352  2.2966  1.2670
   16SAPS  C218 2070   5.679   0.342   7.401  0.5320 -0.4751 -0.3985
   16SAPS  H18R 2071   5.674   0.236   7.370 -1.9536 -1.6647  3.3889
   16SAPS  H18S 2072   5.750   0.414   7.356  0.0493  0.2512 -0.0177
   16SAPS  C219 2073   5.541   0.395   7.352  0.3342 -0.0220  0.3068
   16SAPS  H19R 2074   5.536   0.499   7.390  1.7673 -0.3599  1.5374
   16SAPS  H19S 2075   5.460   0.345   7.409  0.4280  0.7032  1.0879
   16SAPS  C220 2076   5.524   0.375   7.202  0.4190  0.9747  0.4542
   16SAPS  H20R 2077   5.429   0.422   7.170 -0.7591 -0.5725  1.5886
   16SAPS  H20S 2078   5.519   0.265   7.191 -1.4323  1.0363  0.4315
   16SAPS  H20T 2079   5.611   0.415   7.145  0.5338 -0.3637 -0.3278
   16SAPS   C33 2080   5.133   1.283   7.049 -0.2134 -0.6703 -1.2120
   16SAPS   H3X 2081   5.153   1.174   7.039 -0.3356 -0.8870  0.5314
   16SAPS   H3Y 2082   5.031   1.304   7.012 -1.2779 -2.8227  0.2409
   16SAPS   C34 2083   5.128   1.331   7.196  0.0048 -0.0110  0.6443
   16SAPS   H4X 2084   5.227   1.379   7.213  0.3162  0.2522 -1.5966
   16SAPS   H4Y 2085   5.112   1.253   7.273 -0.4333  1.2546  1.8793
   16SAPS   C35 2086   5.018   1.433   7.233  0.2016 -0.2661  0.4156
   16SAPS   H5X 2087   4.915   1.401   7.209  0.2784  0.6710 -1.2775
   16SAPS   H5Y 2088   5.038   1.527   7.177 -0.7676  0.2516  0.9099
   16SAPS   C36 2089   5.018   1.461   7.384 -0.5165 -0.0460 -0.0522
   16SAPS   H6X 2090   5.128   1.466   7.402 -0.6851  0.1565  0.9688
   16SAPS   H6Y 2091   4.975   1.372   7.435  1.0602 -0.5046  0.5452
   16SAPS   C37 2092   4.946   1.589   7.428  0.5590  0.4528  0.4129
   16SAPS   H7X 2093   4.847   1.587   7.377 -0.4385  3.6162  1.9614
   16SAPS   H7Y 2094   4.991   1.683   7.391 -0.3370  1.0867  0.9069
   16SAPS   C38 2095   4.915   1.600   7.585 -0.0227  0.1997  0.5734
   16SAPS   H8X 2096   5.008   1.616   7.642 -0.8037  0.2532  1.8752
   16SAPS   H8Y 2097   4.867   1.507   7.623  1.2443  0.0858  1.9754
   16SAPS   C39 2098   4.844   1.726   7.616  0.5336 -0.2692 -0.3447
   16SAPS   H9X 2099   4.761   1.729   7.542  0.1250  0.1887  0.1166
   16SAPS   H9Y 2100   4.893   1.821   7.586 -0.3433 -0.0854 -1.2514
   16SAPS  C310 2101   4.776   1.748   7.749 -0.1449  0.3181 -0.2383
   16SAPS  H10X 2102   4.728   1.654   7.780  0.1885 -0.5091 -2.1189
   16SAPS  H10Y 2103   4.707   1.835   7.758  2.2203  2.1006  3.1793
   16SAPS  C311 2104   4.891   1.756   7.852 -0.1651  0.0769  0.5620
   16SAPS  H11X 2105   4.971   1.830   7.830 -3.0848  2.5200 -3.0376
   16SAPS  H11Y 2106   4.950   1.663   7.860  2.0704  1.3896  0.3168
   16SAPS  C312 2107   4.844   1.807   7.998  0.2415 -0.1466  0.3929
   16SAPS  H12X 2108   4.776   1.729   8.037  1.9843 -1.7220  0.4155
   16SAPS  H12Y 2109   4.798   1.907   7.983  0.2161 -0.0451  1.1159
   16SAPS  C313 2110   4.966   1.838   8.087  0.0066  0.1575 -0.0222
   16SAPS  H13X 2111   4.925   1.902   8.168 -0.5654 -1.6160  1.1613
   16SAPS  H13Y 2112   5.031   1.901   8.023 -1.8246 -0.0583 -2.2077
   16SAPS  C314 2113   5.040   1.714   8.140 -0.1107 -0.2188  0.1246
   16SAPS  H14X 2114   5.068   1.645   8.057  0.2678 -1.1708  1.0146
   16SAPS  H14Y 2115   4.986   1.652   8.216 -1.6020  0.1915 -0.5596
   16SAPS  C315 2116   5.173   1.738   8.227  0.0406  0.4107  0.0437
   16SAPS  H15X 2117   5.259   1.761   8.162  1.8044  0.4558  2.2826
   16SAPS  H15Y 2118   5.192   1.643   8.280 -2.8783  0.2364  0.9957
   16SAPS  C316 2119   5.152   1.854   8.324  0.1341 -0.2505 -0.6544
   16SAPS  H16X 2120   5.119   1.944   8.268 -1.4266 -0.3268  0.0956
   16SAPS  H16Y 2121   5.254   1.881   8.361  0.2129  0.6751 -1.5082
   16SAPS  C317 2122   5.060   1.822   8.451  0.3500  0.9074  0.5459
   16SAPS  H17X 2123   5.101   1.730   8.498 -0.5936  0.8052  1.1931
   16SAPS  H17Y 2124   4.961   1.783   8.420  1.7227 -1.4566 -1.2102
   16SAPS  C318 2125   5.061   1.937   8.552 -0.0570 -0.8467 -0.6205
   16SAPS  H18X 2126   5.149   1.943   8.619  0.6107 -0.3340 -1.5103
   16SAPS  H18Y 2127   4.967   1.926   8.609  0.1949 -3.1630 -0.5863
   16SAPS  H18Z 2128   5.061   2.038   8.505 -2.5526  0.2510  1.4842
   17SAPC     N 2129   4.369   4.875  10.725 -0.0593  0.0543  0.2194
   17SAPC   C12 2130   4.425   4.843  10.582 -0.4602  0.2594 -0.0772
   17SAPC  H12A 2131   4.352   4.787  10.526 -0.2962 -0.3192  0.2818
   17SAPC  H12B 2132   4.507   4.776  10.603 -1.3277 -0.3786  1.4549
   17SAPC   C13 2133   4.232   4.944  10.710 -0.5160  0.3307  0.1119
   17SAPC  H13A 2134   4.188   4.901  10.621  0.4374  0.7087 -0.5603
   17SAPC  H13B 2135   4.168   4.939  10.797 -0.7747  1.0746 -0.0283
   17SAPC  H13C 2136   4.242   5.043  10.669 -2.9163  1.3734  1.7969
   17SAPC   C14 2137   4.340   4.743  10.794  0.1565 -0.8771  0.6097
   17SAPC  H14A 2138   4.434   4.698  10.821 -0.0070 -1.9605 -0.5303
   17SAPC  H14B 2139   4.270   4.747  10.876 -1.5716 -0.6442 -0.8165
   17SAPC  H14C 2140   4.289   4.681  10.722  0.0129 -0.7344  0.5886
   17SAPC   C15 2141   4.470   4.962  10.801  0.1974  1.3092  0.1863
   17SAPC  H15A 2142   4.563   4.916  10.829 -0.0194  0.6783 -0.1249
   17SAPC  H15B 2143   4.492   5.050  10.742 -0.1809  1.5274  0.3663
   17SAPC  H15C 2144   4.425   4.992  10.895 -1.3000 -1.0698  0.3104
   17SAPC   C11 2145   4.482   4.954  10.493 -0.4602 -0.5698 -0.1335
   17SAPC  H11A 2146   4.524   4.914  10.399 -2.7928 -0.8406 -1.1337
   17SAPC  H11B 2147   4.559   5.007  10.553 -0.3021 -0.1799 -0.6735
   17SAPC     P 2148   4.295   5.019  10.330 -0.2807 -0.0431 -0.3645
   17SAPC   O13 2149   4.241   4.877  10.313  0.5209 -0.4759 -0.0880
   17SAPC   O14 2150   4.200   5.126  10.315  0.5973  0.1648  0.1180
   17SAPC   O12 2151   4.370   5.037  10.467 -0.1004 -0.1169  1.0028
   17SAPC   O11 2152   4.405   5.027  10.213 -0.2034 -0.3300 -0.8374
   17SAPC    C1 2153   4.450   5.159  10.167  0.4940  0.2026  0.2941
   17SAPC    HA 2154   4.449   5.245  10.238 -2.6081  2.8442 -2.5974
   17SAPC    HB 2155   4.557   5.152  10.140 -0.1681  0.5834 -2.8381
   17SAPC    C2 2156   4.373   5.202  10.036  0.3073 -0.1284 -0.0831
   17SAPC    HS 2157   4.268   5.228  10.060 -0.1879  0.5517 -2.6754
   17SAPC   O21 2158   4.384   5.092   9.953  0.5162 -0.0888 -0.1421
   17SAPC   C21 2159   4.280   5.062   9.884  0.2191 -0.4356  0.5952
   17SAPC   O22 2160   4.186   5.129   9.865  0.6825 -0.3823  0.1376
   17SAPC   C22 2161   4.285   4.918   9.827 -0.4238  0.8929  0.1447
   17SAPC   H2R 2162   4.322   4.845   9.902 -1.0834  0.8033  0.3873
   17SAPC   H2S 2163   4.183   4.893   9.792 -0.0700  1.6501 -1.4983
   17SAPC    C3 2164   4.436   5.331   9.963 -0.5387  0.1477 -0.1014
   17SAPC    HX 2165   4.545   5.315   9.949 -0.8115 -0.0234 -2.4862
   17SAPC    HY 2166   4.431   5.414  10.036  2.0152  1.5924 -1.4250
   17SAPC   O31 2167   4.379   5.362   9.833 -0.4312 -0.4756 -0.2796
   17SAPC   C31 2168   4.289   5.468   9.832 -0.4635  0.0698  0.1568
   17SAPC   O32 2169   4.247   5.534   9.924  0.4853 -0.1699 -0.0407
   17SAPC   C32 2170   4.238   5.490   9.692  0.6835 -0.2823  0.1333
   17SAPC   H2X 2171   4.281   5.583   9.649  1.8110 -0.2401  1.2982
   17SAPC   H2Y 2172   4.131   5.515   9.710  1.1379  1.0429  1.1973
   17SAPC   C23 2173   4.398   4.904   9.727  0.0035 -0.4717  0.0563
   17SAPC   H3R 2174   4.408   4.798   9.695  0.6763 -0.3775 -0.0479
   17SAPC   H3S 2175   4.494   4.913   9.782 -0.6398  1.6820  0.9075
   17SAPC   C24 2176   4.392   4.999   9.611 -0.4898  0.0296 -0.2182
   17SAPC   H4R 2177   4.389   5.102   9.651 -3.6181 -0.0760  0.0927
   17SAPC   H4S 2178   4.298   4.986   9.555  1.0416  0.8210 -3.1459
   17SAPC   C25 2179   4.514   4.979   9.521  0.4835 -0.7523  0.1731
   17SAPC   H5R 2180   4.607   5.016   9.567  0.4047 -1.7983  1.2238
   17SAPC   C26 2181   4.506   4.963   9.385 -0.6122  0.3962 -0.5427
   17SAPC   H6R 2182   4.594   4.958   9.320 -0.9426 -2.1064 -0.9193
   17SAPC   C27 2183   4.374   4.951   9.309  0.8039  0.2356  0.2503
   17SAPC   H7R 2184   4.396   5.015   9.221 -0.3429  2.6776  1.6293
   17SAPC   H7S 2185   4.295   5.002   9.368 -0.5298 -0.7011 -0.6477
   17SAPC   C28 2186   4.313   4.817   9.276 -0.2970  0.5855 -0.3006
   17SAPC   H8R 2187   4.298   4.756   9.366  0.8386 -1.9128 -1.6952
   17SAPC   C29 2188   4.276   4.773   9.157  0.5416  0.0636 -0.4095
   17SAPC   H9R 2189   4.231   4.672   9.164  0.5765 -0.0489 -1.5599
   17SAPC  C210 2190   4.288   4.833   9.019 -0.7739 -0.2375  0.0975
   17SAPC  H10R 2191   4.355   4.922   9.018  1.1979 -1.6516  1.3656
   17SAPC  H10S 2192   4.193   4.873   8.976 -0.3012 -0.7006 -1.4596
   17SAPC  C211 2193   4.339   4.726   8.926  0.8333  0.3189 -1.0959
   17SAPC  H11R 2194   4.394   4.643   8.973 -1.6454 -1.7063 -1.5791
   17SAPC  C212 2195   4.316   4.719   8.793  0.0853  0.7111 -0.7943
   17SAPC  H12R 2196   4.365   4.635   8.742  2.1391  0.4238  1.4389
   17SAPC  C213 2197   4.250   4.815   8.701 -0.4621 -0.5098  0.9162
   17SAPC  H13R 2198   4.194   4.893   8.756 -1.4203 -1.2224  0.9920
   17SAPC  H13S 2199   4.159   4.774   8.652 -0.2085 -0.4895  0.4185
   17SAPC  C214 2200   4.347   4.862   8.596 -0.0038  0.1542  0.7055
   17SAPC  H14R 2201   4.380   4.966   8.614 -0.8332  0.5864 -0.1461
   17SAPC  C215 2202   4.375   4.801   8.482 -0.2647 -0.6588 -1.0844
   17SAPC  H15R 2203   4.443   4.862   8.420  1.5583 -0.4919  0.9789
   17SAPC  C216 2204   4.329   4.667   8.426  0.4764  0.2091 -0.1235
   17SAPC  H16R 2205   4.285   4.687   8.326  2.2547 -0.8961 -1.2030
   17SAPC  H16S 2206   4.248   4.621   8.486  1.4551 -1.2280  0.1592
   17SAPC  C217 2207   4.436   4.557   8.411  0.0644  0.0851 -0.0651
   17SAPC  H17R 2208   4.385   4.459   8.404  0.7300 -0.2096 -1.0293
   17SAPC  H17S 2209   4.491   4.553   8.507 -1.5724 -0.1674  0.9043
   17SAPC  C218 2210   4.538   4.574   8.296  0.6224 -0.2433 -0.2163
   17SAPC  H18R 2211   4.610   4.490   8.290  2.0619  0.9624 -0.5654
   17SAPC  H18S 2212   4.593   4.670   8.314 -1.5058  0.6370  2.3228
   17SAPC  C219 2213   4.481   4.579   8.154 -0.4716  0.5975  0.6233
   17SAPC  H19R 2214   4.566   4.577   8.083 -1.0249 -2.6539 -0.1164
   17SAPC  H19S 2215   4.416   4.669   8.146 -0.8334  0.2705 -0.2542
   17SAPC  C220 2216   4.399   4.450   8.112 -0.4194  0.0827  0.0327
   17SAPC  H20R 2217   4.426   4.360   8.172  0.4901  0.9509  0.9767
   17SAPC  H20S 2218   4.421   4.422   8.007  1.8081  0.1390  0.4263
   17SAPC  H20T 2219   4.291   4.468   8.128 -0.3156  0.5021  0.2946
   17SAPC   C33 2220   4.266   5.376   9.587  0.4633 -0.6324 -0.0428
   17SAPC   H3X 2221   4.256   5.280   9.641 -1.9615  0.7832  2.2301
   17SAPC   H3Y 2222   4.371   5.389   9.552  0.4019 -0.2513 -0.0884
   17SAPC   C34 2223   4.171   5.394   9.462 -0.1033  0.1338 -0.1812
   17SAPC   H4X 2224   4.178   5.504   9.448  2.2526 -0.0217 -0.5350
   17SAPC   H4Y 2225   4.065   5.381   9.492 -0.5784  0.3018 -1.7047
   17SAPC   C35 2226   4.220   5.311   9.342 -0.0262 -0.3009  0.0424
   17SAPC   H5X 2227   4.238   5.203   9.361  0.9626 -0.6789 -2.6843
   17SAPC   H5Y 2228   4.318   5.360   9.326 -0.7278  1.1883  0.1479
   17SAPC   C36 2229   4.138   5.334   9.217  0.6913 -0.1358  0.5882
   17SAPC   H6X 2230   4.152   5.443   9.200 -0.2801 -0.0818  0.0468
   17SAPC   H6Y 2231   4.031   5.307   9.228  0.3966  1.1513  1.0994
   17SAPC   C37 2232   4.207   5.257   9.099  0.5520  0.0703  0.6991
   17SAPC   H7X 2233   4.171   5.290   8.999  1.4598  0.7007  0.5715
   17SAPC   H7Y 2234   4.196   5.146   9.107 -0.0001  0.2130  2.3951
   17SAPC   C38 2235   4.358   5.270   9.093 -0.0547 -0.2855 -0.6825
   17SAPC   H8X 2236   4.387   5.212   9.183  0.0027  1.3081  0.3702
   17SAPC   H8Y 2237   4.386   5.377   9.105 -0.6705 -0.2720  0.9127
   17SAPC   C39 2238   4.428   5.207   8.977  0.1927  0.4362  0.5183
   17SAPC   H9X 2239   4.358   5.123   8.955 -1.2314  1.2084  1.8990
   17SAPC   H9Y 2240   4.529   5.183   9.015 -0.2636  0.0086  1.5018
   17SAPC  C310 2241   4.435   5.301   8.845 -0.0890  0.2201 -0.3937
   17SAPC  H10X 2242   4.542   5.317   8.821  0.2840 -0.0183  1.0158
   17SAPC  H10Y 2243   4.373   5.391   8.866  0.1852  0.4787 -0.6715
   17SAPC  C311 2244   4.374   5.223   8.726 -0.1384 -0.1003 -0.5157
   17SAPC  H11X 2245   4.269   5.190   8.736 -0.0384 -0.1952  0.2708
   17SAPC  H11Y 2246   4.434   5.132   8.703 -0.0812 -0.9484  2.4993
   17SAPC  C312 2247   4.377   5.291   8.591 -0.0407  0.7765  0.5388
   17SAPC  H12X 2248   4.341   5.396   8.596  1.3258  1.3518 -1.0467
   17SAPC  H12Y 2249   4.321   5.240   8.509  0.4429  2.8106 -1.1416
   17SAPC  C313 2250   4.519   5.309   8.523 -1.3227  0.1642  0.3161
   17SAPC  H13X 2251   4.553   5.204   8.506 -3.0452 -0.4190  0.2821
   17SAPC  H13Y 2252   4.575   5.355   8.607 -0.5115  1.0297 -0.6832
   17SAPC  C314 2253   4.524   5.393   8.392  0.3199  0.2688 -0.2123
   17SAPC  H14X 2254   4.629   5.423   8.373 -0.4371  2.6275 -0.9895
   17SAPC  H14Y 2255   4.458   5.482   8.393 -1.6474 -0.9575 -3.1871
   17SAPC  C315 2256   4.474   5.302   8.286 -0.2701  1.1294  1.0063
   17SAPC  H15X 2257   4.364   5.291   8.288 -0.0719 -2.5701 -0.4030
   17SAPC  H15Y 2258   4.525   5.203   8.294  1.0225  1.5908 -0.8177
   17SAPC  C316 2259   4.507   5.366   8.149 -0.9237 -0.0029 -0.4311
   17SAPC  H16X 2260   4.618   5.373   8.152 -0.9319  1.0922 -1.9930
   17SAPC  H16Y 2261   4.468   5.469   8.136  0.1954  0.3256 -1.3367
   17SAPC  C317 2262   4.485   5.271   8.023 -0.0748 -0.7707  0.8069
   17SAPC  H17X 2263   4.378   5.252   8.000  0.1293 -0.0976 -0.8724
   17SAPC  H17Y 2264   4.549   5.180   8.035  2.3353  0.7372  0.1089
   17SAPC  C318 2265   4.553   5.346   7.903  0.5002 -0.5502  0.6752
   17SAPC  H18X 2266   4.663   5.360   7.904  0.2082  2.3871 -0.6237
   17SAPC  H18Y 2267   4.537   5.281   7.814 -0.7748  0.0978  0.4061
   17SAPC  H18Z 2268   4.509   5.444   7.876 -0.5783 -0.9624  0.8593
   18SAPC     N 2269   3.634   4.581  10.437  0.4554  0.7018  0.0897
   18SAPC   C12 2270   3.725   4.553  10.316 -0.5920  0.6068  0.4420
   18SAPC  H12A 2271   3.748   4.649  10.271 -0.0684  0.1587 -0.2534
   18SAPC  H12B 2272   3.674   4.507  10.233  1.1943  1.7946 -1.4162
   18SAPC   C13 2273   3.509   4.659  10.397 -0.2897 -0.2555 -0.4278
   18SAPC  H13A 2274   3.542   4.748  10.345 -1.3965 -0.2158 -1.1080
   18SAPC  H13B 2275   3.441   4.604  10.333 -0.4008  0.7886 -1.2469
   18SAPC  H13C 2276   3.452   4.690  10.484  0.1194 -0.1231 -0.2054
   18SAPC   C14 2277   3.585   4.449  10.496 -0.7214  0.1029  0.1802
   18SAPC  H14A 2278   3.669   4.384  10.515 -1.3959 -0.2084  2.3901
   18SAPC  H14B 2279   3.531   4.474  10.586 -0.9444  4.4505 -0.8887
   18SAPC  H14C 2280   3.512   4.401  10.433  0.0725  0.6920 -1.2535
   18SAPC   C15 2281   3.715   4.649  10.537  0.9883  0.7354 -0.2403
   18SAPC  H15A 2282   3.766   4.733  10.492  0.2141  1.5572  0.3847
   18SAPC  H15B 2283   3.659   4.686  10.621  0.9288  0.8973 -0.3502
   18SAPC  H15C 2284   3.790   4.582  10.575  0.2058  1.1225  2.1206
   18SAPC   C11 2285   3.862   4.483  10.335  0.0863  0.1134 -0.1345
   18SAPC  H11A 2286   3.923   4.555  10.394  0.9574  0.8058 -1.8061
   18SAPC  H11B 2287   3.920   4.471  10.240  0.7093  0.3734  0.2065
   18SAPC     P 2288   3.983   4.308  10.487 -0.1819  0.3206  0.1175
   18SAPC   O13 2289   4.090   4.410  10.471 -0.9839 -0.0922 -0.2351
   18SAPC   O14 2290   3.948   4.283  10.630 -0.6411 -1.1431  0.4729
   18SAPC   O12 2291   3.854   4.358  10.410 -0.3202 -0.8578 -0.0236
   18SAPC   O11 2292   4.028   4.178  10.415 -0.5581  0.4932 -0.5865
   18SAPC    C1 2293   3.938   4.063  10.390 -0.0935 -0.5384  0.2529
   18SAPC    HA 2294   4.006   3.976  10.382  2.1193  0.9592  1.4938
   18SAPC    HB 2295   3.874   4.043  10.479  1.2594  0.4127  1.4988
   18SAPC    C2 2296   3.847   4.068  10.263  0.4397 -0.0782 -0.9874
   18SAPC    HS 2297   3.853   3.964  10.224  0.8996  0.1172 -1.4487
   18SAPC   O21 2298   3.884   4.166  10.166  0.1378 -0.7950 -0.1248
   18SAPC   C21 2299   4.002   4.151  10.109  0.5477  0.2200  0.3111
   18SAPC   O22 2300   4.074   4.050  10.119  0.2194 -0.1083 -0.1217
   18SAPC   C22 2301   4.025   4.269  10.011 -0.4501 -0.3735 -0.0557
   18SAPC   H2R 2302   3.970   4.364  10.028  1.9844  0.9901  0.7301
   18SAPC   H2S 2303   4.133   4.297  10.017 -1.0876  2.2771  0.5055
   18SAPC    C3 2304   3.699   4.087  10.285  1.4207 -0.5723 -0.4018
   18SAPC    HX 2305   3.690   4.189  10.328  1.0228 -0.7833  0.0334
   18SAPC    HY 2306   3.647   4.025  10.362 -0.8136 -2.3164 -3.1037
   18SAPC   O31 2307   3.622   4.061  10.167 -0.7204  0.4333  0.1274
   18SAPC   C31 2308   3.549   4.159  10.115  0.4086 -0.7246 -0.4311
   18SAPC   O32 2309   3.548   4.273  10.149 -0.0865 -0.1754  0.1326
   18SAPC   C32 2310   3.446   4.114  10.001 -0.2817  0.5721 -0.1721
   18SAPC   H2X 2311   3.499   4.145   9.909  1.2047 -0.5864  0.2473
   18SAPC   H2Y 2312   3.346   4.160  10.014 -0.1671  0.6153  0.6387
   18SAPC   C23 2313   4.007   4.221   9.859  0.9182  0.3948 -0.6720
   18SAPC   H3R 2314   4.071   4.131   9.846  0.3211  0.1040 -1.7596
   18SAPC   H3S 2315   4.057   4.296   9.794  0.9635  0.4090 -0.6212
   18SAPC   C24 2316   3.860   4.179   9.830  0.5774  0.2329 -1.1578
   18SAPC   H4R 2317   3.829   4.120   9.919  3.2601  0.0531 -0.2459
   18SAPC   H4S 2318   3.858   4.107   9.746 -1.1784  1.1325 -1.9280
   18SAPC   C25 2319   3.767   4.293   9.816 -0.0186 -0.8418 -0.1937
   18SAPC   H5R 2320   3.761   4.361   9.902  0.5941 -2.4275  1.1468
   18SAPC   C26 2321   3.686   4.320   9.716  0.0726  0.1887 -0.4012
   18SAPC   H6R 2322   3.624   4.411   9.710 -0.9664 -0.5924 -2.3884
   18SAPC   C27 2323   3.679   4.246   9.583 -0.3448 -0.0631 -0.5688
   18SAPC   H7R 2324   3.744   4.155   9.580 -0.9823 -0.6143  1.3027
   18SAPC   H7S 2325   3.722   4.308   9.501 -1.9861  0.1036 -1.3395
   18SAPC   C28 2326   3.539   4.207   9.549 -0.1137  0.1955  0.2245
   18SAPC   H8R 2327   3.475   4.191   9.637 -1.4992  0.8866 -0.6309
   18SAPC   C29 2328   3.481   4.193   9.432 -0.1524 -0.2837  0.4300
   18SAPC   H9R 2329   3.372   4.176   9.423 -0.3182  0.7279  0.4333
   18SAPC  C210 2330   3.551   4.214   9.298 -0.1792 -0.8780  0.6537
   18SAPC  H10R 2331   3.662   4.210   9.305  0.2521  0.4496 -3.1620
   18SAPC  H10S 2332   3.539   4.318   9.259 -0.6972 -1.2930 -0.3246
   18SAPC  C211 2333   3.508   4.116   9.188  0.6750  0.7939  0.0851
   18SAPC  H11R 2334   3.557   4.017   9.185 -0.4513  0.2285 -0.1589
   18SAPC  C212 2335   3.421   4.133   9.089  0.3912 -0.7690 -0.2365
   18SAPC  H12R 2336   3.391   4.049   9.025 -2.5097 -0.1898  0.1921
   18SAPC  C213 2337   3.350   4.265   9.061  0.4274  0.6614 -0.1855
   18SAPC  H13R 2338   3.358   4.287   8.952 -1.3194 -0.1403 -0.5167
   18SAPC  H13S 2339   3.405   4.347   9.112  1.7153 -1.0474  1.3085
   18SAPC  C214 2340   3.202   4.258   9.106  0.9274 -0.3582 -0.0834
   18SAPC  H14R 2341   3.172   4.194   9.190 -1.2600 -1.4609 -1.5916
   18SAPC  C215 2342   3.102   4.322   9.042  0.2714 -0.7176  0.1702
   18SAPC  H15R 2343   2.996   4.309   9.071  0.5135 -1.3183  0.8280
   18SAPC  C216 2344   3.109   4.405   8.911  0.0077  0.1588  0.1482
   18SAPC  H16R 2345   3.081   4.341   8.825 -1.4058  0.0400  0.6693
   18SAPC  H16S 2346   3.209   4.453   8.898  0.9747 -1.6480  0.5548
   18SAPC  C217 2347   3.000   4.512   8.917 -0.1567 -0.1329 -0.5504
   18SAPC  H17R 2348   3.016   4.573   9.009  1.3672  1.3395 -1.7225
   18SAPC  H17S 2349   2.904   4.457   8.921  0.3674 -1.0440  2.7070
   18SAPC  C218 2350   3.005   4.615   8.807 -0.1870  1.0467  1.1560
   18SAPC  H18R 2351   3.112   4.617   8.778 -0.9602  1.2455 -2.0711
   18SAPC  H18S 2352   2.975   4.706   8.862 -1.6018 -0.8728  3.7762
   18SAPC  C219 2353   2.918   4.592   8.683 -0.9026 -0.2857 -0.3702
   18SAPC  H19R 2354   2.814   4.575   8.719  0.1277 -1.3430  2.4126
   18SAPC  H19S 2355   2.953   4.509   8.618  0.4703  0.6747 -0.9006
   18SAPC  C220 2356   2.912   4.716   8.594 -0.0341  0.5064 -0.3686
   18SAPC  H20R 2357   2.851   4.697   8.502 -0.1267  0.8510 -0.3804
   18SAPC  H20S 2358   3.012   4.734   8.551  0.9149 -1.5158  0.8883
   18SAPC  H20T 2359   2.892   4.814   8.644  2.1918  0.6595  0.3320
   18SAPC   C33 2360   3.442   3.961  10.002  0.3710  0.1272  0.2606
   18SAPC   H3X 2361   3.403   3.926  10.100  0.1144  0.3346  0.2337
   18SAPC   H3Y 2362   3.549   3.933   9.990  1.0644  3.0691 -1.3498
   18SAPC   C34 2363   3.344   3.905   9.901 -0.5752 -0.0865  0.6510
   18SAPC   H4X 2364   3.241   3.941   9.924 -1.0609 -1.4873  0.7902
   18SAPC   H4Y 2365   3.352   3.794   9.911 -0.3349 -0.1362 -0.0263
   18SAPC   C35 2366   3.368   3.942   9.752  0.2312  0.1708 -0.2244
   18SAPC   H5X 2367   3.472   3.911   9.727  0.3676  0.0632  0.4564
   18SAPC   H5Y 2368   3.356   4.052   9.746  0.3991  0.2541  0.7793
   18SAPC   C36 2369   3.265   3.870   9.660 -0.3724  0.1521 -0.4091
   18SAPC   H6X 2370   3.237   3.941   9.580 -0.4710  0.9146  0.2940
   18SAPC   H6Y 2371   3.177   3.837   9.721  0.0143  1.1183  0.7156
   18SAPC   C37 2372   3.314   3.734   9.599  0.5589 -0.1283 -0.6874
   18SAPC   H7X 2373   3.226   3.698   9.542 -0.2084 -1.5691  1.3271
   18SAPC   H7Y 2374   3.320   3.669   9.689 -2.0398 -0.3313 -0.5895
   18SAPC   C38 2375   3.449   3.724   9.523  0.1455 -0.4540  0.2904
   18SAPC   H8X 2376   3.465   3.619   9.491  1.4871 -1.2441  3.2285
   18SAPC   H8Y 2377   3.531   3.735   9.597 -0.1876 -0.9398  0.7405
   18SAPC   C39 2378   3.480   3.825   9.416  0.3964  0.0270 -0.0100
   18SAPC   H9X 2379   3.587   3.803   9.392 -0.5706 -3.0908 -2.0950
   18SAPC   H9Y 2380   3.478   3.932   9.445  1.0496 -0.1608  0.7678
   18SAPC  C310 2381   3.394   3.796   9.295  0.0112  0.1364 -0.8179
   18SAPC  H10X 2382   3.372   3.688   9.287 -2.1230  0.5339 -0.9059
   18SAPC  H10Y 2383   3.447   3.840   9.208  0.4104  1.3047 -0.0116
   18SAPC  C311 2384   3.262   3.871   9.289 -0.3871  0.0436  0.8480
   18SAPC  H11X 2385   3.287   3.979   9.287  0.3417 -0.1264  0.4247
   18SAPC  H11Y 2386   3.201   3.846   9.378 -1.8952 -0.8699 -0.3942
   18SAPC  C312 2387   3.189   3.840   9.156  0.0855 -0.5600 -0.8901
   18SAPC  H12X 2388   3.191   3.736   9.116 -0.3077 -0.0661 -2.2474
   18SAPC  H12Y 2389   3.248   3.902   9.085  1.7280 -0.5873  0.3979
   18SAPC  C313 2390   3.039   3.888   9.166 -0.1459  0.2508  0.5651
   18SAPC  H13X 2391   3.040   3.994   9.199 -0.3894  0.3517  0.2519
   18SAPC  H13Y 2392   2.987   3.838   9.250 -1.2858  1.2392  0.4843
   18SAPC  C314 2393   2.951   3.890   9.038  0.5530 -0.2329 -0.1981
   18SAPC  H14X 2394   3.007   3.958   8.970 -1.2575  0.4755 -1.0551
   18SAPC  H14Y 2395   2.850   3.932   9.060  1.1136  1.8130 -1.2723
   18SAPC  C315 2396   2.945   3.759   8.966 -0.4223 -0.1947  0.8554
   18SAPC  H15X 2397   3.046   3.715   8.951 -0.6553 -0.2386 -0.7313
   18SAPC  H15Y 2398   2.905   3.770   8.863  1.4193  3.1894  0.3724
   18SAPC  C316 2399   2.866   3.655   9.037 -0.4292  0.2387 -0.4115
   18SAPC  H16X 2400   2.927   3.636   9.127  1.6821  0.1679 -1.7860
   18SAPC  H16Y 2401   2.858   3.558   8.984  0.3969 -0.3558  0.5396
   18SAPC  C317 2402   2.723   3.701   9.074  0.1326  1.1543  0.2797
   18SAPC  H17X 2403   2.733   3.780   9.150  1.2169 -0.0592  1.4504
   18SAPC  H17Y 2404   2.669   3.616   9.121  0.3413  0.9418  0.1447
   18SAPC  C318 2405   2.638   3.752   8.961 -0.8458  0.2897  0.5277
   18SAPC  H18X 2406   2.615   3.667   8.893  1.9009 -0.9507  0.9927
   18SAPC  H18Y 2407   2.694   3.832   8.908  0.8701  0.4222  2.4121
   18SAPC  H18Z 2408   2.544   3.798   8.996 -3.0319 -3.7513  0.5984
   19SAPC     N 2409   3.955   0.174  10.473 -0.3214  0.0702  0.1155
   19SAPC   C12 2410   3.821   0.116  10.440  0.1455 -0.2759 -0.3808
   19SAPC  H12A 2411   3.829   0.019  10.393  0.0560 -0.7988  0.6546
   19SAPC  H12B 2412   3.763   0.173  10.369 -2.5244 -2.4123 -0.0765
   19SAPC   C13 2413   4.024   0.087  10.557  0.0440  0.1540 -0.6861
   19SAPC  H13A 2414   3.973   0.076  10.652  0.5532 -0.2648 -0.4498
   19SAPC  H13B 2415   4.037  -0.014  10.521  0.0395 -0.2983  0.5348
   19SAPC  H13C 2416   4.123   0.127  10.573 -0.3255  0.5153  0.9208
   19SAPC   C14 2417   4.033   0.201  10.348 -0.2094 -0.2142  0.6019
   19SAPC  H14A 2418   3.978   0.268  10.283 -0.8955 -2.5235 -1.3629
   19SAPC  H14B 2419   4.129   0.250  10.358  0.2177 -1.1978  1.4347
   19SAPC  H14C 2420   4.049   0.110  10.292  0.7811  0.2850  0.0527
   19SAPC   C15 2421   3.943   0.309  10.547 -0.1587 -0.4287  0.1500
   19SAPC  H15A 2422   4.043   0.347  10.562  0.2950 -0.4770 -2.2923
   19SAPC  H15B 2423   3.886   0.376  10.485 -0.0237 -1.5325 -1.2195
   19SAPC  H15C 2424   3.883   0.289  10.634 -0.1881 -0.9741  0.0078
   19SAPC   C11 2425   3.730   0.092  10.564 -0.0104 -0.1624  0.2348
   19SAPC  H11A 2426   3.697   0.184  10.618  0.1043  0.0542 -0.0602
   19SAPC  H11B 2427   3.777   0.031  10.644  0.0847  2.4918  2.3335
   19SAPC     P 2428   3.599  -0.107  10.449  0.3071 -0.1122  0.0645
   19SAPC   O13 2429   3.729  -0.170  10.405 -0.3201  0.2112 -0.2877
   19SAPC   O14 2430   3.503  -0.195  10.518  0.1828 -0.0089  0.1447
   19SAPC   O12 2431   3.614   0.029  10.524 -0.0549 -0.5756 -0.1136
   19SAPC   O11 2432   3.524  -0.053  10.313  0.2403  0.1316 -0.0619
   19SAPC    C1 2433   3.380  -0.059  10.315  0.3223 -0.0087 -0.3204
   19SAPC    HA 2434   3.336  -0.158  10.338  0.1996  0.7197  3.0597
   19SAPC    HB 2435   3.344   0.003  10.399 -0.0653 -0.5417 -0.0891
   19SAPC    C2 2436   3.307  -0.004  10.189  0.5281  0.5977  0.8016
   19SAPC    HS 2437   3.197   0.007  10.202  0.1992 -1.4947  0.1784
   19SAPC   O21 2438   3.347  -0.085  10.075 -0.5977  0.5430 -0.0045
   19SAPC   C21 2439   3.284  -0.198  10.070 -0.6035 -0.7628  0.3471
   19SAPC   O22 2440   3.188  -0.219  10.139  0.3897  0.9101 -0.7244
   19SAPC   C22 2441   3.354  -0.293   9.978  0.2956  0.3730  0.4073
   19SAPC   H2R 2442   3.385  -0.248   9.881  1.8567 -0.5330  0.4526
   19SAPC   H2S 2443   3.449  -0.316  10.032  0.9324  3.1316  0.6156
   19SAPC    C3 2444   3.355   0.143  10.161 -0.4882 -0.0005 -0.4361
   19SAPC    HX 2445   3.466   0.148  10.158 -0.2543 -3.2301 -1.3339
   19SAPC    HY 2446   3.332   0.199  10.254 -1.3606 -0.9497 -0.0540
   19SAPC   O31 2447   3.293   0.204  10.046  0.1626 -0.5075 -0.4600
   19SAPC   C31 2448   3.354   0.187   9.931  0.0924  0.1871 -0.1483
   19SAPC   O32 2449   3.454   0.124   9.917  0.1080 -0.0406 -0.5199
   19SAPC   C32 2450   3.281   0.267   9.819 -0.4710  0.1571  0.6783
   19SAPC   H2X 2451   3.273   0.374   9.849 -1.7088  0.1053  0.5985
   19SAPC   H2Y 2452   3.178   0.226   9.823 -1.2182  1.6206 -1.3521
   19SAPC   C23 2453   3.274  -0.422   9.958  0.3511  0.3945  0.3065
   19SAPC   H3R 2454   3.208  -0.451  10.042 -1.7345 -2.3115 -2.0442
   19SAPC   H3S 2455   3.352  -0.498   9.941 -0.4466  0.0109 -2.0956
   19SAPC   C24 2456   3.184  -0.431   9.835  0.7534  0.4702  0.2635
   19SAPC   H4R 2457   3.238  -0.373   9.757  0.4624 -1.2607 -1.3002
   19SAPC   H4S 2458   3.076  -0.408   9.836  0.8551  0.9639 -0.1260
   19SAPC   C25 2459   3.190  -0.571   9.778 -0.4148  0.3757 -0.6116
   19SAPC   H5R 2460   3.201  -0.649   9.855  1.1484 -0.5542 -1.7403
   19SAPC   C26 2461   3.188  -0.620   9.658  0.2210 -0.0347 -0.3371
   19SAPC   H6R 2462   3.215  -0.727   9.655 -1.0812 -0.3791 -0.5189
   19SAPC   C27 2463   3.185  -0.546   9.527  0.1774 -0.7868 -0.4249
   19SAPC   H7R 2464   3.266  -0.576   9.457  2.2384  2.9771  0.0482
   19SAPC   H7S 2465   3.221  -0.443   9.548 -0.2483 -0.8615  0.7342
   19SAPC   C28 2466   3.047  -0.531   9.478  0.0818 -0.6892 -0.8177
   19SAPC   H8R 2467   2.967  -0.522   9.552  1.3587 -2.2877  0.8500
   19SAPC   C29 2468   3.013  -0.516   9.350  0.1267 -0.3245  0.0133
   19SAPC   H9R 2469   2.905  -0.526   9.334 -0.3979  0.5920  2.5572
   19SAPC  C210 2470   3.100  -0.516   9.229  0.2824 -0.2619  0.3276
   19SAPC  H10R 2471   3.205  -0.550   9.243  1.3296  2.0358 -1.1814
   19SAPC  H10S 2472   3.113  -0.408   9.206 -0.7733 -0.1373  0.2403
   19SAPC  C211 2473   3.049  -0.587   9.105 -0.0027  0.1493 -0.0791
   19SAPC  H11R 2474   3.024  -0.692   9.121 -0.6375  0.1683 -0.9208
   19SAPC  C212 2475   3.047  -0.554   8.977  1.1387  0.2945 -0.3447
   19SAPC  H12R 2476   3.004  -0.632   8.912  2.2076 -2.0293  1.5878
   19SAPC  C213 2477   3.093  -0.423   8.909  0.3032  0.2611  0.0798
   19SAPC  H13R 2478   3.145  -0.363   8.987  3.7476 -2.7489  0.3865
   19SAPC  H13S 2479   3.001  -0.375   8.868  0.1054  0.1684  0.4114
   19SAPC  C214 2480   3.194  -0.464   8.798 -0.5496 -0.2443  0.0174
   19SAPC  H14R 2481   3.249  -0.555   8.824  0.5147  0.5871  0.7343
   19SAPC  C215 2482   3.206  -0.404   8.679  0.1399  0.7371  0.5372
   19SAPC  H15R 2483   3.281  -0.433   8.603  0.9805  3.9998 -0.0633
   19SAPC  C216 2484   3.138  -0.282   8.626 -0.2395  0.3604  0.4758
   19SAPC  H16R 2485   3.058  -0.245   8.694 -1.2819  0.2837 -0.6663
   19SAPC  H16S 2486   3.087  -0.302   8.529  3.6087  3.0826 -2.3963
   19SAPC  C217 2487   3.232  -0.154   8.602  0.1052  0.1560 -0.3603
   19SAPC  H17R 2488   3.192  -0.089   8.522 -1.0255 -0.8255 -0.6288
   19SAPC  H17S 2489   3.330  -0.192   8.567  0.8744  1.8460 -0.0948
   19SAPC  C218 2490   3.240  -0.075   8.733  0.8353 -0.3468 -0.2455
   19SAPC  H18R 2491   3.332  -0.015   8.718  2.1997 -2.3806 -0.3245
   19SAPC  H18S 2492   3.260  -0.139   8.822 -0.8584 -0.7981 -0.1393
   19SAPC  C219 2493   3.133   0.021   8.778  0.0543 -0.0322 -0.4450
   19SAPC  H19R 2494   3.167   0.056   8.877  0.2729 -0.7876 -0.2426
   19SAPC  H19S 2495   3.036  -0.033   8.792  0.0666  0.2991  0.9830
   19SAPC  C220 2496   3.118   0.143   8.695 -0.0219  0.1782  0.3769
   19SAPC  H20R 2497   3.201   0.216   8.703  0.7171 -0.6508  0.4764
   19SAPC  H20S 2498   3.029   0.194   8.737 -0.5079  1.4322 -1.9711
   19SAPC  H20T 2499   3.099   0.125   8.587 -1.0178  1.3020  0.3473
   19SAPC   C33 2500   3.331   0.237   9.675 -0.2569 -0.0543 -0.0887
   19SAPC   H3X 2501   3.239   0.256   9.615  0.0741 -4.4288 -2.3277
   19SAPC   H3Y 2502   3.350   0.128   9.676 -0.7610 -0.1468 -0.4641
   19SAPC   C34 2503   3.451   0.316   9.626 -0.0317  0.1223  0.7258
   19SAPC   H4X 2504   3.539   0.266   9.671 -1.1719 -2.8261 -0.0740
   19SAPC   H4Y 2505   3.452   0.422   9.659  0.3845  0.1541  0.6086
   19SAPC   C35 2506   3.482   0.300   9.479 -0.1642 -0.2177 -0.0344
   19SAPC   H5X 2507   3.586   0.339   9.476 -1.1564  2.5992 -1.8329
   19SAPC   H5Y 2508   3.416   0.360   9.412  0.4013 -0.8611 -1.1941
   19SAPC   C36 2509   3.474   0.154   9.421  0.1687 -0.6054 -0.2685
   19SAPC   H6X 2510   3.375   0.147   9.372 -0.3170 -1.6162  0.8037
   19SAPC   H6Y 2511   3.490   0.081   9.503  2.5094  0.9155  0.7375
   19SAPC   C37 2512   3.562   0.123   9.293 -0.3345  0.3179 -0.1719
   19SAPC   H7X 2513   3.544   0.023   9.248  0.5819 -0.0298  0.1990
   19SAPC   H7Y 2514   3.667   0.121   9.330 -0.3786 -0.0433 -0.0595
   19SAPC   C38 2515   3.537   0.226   9.183 -0.1707  0.5611 -0.1046
   19SAPC   H8X 2516   3.612   0.212   9.102  0.3588 -0.4341  0.5272
   19SAPC   H8Y 2517   3.548   0.330   9.220 -1.8781  1.5504 -2.1545
   19SAPC   C39 2518   3.404   0.200   9.111  0.4206  0.0969  1.0488
   19SAPC   H9X 2519   3.324   0.241   9.176 -0.1143  1.7944 -0.6046
   19SAPC   H9Y 2520   3.389   0.092   9.091 -0.1480  0.4035 -0.2492
   19SAPC  C310 2521   3.383   0.283   8.979 -0.2674  0.5569  0.0357
   19SAPC  H10X 2522   3.287   0.244   8.938  0.3784 -1.2209  0.1374
   19SAPC  H10Y 2523   3.461   0.263   8.903 -2.9140 -0.3921 -2.6067
   19SAPC  C311 2524   3.381   0.433   9.004  0.3333 -0.8805  0.0198
   19SAPC  H11X 2525   3.483   0.467   9.031 -0.4997  0.9915  1.0445
   19SAPC  H11Y 2526   3.314   0.436   9.093 -1.6975 -1.8907 -1.4174
   19SAPC  C312 2527   3.308   0.520   8.898  0.0253 -0.1348 -0.6872
   19SAPC  H12X 2528   3.343   0.626   8.899 -0.3345 -0.0107 -0.8200
   19SAPC  H12Y 2529   3.201   0.500   8.921  0.4907 -1.5787  0.3395
   19SAPC  C313 2530   3.339   0.483   8.748  0.0026  0.4344  0.3562
   19SAPC  H13X 2531   3.269   0.555   8.701 -2.0122 -2.2206 -1.0024
   19SAPC  H13Y 2532   3.308   0.379   8.725  0.9183  0.3163 -0.4292
   19SAPC  C314 2533   3.480   0.517   8.706  0.0727 -0.0672 -0.2373
   19SAPC  H14X 2534   3.547   0.449   8.764 -0.0156  1.6172  1.9492
   19SAPC  H14Y 2535   3.497   0.619   8.748 -1.9053  0.3314 -0.3349
   19SAPC  C315 2536   3.505   0.513   8.550  0.2923 -0.5018 -0.3440
   19SAPC  H15X 2537   3.612   0.530   8.528 -0.0960  1.8860 -0.6278
   19SAPC  H15Y 2538   3.437   0.589   8.505  0.0258 -0.8389 -0.5213
   19SAPC  C316 2539   3.455   0.378   8.495  0.6164  0.6287 -0.2636
   19SAPC  H16X 2540   3.471   0.376   8.385  0.5053 -3.0837 -0.3417
   19SAPC  H16Y 2541   3.347   0.366   8.519  0.5448 -1.9514 -1.5271
   19SAPC  C317 2542   3.528   0.258   8.564 -0.6758 -0.3831 -0.5417
   19SAPC  H17X 2543   3.513   0.261   8.674  0.0619  1.0623 -0.4654
   19SAPC  H17Y 2544   3.636   0.262   8.539 -0.3706  1.5480  0.8761
   19SAPC  C318 2545   3.472   0.130   8.495  0.6096 -0.4031  0.3836
   19SAPC  H18X 2546   3.500   0.034   8.541  2.0346  0.8148  2.1976
   19SAPC  H18Y 2547   3.503   0.145   8.389  1.7780 -0.0935  0.7503
   19SAPC  H18Z 2548   3.361   0.135   8.491  0.5317 -0.6729  1.8456
   20SAPC     N 2549   1.516   3.548  10.772 -0.6899 -0.2526  0.0144
   20SAPC   C12 2550   1.482   3.427  10.685 -0.1416  0.0711 -0.4890
   20SAPC  H12A 2551   1.409   3.459  10.612  0.1201  2.7275  0.2870
   20SAPC  H12B 2552   1.430   3.356  10.747 -1.7876  0.4218 -1.4077
   20SAPC   C13 2553   1.522   3.671  10.691 -0.4760 -0.4243 -0.1494
   20SAPC  H13A 2554   1.556   3.754  10.750 -0.6430 -0.5711  0.1514
   20SAPC  H13B 2555   1.578   3.659  10.599  0.7189 -0.7554  0.5872
   20SAPC  H13C 2556   1.422   3.695  10.659 -0.3988  0.7442  0.4606
   20SAPC   C14 2557   1.418   3.569  10.878  0.0905  0.2288 -0.4000
   20SAPC  H14A 2558   1.320   3.603  10.847 -1.1897 -0.4893  2.5446
   20SAPC  H14B 2559   1.392   3.480  10.933 -0.2855  0.4840 -0.1579
   20SAPC  H14C 2560   1.460   3.647  10.940  1.4604 -1.4050  0.7924
   20SAPC   C15 2561   1.651   3.535  10.843 -0.1788  0.6514  0.2435
   20SAPC  H15A 2562   1.660   3.623  10.905  0.1905 -0.7767  2.3054
   20SAPC  H15B 2563   1.650   3.439  10.891 -2.1204  0.3980 -0.2022
   20SAPC  H15C 2564   1.734   3.535  10.774 -0.1098 -2.9387  0.1563
   20SAPC   C11 2565   1.603   3.354  10.622 -0.7705 -0.2632  0.1431
   20SAPC  H11A 2566   1.662   3.426  10.562  1.3529 -0.7685  1.5242
   20SAPC  H11B 2567   1.554   3.275  10.561 -0.7656 -0.4146  0.3322
   20SAPC     P 2568   1.675   3.137  10.742 -0.4084  0.0857 -0.2716
   20SAPC   O13 2569   1.773   3.095  10.848  0.0818  0.4740  0.3609
   20SAPC   O14 2570   1.533   3.107  10.772  0.0514 -0.2352  0.3050
   20SAPC   O12 2571   1.697   3.287  10.707 -0.4988 -0.4045 -0.2570
   20SAPC   O11 2572   1.704   3.053  10.615 -0.4241  0.4659  0.1084
   20SAPC    C1 2573   1.830   3.082  10.546  0.2209  0.2595 -0.4771
   20SAPC    HA 2574   1.843   3.191  10.528 -1.1884  0.2122 -1.9459
   20SAPC    HB 2575   1.915   3.049  10.609 -1.3058 -1.9249  0.5869
   20SAPC    C2 2576   1.833   3.007  10.411 -0.4866  0.8463 -0.5462
   20SAPC    HS 2577   1.918   3.050  10.353  2.2133 -2.7533  0.3457
   20SAPC   O21 2578   1.705   3.015  10.340  0.0739  0.4411 -0.2190
   20SAPC   C21 2579   1.679   3.125  10.275  0.5426  0.2466  0.6614
   20SAPC   O22 2580   1.746   3.229  10.277  0.0822  0.2728 -0.1155
   20SAPC   C22 2581   1.550   3.117  10.194 -0.7864  0.2538 -0.3388
   20SAPC   H2R 2582   1.475   3.090  10.271 -2.6295 -2.0185 -2.7768
   20SAPC   H2S 2583   1.522   3.219  10.161 -0.9023  0.6827  0.9892
   20SAPC    C3 2584   1.864   2.858  10.430 -0.8879  0.7178 -0.0591
   20SAPC    HX 2585   1.792   2.798  10.490 -0.1265 -1.1848 -0.9820
   20SAPC    HY 2586   1.954   2.853  10.495 -1.6750 -0.5129  0.9801
   20SAPC   O31 2587   1.884   2.787  10.304  0.7707  0.4390 -0.5181
   20SAPC   C31 2588   2.004   2.801  10.249  0.0136  0.0297 -0.2186
   20SAPC   O32 2589   2.086   2.879  10.300 -0.4511 -0.1367  0.0015
   20SAPC   C32 2590   2.031   2.714  10.131  0.4220 -0.1078  0.4141
   20SAPC   H2X 2591   1.984   2.618  10.161  0.7536 -0.5601 -0.4735
   20SAPC   H2Y 2592   2.138   2.697  10.107  0.0031 -2.2613 -0.1519
   20SAPC   C23 2593   1.548   3.014  10.089  0.0257 -0.0676  0.7662
   20SAPC   H3R 2594   1.446   3.020  10.044  0.5340  2.8681 -0.2008
   20SAPC   H3S 2595   1.566   2.919  10.145 -1.0372  0.2171  1.6282
   20SAPC   C24 2596   1.661   3.030   9.979  0.0285  0.7638 -0.4317
   20SAPC   H4R 2597   1.650   2.943   9.911  0.0281  0.4642 -0.0526
   20SAPC   H4S 2598   1.759   3.011  10.028  0.9330 -0.2530 -2.5169
   20SAPC   C25 2599   1.667   3.167   9.914  0.2731  0.4513  0.5216
   20SAPC   H5R 2600   1.700   3.252   9.976  0.5237  1.0512 -0.4162
   20SAPC   C26 2601   1.624   3.190   9.781 -0.4418  0.4787  0.4519
   20SAPC   H6R 2602   1.638   3.287   9.732 -0.1487  0.7177  1.0028
   20SAPC   C27 2603   1.584   3.077   9.686  0.0890  0.6440  0.2105
   20SAPC   H7R 2604   1.491   3.097   9.627  1.3370  0.1931 -2.0150
   20SAPC   H7S 2605   1.559   2.988   9.747 -0.6680  0.7004  0.0022
   20SAPC   C28 2606   1.688   3.012   9.601  0.1756 -1.2242 -0.3656
   20SAPC   H8R 2607   1.763   2.956   9.659  0.2626 -1.0848 -0.3422
   20SAPC   C29 2608   1.707   3.042   9.474  0.5094 -0.3331  0.0981
   20SAPC   H9R 2609   1.791   2.995   9.422  0.9863  2.1789 -1.5744
   20SAPC  C210 2610   1.638   3.152   9.388  0.6705 -0.3548 -0.1119
   20SAPC  H10R 2611   1.536   3.182   9.420  0.8568  0.9513 -0.6707
   20SAPC  H10S 2612   1.623   3.096   9.293 -0.5533 -0.5178  0.1639
   20SAPC  C211 2613   1.733   3.268   9.360 -0.2565 -0.1697 -0.5640
   20SAPC  H11R 2614   1.757   3.325   9.451 -0.7298  0.5387 -0.8783
   20SAPC  C212 2615   1.795   3.299   9.248  0.5524 -0.7785  0.1768
   20SAPC  H12R 2616   1.879   3.369   9.257 -1.3112  1.3256  2.7243
   20SAPC  C213 2617   1.780   3.218   9.125  0.1087 -0.3199  0.4967
   20SAPC  H13R 2618   1.797   3.111   9.152  0.4438 -0.4253 -0.1248
   20SAPC  H13S 2619   1.872   3.235   9.065  0.0771 -2.0991 -0.1373
   20SAPC  C214 2620   1.660   3.236   9.038  0.2199  0.1750 -0.0371
   20SAPC  H14R 2621   1.587   3.155   9.051  0.1057  0.1603 -0.7212
   20SAPC  C215 2622   1.636   3.314   8.936  0.2454 -0.2647 -0.3571
   20SAPC  H15R 2623   1.533   3.305   8.897 -0.6437  0.0106  1.8370
   20SAPC  C216 2624   1.731   3.409   8.864 -0.2095 -0.4352  0.1989
   20SAPC  H16R 2625   1.748   3.383   8.757 -1.5211  1.6373 -0.5848
   20SAPC  H16S 2626   1.833   3.402   8.908  0.3342 -1.3207 -1.1262
   20SAPC  C217 2627   1.699   3.557   8.861 -0.3761 -0.1261 -0.0653
   20SAPC  H17R 2628   1.776   3.601   8.794 -1.2542  0.4626 -0.7070
   20SAPC  H17S 2629   1.718   3.603   8.961  0.3226  1.3343 -0.8356
   20SAPC  C218 2630   1.559   3.589   8.805 -0.2962 -0.3645  0.5389
   20SAPC  H18R 2631   1.477   3.551   8.870  0.2257 -1.8678  0.3567
   20SAPC  H18S 2632   1.541   3.551   8.703 -1.0935 -2.1497  1.2987
   20SAPC  C219 2633   1.551   3.741   8.799 -0.5395 -1.1128  0.4401
   20SAPC  H19R 2634   1.638   3.778   8.739 -1.2708 -2.4668 -1.5472
   20SAPC  H19S 2635   1.554   3.796   8.896  1.6977 -0.5925  0.1521
   20SAPC  C220 2636   1.423   3.782   8.734  0.2905 -0.0412  0.0227
   20SAPC  H20R 2637   1.333   3.762   8.795  3.4142 -2.5941  4.3324
   20SAPC  H20S 2638   1.412   3.732   8.635  0.8925  0.7873 -0.4864
   20SAPC  H20T 2639   1.422   3.893   8.729 -1.4057  0.0510  1.4817
   20SAPC   C33 2640   1.963   2.769  10.005 -0.9506  0.2603 -0.5099
   20SAPC   H3X 2641   1.855   2.783  10.026 -0.9716 -1.2152  0.5900
   20SAPC   H3Y 2642   1.963   2.693   9.923  3.4492  1.1731 -1.5741
   20SAPC   C34 2643   2.033   2.887   9.943 -0.4098 -1.3531 -0.4677
   20SAPC   H4X 2644   2.034   2.983   9.999  0.6823 -0.9997 -1.0658
   20SAPC   H4Y 2645   1.977   2.922   9.854  0.2898 -0.1002 -0.4403
   20SAPC   C35 2646   2.176   2.842   9.901  0.2434 -0.3176  1.1378
   20SAPC   H5X 2647   2.184   2.732   9.897 -1.5500 -0.5248  2.0518
   20SAPC   H5Y 2648   2.253   2.873   9.976 -2.3859  1.5821  3.2835
   20SAPC   C36 2649   2.205   2.888   9.753  0.0521  0.1892  0.2040
   20SAPC   H6X 2650   2.312   2.866   9.735  0.4895  2.1417  0.2466
   20SAPC   H6Y 2651   2.182   2.996   9.742  1.3496  0.3484 -1.2437
   20SAPC   C37 2652   2.115   2.813   9.650 -0.2843  1.1102 -0.2938
   20SAPC   H7X 2653   2.010   2.842   9.670  0.0220  2.8754 -1.0388
   20SAPC   H7Y 2654   2.133   2.704   9.661  1.4911  1.3786 -0.1042
   20SAPC   C38 2655   2.143   2.855   9.509 -0.0431  0.9265  0.5455
   20SAPC   H8X 2656   2.081   2.794   9.439 -0.7319  0.2459  1.7082
   20SAPC   H8Y 2657   2.245   2.821   9.482 -0.6689  0.3319 -1.2537
   20SAPC   C39 2658   2.108   3.002   9.480 -0.5230 -0.1261  0.0343
   20SAPC   H9X 2659   2.176   3.066   9.542 -0.3328 -0.7438  0.4741
   20SAPC   H9Y 2660   2.005   3.032   9.506 -0.5823 -0.7149  0.4859
   20SAPC  C310 2661   2.129   3.046   9.335 -0.1716  0.1302 -0.2388
   20SAPC  H10X 2662   2.239   3.053   9.321  0.2974  1.1774  3.1154
   20SAPC  H10Y 2663   2.102   3.153   9.324 -2.5175 -0.5345 -1.4953
   20SAPC  C311 2664   2.065   2.962   9.216  0.0826 -0.0537  0.6111
   20SAPC  H11X 2665   1.955   2.958   9.235 -0.1426 -2.7413 -0.7537
   20SAPC  H11Y 2666   2.094   2.855   9.217 -0.1407 -0.1501  2.9477
   20SAPC  C312 2667   2.095   3.020   9.075  0.1545 -0.3068 -0.2484
   20SAPC  H12X 2668   2.194   3.000   9.029  0.0506  0.5288 -0.8593
   20SAPC  H12Y 2669   2.075   3.130   9.079  0.7109 -0.1497 -1.4519
   20SAPC  C313 2670   1.992   2.954   8.977 -0.6687  0.3127  0.0242
   20SAPC  H13X 2671   1.887   2.961   9.012  0.0493  3.0246  1.9108
   20SAPC  H13Y 2672   2.008   2.845   8.964  1.5192  0.8145 -2.2528
   20SAPC  C314 2673   1.990   3.043   8.858 -1.0012 -0.3499  0.1897
   20SAPC  H14X 2674   2.095   3.048   8.821 -0.3137 -2.3924  1.6222
   20SAPC  H14Y 2675   1.960   3.147   8.884  0.0075 -0.2524  1.0435
   20SAPC  C315 2676   1.906   2.987   8.747  0.2582  0.0321  0.2512
   20SAPC  H15X 2677   1.805   2.953   8.779  0.1824  1.7295  2.0015
   20SAPC  H15Y 2678   1.952   2.890   8.718  0.8134  0.8008 -1.5884
   20SAPC  C316 2679   1.887   3.086   8.630 -0.3092 -0.1005  0.1926
   20SAPC  H16X 2680   1.988   3.126   8.608  0.1527 -1.1464  0.3207
   20SAPC  H16Y 2681   1.824   3.173   8.659  0.4936  0.9418 -1.0952
   20SAPC  C317 2682   1.809   3.018   8.512  0.7820 -0.1504  0.8155
   20SAPC  H17X 2683   1.754   3.099   8.460  1.1100 -0.5986 -0.2437
   20SAPC  H17Y 2684   1.733   2.953   8.560 -1.0099 -0.4395 -2.1921
   20SAPC  C318 2685   1.894   2.941   8.417 -0.2736 -0.1261 -0.9934
   20SAPC  H18X 2686   1.930   3.009   8.336  2.2264 -0.1235  0.0334
   20SAPC  H18Y 2687   1.841   2.854   8.373 -2.3560 -0.8620  2.5604
   20SAPC  H18Z 2688   1.983   2.894   8.463 -1.6726 -1.2335  0.7070
   21SAPC     N 2689   1.610   2.750  11.015  0.4667  0.2859  0.4611
   21SAPC   C12 2690   1.495   2.848  10.975 -0.5200  0.7984 -0.4384
   21SAPC  H12A 2691   1.543   2.932  10.928 -0.0928  0.0741 -1.3483
   21SAPC  H12B 2692   1.441   2.878  11.063  0.1472  0.5415  0.0689
   21SAPC   C13 2693   1.693   2.698  10.896  0.0016  0.5470  0.1095
   21SAPC  H13A 2694   1.750   2.775  10.845  1.6664 -0.8632 -0.2544
   21SAPC  H13B 2695   1.765   2.627  10.934 -0.1322  0.3428 -0.0227
   21SAPC  H13C 2696   1.628   2.650  10.824  0.0974 -0.1956  0.5079
   21SAPC   C14 2697   1.697   2.820  11.123 -0.3502 -0.1324 -0.0302
   21SAPC  H14A 2698   1.636   2.828  11.212 -1.5695 -1.0444 -0.7480
   21SAPC  H14B 2699   1.784   2.757  11.137  0.9654  1.2289 -1.6375
   21SAPC  H14C 2700   1.740   2.912  11.086  1.5464 -0.8213  0.3596
   21SAPC   C15 2701   1.552   2.634  11.089  0.3154 -0.3394  0.5331
   21SAPC  H15A 2702   1.515   2.666  11.186 -0.5304 -0.1995  0.1655
   21SAPC  H15B 2703   1.467   2.601  11.032 -1.1907  4.3706 -0.3762
   21SAPC  H15C 2704   1.626   2.560  11.116  2.0897  0.8625 -0.8453
   21SAPC   C11 2705   1.381   2.808  10.874  0.3399  1.1206 -0.1499
   21SAPC  H11A 2706   1.423   2.793  10.772  2.8125 -0.3608  0.9818
   21SAPC  H11B 2707   1.311   2.894  10.876  1.3936  1.9880  0.2222
   21SAPC     P 2708   1.266   2.578  10.827 -0.3336  0.1535 -0.1693
   21SAPC   O13 2709   1.379   2.531  10.735  0.3973 -0.2145  0.2272
   21SAPC   O14 2710   1.207   2.463  10.896 -0.1884 -0.1260 -0.4264
   21SAPC   O12 2711   1.315   2.691  10.926  0.0555 -0.4415  0.0703
   21SAPC   O11 2712   1.151   2.647  10.739 -0.0904 -0.1658  0.0818
   21SAPC    C1 2713   1.189   2.701  10.612 -0.0705  0.0185 -0.0776
   21SAPC    HA 2714   1.166   2.810  10.618 -1.5008 -0.2157 -1.1104
   21SAPC    HB 2715   1.298   2.700  10.588  0.4739  2.6183  1.7334
   21SAPC    C2 2716   1.096   2.646  10.501 -1.1799  0.0429  0.8299
   21SAPC    HS 2717   1.108   2.718  10.417 -0.8393 -1.4126 -0.3940
   21SAPC   O21 2718   0.958   2.644  10.540 -0.4294  0.3927  0.0533
   21SAPC   C21 2719   0.894   2.753  10.574  0.4374 -0.7204  0.6321
   21SAPC   O22 2720   0.945   2.860  10.594 -0.1303 -0.3713 -0.0719
   21SAPC   C22 2721   0.742   2.712  10.580  0.5229  0.2905  0.3178
   21SAPC   H2R 2722   0.726   2.672  10.478 -2.1726 -1.3943  1.3083
   21SAPC   H2S 2723   0.716   2.635  10.655 -1.7856 -0.6308 -1.3030
   21SAPC    C3 2724   1.139   2.511  10.439  0.4171 -0.6245 -0.7966
   21SAPC    HX 2725   1.077   2.481  10.351 -1.0345  2.3261 -0.9399
   21SAPC    HY 2726   1.119   2.433  10.514 -0.1462  0.6499  0.4232
   21SAPC   O31 2727   1.280   2.504  10.412  0.0251 -0.1922 -0.0337
   21SAPC   C31 2728   1.312   2.580  10.301 -0.4963  0.2760  0.0251
   21SAPC   O32 2729   1.229   2.641  10.239  0.0223  0.2980 -0.4516
   21SAPC   C32 2730   1.462   2.561  10.271 -0.2010  0.8161  0.2139
   21SAPC   H2X 2731   1.495   2.473  10.330  2.3510  2.0057  0.6891
   21SAPC   H2Y 2732   1.518   2.651  10.303  2.0734 -0.3746 -0.2166
   21SAPC   C23 2733   0.645   2.830  10.594  0.0602  0.3066  0.1707
   21SAPC   H3R 2734   0.656   2.887  10.689  0.4373  2.0792 -0.8894
   21SAPC   H3S 2735   0.542   2.789  10.588  0.3953 -0.5492  0.1234
   21SAPC   C24 2736   0.659   2.936  10.483  0.3080  0.3201  0.4319
   21SAPC   H4R 2737   0.760   2.982  10.478  2.0041 -2.9898  1.7273
   21SAPC   H4S 2738   0.589   3.021  10.503  0.3194  0.5067 -0.2953
   21SAPC   C25 2739   0.621   2.875  10.349 -0.3264  0.4148  0.0233
   21SAPC   H5R 2740   0.517   2.840  10.337  0.1202 -1.5940  1.6221
   21SAPC   C26 2741   0.692   2.873  10.235 -0.7516 -0.0337 -0.2085
   21SAPC   H6R 2742   0.641   2.833  10.145 -0.5610 -1.1444  0.1634
   21SAPC   C27 2743   0.833   2.925  10.219 -0.4315  0.5081  0.2906
   21SAPC   H7R 2744   0.878   2.980  10.304  2.2364 -1.4931  0.3165
   21SAPC   H7S 2745   0.836   2.997  10.134 -0.0144  1.4572  1.0945
   21SAPC   C28 2746   0.932   2.815  10.187 -0.5283  0.6315 -0.4812
   21SAPC   H8R 2747   0.937   2.732  10.259  0.4621  2.1289  1.2717
   21SAPC   C29 2748   1.030   2.823  10.093  0.6682  0.0125 -0.2218
   21SAPC   H9R 2749   1.095   2.736  10.078  1.2236  0.3725  0.0563
   21SAPC  C210 2750   1.051   2.940  10.003  0.7720  0.5922 -0.5738
   21SAPC  H10R 2751   1.080   3.033  10.055 -0.0080  0.2947  0.4308
   21SAPC  H10S 2752   0.958   2.970   9.950  1.0787  2.8245  0.0443
   21SAPC  C211 2753   1.139   2.917   9.884 -0.0324 -0.0469 -0.0057
   21SAPC  H11R 2754   1.144   2.814   9.845 -4.2186 -0.7985  0.9790
   21SAPC  C212 2755   1.222   3.004   9.831 -0.7807 -0.4406  0.4982
   21SAPC  H12R 2756   1.277   2.972   9.741  0.0331  0.5587  0.6358
   21SAPC  C213 2757   1.253   3.151   9.857  0.9061 -0.0876 -0.3161
   21SAPC  H13R 2758   1.353   3.160   9.905  1.7853  3.0965 -2.4303
   21SAPC  H13S 2759   1.167   3.181   9.921 -0.9712 -0.9371 -2.2978
   21SAPC  C214 2760   1.256   3.246   9.746  0.0661  0.3263  0.3763
   21SAPC  H14R 2761   1.362   3.268   9.728 -0.0946  1.5607  0.8279
   21SAPC  C215 2762   1.174   3.305   9.656 -0.0264  0.0870 -0.3098
   21SAPC  H15R 2763   1.212   3.367   9.573  0.7266  1.6932  1.1706
   21SAPC  C216 2764   1.026   3.282   9.657 -0.4208 -0.0383 -0.1125
   21SAPC  H16R 2765   0.958   3.365   9.687 -0.3263  0.0966 -0.2653
   21SAPC  H16S 2766   0.995   3.186   9.702  1.5706 -1.2445 -1.1350
   21SAPC  C217 2767   0.988   3.252   9.512 -0.5039 -0.7343 -0.0164
   21SAPC  H17R 2768   1.051   3.171   9.468  0.5799  0.4791 -0.7568
   21SAPC  H17S 2769   1.012   3.342   9.452  0.3194 -0.1900  1.1013
   21SAPC  C218 2770   0.845   3.211   9.492  0.3262 -0.1500  0.3144
   21SAPC  H18R 2771   0.831   3.177   9.387  0.0038 -0.6136  0.5035
   21SAPC  H18S 2772   0.775   3.294   9.511 -0.2750 -0.5499 -0.1249
   21SAPC  C219 2773   0.785   3.101   9.581  0.1462  0.0693  0.5818
   21SAPC  H19R 2774   0.684   3.098   9.535  0.0327 -1.8494  0.8475
   21SAPC  H19S 2775   0.772   3.141   9.683 -0.3792  1.3846  0.0157
   21SAPC  C220 2776   0.854   2.967   9.578  0.3967  0.6975  0.1309
   21SAPC  H20R 2777   0.793   2.907   9.648  0.7739  2.7472  2.3805
   21SAPC  H20S 2778   0.954   2.985   9.625  1.5239 -1.9877 -1.0416
   21SAPC  H20T 2779   0.872   2.931   9.474 -0.4187 -0.1624  0.2866
   21SAPC   C33 2780   1.489   2.529  10.113 -0.1518 -0.1447 -0.5169
   21SAPC   H3X 2781   1.416   2.456  10.072 -2.5697  0.6685  2.0473
   21SAPC   H3Y 2782   1.586   2.475  10.110  0.9059  1.3890  2.1017
   21SAPC   C34 2783   1.483   2.653  10.022 -0.5056  0.6525  0.0165
   21SAPC   H4X 2784   1.552   2.731  10.060  0.0953 -0.7313  1.9055
   21SAPC   H4Y 2785   1.381   2.696  10.029 -0.0745  1.6820  0.2140
   21SAPC   C35 2786   1.501   2.627   9.868 -0.0621  0.2056  0.5067
   21SAPC   H5X 2787   1.464   2.716   9.812  1.9209  0.6550 -0.1814
   21SAPC   H5Y 2788   1.437   2.543   9.834 -0.8248  1.3170 -0.8970
   21SAPC   C36 2789   1.651   2.622   9.836 -1.4353 -0.6359  0.7864
   21SAPC   H6X 2790   1.703   2.539   9.889 -2.6297 -0.4961  2.2602
   21SAPC   H6Y 2791   1.687   2.722   9.867 -0.6183 -1.1790  1.6137
   21SAPC   C37 2792   1.684   2.591   9.689  0.6466 -0.4872 -0.0413
   21SAPC   H7X 2793   1.637   2.672   9.629 -0.2562 -0.5646  0.5313
   21SAPC   H7Y 2794   1.630   2.501   9.653 -2.0692  1.5827 -1.5766
   21SAPC   C38 2795   1.830   2.575   9.659 -0.0758  0.5048  0.5724
   21SAPC   H8X 2796   1.877   2.489   9.711  0.6062 -0.3948 -1.4074
   21SAPC   H8Y 2797   1.886   2.667   9.684  0.3268 -0.1823  2.3779
   21SAPC   C39 2798   1.850   2.543   9.509  0.5678  0.5658 -0.2501
   21SAPC   H9X 2799   1.816   2.444   9.472  0.3795 -0.4781  2.5320
   21SAPC   H9Y 2800   1.960   2.553   9.496  1.0264 -2.1245  0.9897
   21SAPC  C310 2801   1.802   2.651   9.408  0.6779  0.8521  0.5120
   21SAPC  H10X 2802   1.854   2.746   9.432  0.9419  0.6945  0.5689
   21SAPC  H10Y 2803   1.693   2.671   9.409  0.1053 -1.3829 -2.6402
   21SAPC  C311 2804   1.837   2.622   9.270  0.0486  0.2364  0.8466
   21SAPC  H11X 2805   1.809   2.521   9.233 -0.5301  0.9164 -0.6608
   21SAPC  H11Y 2806   1.948   2.615   9.260  0.0549  1.4209  0.0024
   21SAPC  C312 2807   1.794   2.719   9.159  0.3045  0.3062 -0.0624
   21SAPC  H12X 2808   1.827   2.677   9.062 -0.5565 -0.5159 -0.0094
   21SAPC  H12Y 2809   1.859   2.809   9.168 -1.2006  1.3252  1.2073
   21SAPC  C313 2810   1.649   2.755   9.140 -0.4874  0.2086  0.4587
   21SAPC  H13X 2811   1.625   2.827   9.221 -1.0460 -0.4569  0.9006
   21SAPC  H13Y 2812   1.582   2.667   9.147 -1.4098  0.7124 -1.3739
   21SAPC  C314 2813   1.608   2.819   9.007  0.0504 -0.5269 -0.3464
   21SAPC  H14X 2814   1.591   2.743   8.927 -0.2216  0.0502 -0.8458
   21SAPC  H14Y 2815   1.682   2.897   8.979  1.4795 -1.6251  0.2261
   21SAPC  C315 2816   1.483   2.903   9.037  0.3575 -0.3021  0.1830
   21SAPC  H15X 2817   1.491   2.998   9.094 -0.0520  0.2567 -0.6659
   21SAPC  H15Y 2818   1.415   2.840   9.098 -1.2692 -0.3156 -1.5338
   21SAPC  C316 2819   1.406   2.924   8.906  0.0567 -0.0578 -0.3569
   21SAPC  H16X 2820   1.302   2.954   8.931 -0.4332 -0.3440 -1.9333
   21SAPC  H16Y 2821   1.413   2.822   8.862  0.7182  0.7312 -2.2072
   21SAPC  C317 2822   1.461   3.021   8.802  0.1867  0.3126 -0.6542
   21SAPC  H17X 2823   1.571   3.017   8.798  0.2157  0.8305 -0.4473
   21SAPC  H17Y 2824   1.447   3.122   8.847  1.2581  0.1851 -0.0080
   21SAPC  C318 2825   1.403   3.022   8.662  0.8177  0.1221 -0.2904
   21SAPC  H18X 2826   1.417   2.929   8.603 -0.2873  0.0122 -0.4072
   21SAPC  H18Y 2827   1.447   3.105   8.602  1.2071  0.7011  0.7658
   21SAPC  H18Z 2828   1.292   3.031   8.663  0.7464  0.0872  2.7800
   22SAPC     N 2829   2.521   0.233  10.919 -0.7139 -0.2680 -0.0967
   22SAPC   C12 2830   2.413   0.135  10.870 -0.5133 -0.1049 -0.6288
   22SAPC  H12A 2831   2.320   0.142  10.924  0.1456 -3.2404  1.2268
   22SAPC  H12B 2832   2.456   0.039  10.895  1.8006  1.2718  1.0618
   22SAPC   C13 2833   2.659   0.190  10.866 -0.2792 -0.2533 -0.2392
   22SAPC  H13A 2834   2.677   0.087  10.894 -1.1305  0.0057  1.3892
   22SAPC  H13B 2835   2.667   0.204  10.760  0.7964 -1.2349 -0.3107
   22SAPC  H13C 2836   2.735   0.250  10.915 -1.2157 -0.4366  1.5080
   22SAPC   C14 2837   2.488   0.373  10.880 -0.0047  0.0644 -0.2367
   22SAPC  H14A 2838   2.467   0.384  10.775  0.5110  1.0409 -0.2549
   22SAPC  H14B 2839   2.403   0.414  10.933  0.1060  0.3098 -0.2455
   22SAPC  H14C 2840   2.567   0.442  10.909 -1.4816  1.8074 -0.1725
   22SAPC   C15 2841   2.527   0.225  11.071  0.5193  0.1226  0.6671
   22SAPC  H15A 2842   2.612   0.274  11.115 -0.7749  2.8129  0.3875
   22SAPC  H15B 2843   2.432   0.258  11.110  0.9011  1.5640  0.4214
   22SAPC  H15C 2844   2.540   0.121  11.097  0.5964  0.1980  0.9263
   22SAPC   C11 2845   2.392   0.123  10.719 -0.1870  0.7941  0.3661
   22SAPC  H11A 2846   2.325   0.041  10.685  0.0940  0.2142  1.1711
   22SAPC  H11B 2847   2.492   0.113  10.673 -1.2166 -0.6725 -1.7062
   22SAPC     P 2848   2.195   0.274  10.691  0.1755  0.5757 -0.1691
   22SAPC   O13 2849   2.128   0.160  10.759  0.1230  0.0739 -0.4827
   22SAPC   O14 2850   2.177   0.405  10.753 -0.0216 -0.7031 -0.0534
   22SAPC   O12 2851   2.345   0.246  10.666  0.1314  0.3073  0.2846
   22SAPC   O11 2852   2.134   0.292  10.548 -0.1674  0.0348 -0.1188
   22SAPC    C1 2853   2.133   0.181  10.453  0.3133 -0.0159  0.6250
   22SAPC    HA 2854   2.230   0.127  10.463  1.7742  2.7777  3.7485
   22SAPC    HB 2855   2.056   0.105  10.477  1.1924 -1.1118  0.0750
   22SAPC    C2 2856   2.104   0.235  10.311 -0.1497  0.0818 -0.2921
   22SAPC    HS 2857   2.039   0.323  10.330  0.4572  0.3980  0.3644
   22SAPC   O21 2858   2.047   0.127  10.232 -0.2437  0.5007 -0.2413
   22SAPC   C21 2859   1.971   0.174  10.138  0.2596 -0.3622 -0.3476
   22SAPC   O22 2860   1.923   0.290  10.139 -0.1014  0.6423  0.0354
   22SAPC   C22 2861   1.966   0.079  10.020  0.1993 -0.4890  0.4730
   22SAPC   H2R 2862   1.997  -0.022  10.052 -1.2482 -1.1894 -0.2515
   22SAPC   H2S 2863   1.859   0.078   9.989 -0.1819  3.0152  1.1936
   22SAPC    C3 2864   2.231   0.280  10.243  0.5744 -0.7900  0.5135
   22SAPC    HX 2865   2.297   0.194  10.216 -1.4652 -2.6008  0.9893
   22SAPC    HY 2866   2.288   0.343  10.314 -0.2214 -1.3860  1.7184
   22SAPC   O31 2867   2.191   0.357  10.132  0.3259  0.1151 -0.6040
   22SAPC   C31 2868   2.279   0.417  10.066 -0.0277  0.4209  0.6536
   22SAPC   O32 2869   2.399   0.420  10.086  0.0721  0.2618  0.4461
   22SAPC   C32 2870   2.202   0.479   9.937 -0.4029  0.1062 -0.6236
   22SAPC   H2X 2871   2.193   0.589   9.951  1.0649  0.0408  1.4173
   22SAPC   H2Y 2872   2.100   0.435   9.940  0.6106 -2.3879 -0.4648
   22SAPC   C23 2873   2.052   0.129   9.900  0.6731  0.2443  0.7794
   22SAPC   H3R 2874   2.160   0.110   9.916  0.6298 -2.4593 -1.3732
   22SAPC   H3S 2875   2.038   0.238   9.883 -0.1502  0.4887  2.7916
   22SAPC   C24 2876   2.017   0.049   9.766 -0.0048 -0.8148 -0.1885
   22SAPC   H4R 2877   2.004  -0.058   9.793 -0.7462 -0.6340  0.2049
   22SAPC   H4S 2878   2.111   0.045   9.707  0.7671 -1.5337  1.0443
   22SAPC   C25 2879   1.897   0.099   9.691 -0.5804 -1.4404 -0.1272
   22SAPC   H5R 2880   1.811   0.141   9.746 -2.2252  0.1414 -3.6222
   22SAPC   C26 2881   1.886   0.114   9.552 -0.1924  0.3788  0.1196
   22SAPC   H6R 2882   1.796   0.165   9.514 -1.4953 -0.3396  2.0844
   22SAPC   C27 2883   1.994   0.076   9.456 -0.1148  0.0519  0.1413
   22SAPC   H7R 2884   1.976  -0.031   9.434 -1.4672  0.7788 -2.9884
   22SAPC   H7S 2885   2.093   0.099   9.500  0.8903  0.1374 -2.0102
   22SAPC   C28 2886   1.980   0.136   9.321 -0.2099 -1.2238  0.5908
   22SAPC   H8R 2887   2.059   0.210   9.301 -0.3648 -1.2615 -0.1939
   22SAPC   C29 2888   1.894   0.104   9.224  0.2048  0.1478 -0.1597
   22SAPC   H9R 2889   1.901   0.170   9.136  0.0145  0.7870  0.2970
   22SAPC  C210 2890   1.785  -0.001   9.219 -0.7406 -0.0905  0.2659
   22SAPC  H10R 2891   1.681   0.038   9.219  0.3971  3.3225  0.7480
   22SAPC  H10S 2892   1.787  -0.065   9.310  0.4096 -0.4630 -0.0020
   22SAPC  C211 2893   1.792  -0.088   9.101 -0.4718 -0.3182  0.3715
   22SAPC  H11R 2894   1.835  -0.189   9.111  0.6279 -0.0114 -1.0380
   22SAPC  C212 2895   1.760  -0.057   8.974 -0.1621  0.5251  0.2310
   22SAPC  H12R 2896   1.778  -0.136   8.899  0.3345  0.1242  0.7666
   22SAPC  C213 2897   1.711   0.081   8.929 -0.2919  0.0382  0.3609
   22SAPC  H13R 2898   1.804   0.141   8.924  0.6755 -1.4003  0.5329
   22SAPC  H13S 2899   1.643   0.119   9.009  0.1882 -1.0478  1.3274
   22SAPC  C214 2900   1.639   0.064   8.801 -0.0648 -0.0929  0.0119
   22SAPC  H14R 2901   1.530   0.055   8.815 -0.0817 -1.6695 -0.9105
   22SAPC  C215 2902   1.682   0.064   8.677 -0.2969  0.0469 -0.2330
   22SAPC  H15R 2903   1.609   0.041   8.598 -0.5639 -0.8326  0.2610
   22SAPC  C216 2904   1.830   0.085   8.628 -0.2048 -0.0675 -0.0376
   22SAPC  H16R 2905   1.853   0.005   8.555 -0.3994 -1.6363  1.5455
   22SAPC  H16S 2906   1.904   0.066   8.709 -0.9707 -1.8346  0.2920
   22SAPC  C217 2907   1.863   0.219   8.564  0.5006  0.0098  0.3328
   22SAPC  H17R 2908   1.968   0.209   8.528  0.6677 -0.5571  0.9543
   22SAPC  H17S 2909   1.865   0.301   8.639 -2.1111  0.3712  0.0904
   22SAPC  C218 2910   1.774   0.240   8.440 -0.0565 -0.3725  1.0625
   22SAPC  H18R 2911   1.668   0.252   8.474 -0.4905  3.0583 -1.0725
   22SAPC  H18S 2912   1.774   0.158   8.365  0.1074  0.2969  0.3277
   22SAPC  C219 2913   1.821   0.356   8.354  0.4542  0.5381 -0.0459
   22SAPC  H19R 2914   1.778   0.338   8.253 -1.7590 -2.5778  1.2769
   22SAPC  H19S 2915   1.932   0.354   8.348  0.3843 -0.8533 -2.1156
   22SAPC  C220 2916   1.772   0.490   8.415  0.5232  0.5528 -0.0883
   22SAPC  H20R 2917   1.662   0.497   8.426  0.5211 -0.1888  0.4532
   22SAPC  H20S 2918   1.802   0.563   8.337  1.7282  0.8542  0.6239
   22SAPC  H20T 2919   1.819   0.500   8.515  0.2442  0.5918  0.0407
   22SAPC   C33 2920   2.275   0.424   9.812 -0.1648  0.6548 -0.0938
   22SAPC   H3X 2921   2.330   0.330   9.837 -0.5674 -0.4054 -2.9202
   22SAPC   H3Y 2922   2.352   0.501   9.792 -0.5558  1.1685  0.3530
   22SAPC   C34 2923   2.180   0.408   9.688  0.4645 -0.5540  0.0997
   22SAPC   H4X 2924   2.077   0.443   9.712 -0.4647 -2.5132 -0.7604
   22SAPC   H4Y 2925   2.170   0.298   9.677 -1.0141 -0.6019  1.6256
   22SAPC   C35 2926   2.220   0.482   9.553  0.4304 -0.1593  0.4138
   22SAPC   H5X 2927   2.322   0.452   9.520 -0.1620 -0.5926 -1.1147
   22SAPC   H5Y 2928   2.224   0.589   9.580 -0.1050  0.4205 -1.6452
   22SAPC   C36 2929   2.121   0.456   9.442  0.0870  0.2246  0.2030
   22SAPC   H6X 2930   2.031   0.517   9.461  0.4612  1.4737 -1.7040
   22SAPC   H6Y 2931   2.103   0.346   9.441 -1.3696  0.4013 -2.6209
   22SAPC   C37 2932   2.178   0.508   9.312  0.5011 -0.2283 -0.0177
   22SAPC   H7X 2933   2.277   0.464   9.287  1.0497  1.2022 -0.5170
   22SAPC   H7Y 2934   2.205   0.616   9.317  1.1653 -0.4250  0.9056
   22SAPC   C38 2935   2.080   0.482   9.195 -0.0451 -0.8058  0.1767
   22SAPC   H8X 2936   1.976   0.512   9.220 -0.2896 -0.1853 -1.4939
   22SAPC   H8Y 2937   2.071   0.375   9.165  0.4124 -0.3540 -1.6573
   22SAPC   C39 2938   2.135   0.562   9.076  0.2264  0.4136 -0.4514
   22SAPC   H9X 2939   2.246   0.560   9.084  0.1400  0.5424  1.1417
   22SAPC   H9Y 2940   2.100   0.667   9.081  1.7696  1.0101 -1.3271
   22SAPC  C310 2941   2.084   0.534   8.931 -0.8743 -0.3401  0.5404
   22SAPC  H10X 2942   2.151   0.597   8.867  1.7798 -0.5459  2.9093
   22SAPC  H10Y 2943   1.980   0.569   8.915 -0.1364  0.6650 -3.2562
   22SAPC  C311 2944   2.100   0.392   8.876 -0.3880  0.1547 -0.5906
   22SAPC  H11X 2945   2.016   0.390   8.803 -0.0217 -0.6785 -1.0036
   22SAPC  H11Y 2946   2.083   0.312   8.952 -0.2976  2.2451  1.7504
   22SAPC  C312 2947   2.236   0.363   8.804  0.0263  0.1319  0.4052
   22SAPC  H12X 2948   2.224   0.257   8.773 -0.8844  0.5016 -0.5677
   22SAPC  H12Y 2949   2.321   0.353   8.874 -0.7179 -2.5936  1.0428
   22SAPC  C313 2950   2.280   0.454   8.689 -0.1178 -0.2292 -0.3441
   22SAPC  H13X 2951   2.365   0.393   8.651 -0.8382 -1.5288  0.0860
   22SAPC  H13Y 2952   2.320   0.551   8.727 -0.2400 -0.4203  0.2839
   22SAPC  C314 2953   2.182   0.488   8.581 -0.3273  0.5740  0.5617
   22SAPC  H14X 2954   2.090   0.545   8.607  0.4690  2.5365 -0.7516
   22SAPC  H14Y 2955   2.150   0.394   8.531 -1.3989  0.7689  0.8430
   22SAPC  C315 2956   2.242   0.557   8.457  0.3966 -0.5454 -0.3960
   22SAPC  H15X 2957   2.169   0.595   8.383  1.8590 -0.4885 -1.8490
   22SAPC  H15Y 2958   2.310   0.490   8.402 -0.3086 -1.5123 -0.1238
   22SAPC  C316 2959   2.327   0.683   8.495 -0.0664 -0.3669  0.2119
   22SAPC  H16X 2960   2.403   0.668   8.574  0.5803  0.5962 -0.2044
   22SAPC  H16Y 2961   2.254   0.760   8.530 -0.4446 -0.5598 -0.1584
   22SAPC  C317 2962   2.400   0.738   8.372 -0.5729  0.2546  0.2911
   22SAPC  H17X 2963   2.439   0.839   8.397  1.6109 -0.5896  0.5051
   22SAPC  H17Y 2964   2.337   0.739   8.281  0.7646 -1.3231 -0.6878
   22SAPC  C318 2965   2.522   0.663   8.332  0.1590 -0.2595  0.3121
   22SAPC  H18X 2966   2.502   0.556   8.313 -1.3012  0.1917 -0.9604
   22SAPC  H18Y 2967   2.608   0.672   8.402 -1.3917  0.2699  2.2260
   22SAPC  H18Z 2968   2.557   0.695   8.231  0.3611  0.8848  0.7293
   23SAPC     N 2969   3.526   1.313  10.942 -0.1771  0.3324 -0.4512
   23SAPC   C12 2970   3.550   1.244  10.812 -0.6307  0.3358  0.2730
   23SAPC  H12A 2971   3.457   1.250  10.759 -0.3398  0.0144 -0.2795
   23SAPC  H12B 2972   3.560   1.139  10.837 -2.8181 -0.6704 -2.5465
   23SAPC   C13 2973   3.476   1.453  10.910  0.0322  0.4334  0.8170
   23SAPC  H13A 2974   3.375   1.446  10.871 -0.0313  1.5343  0.7498
   23SAPC  H13B 2975   3.479   1.511  11.001  0.2187  0.3574  0.8594
   23SAPC  H13C 2976   3.546   1.486  10.834 -0.5012  1.9324  0.9360
   23SAPC   C14 2977   3.431   1.246  11.039  0.6830  0.3824 -0.0214
   23SAPC  H14A 2978   3.327   1.246  11.008 -0.4346  1.3073  3.2744
   23SAPC  H14B 2979   3.451   1.141  11.054 -2.1170 -0.3839 -0.9173
   23SAPC  H14C 2980   3.440   1.287  11.138 -0.6851  2.2163 -0.5879
   23SAPC   C15 2981   3.657   1.328  11.014  0.1331  0.6587  0.0438
   23SAPC  H15A 2982   3.727   1.351  10.935  0.4169 -0.2793  0.0050
   23SAPC  H15B 2983   3.656   1.394  11.099  1.0411  1.7856 -0.7718
   23SAPC  H15C 2984   3.679   1.232  11.058 -1.9688  1.3751  2.9072
   23SAPC   C11 2985   3.668   1.285  10.718 -0.5496 -0.1019 -0.7991
   23SAPC  H11A 2986   3.682   1.211  10.636  1.4245  0.2859 -0.8770
   23SAPC  H11B 2987   3.764   1.276  10.774 -0.9162 -5.1004 -0.5396
   23SAPC     P 2988   3.576   1.436  10.521 -0.3980 -0.2440 -0.1913
   23SAPC   O13 2989   3.441   1.369  10.535 -0.3327  0.3999 -0.9872
   23SAPC   O14 2990   3.573   1.580  10.489  0.0469 -0.0798  0.0876
   23SAPC   O12 2991   3.650   1.419  10.663 -0.7688 -0.2713  0.3853
   23SAPC   O11 2992   3.661   1.349  10.418 -0.4028  0.3244  0.4892
   23SAPC    C1 2993   3.800   1.375  10.409 -0.5660  0.5192  0.1891
   23SAPC    HA 2994   3.849   1.393  10.507 -0.1871 -4.5667  1.2197
   23SAPC    HB 2995   3.847   1.283  10.368 -0.2181  1.3410 -1.2979
   23SAPC    C2 2996   3.831   1.489  10.309 -0.5377 -0.9139 -0.6111
   23SAPC    HS 2997   3.778   1.580  10.344  1.0463 -0.3019  0.2951
   23SAPC   O21 2998   3.770   1.445  10.180  0.0623 -0.1518 -0.1080
   23SAPC   C21 2999   3.763   1.547  10.100  0.2854  0.2671  0.2520
   23SAPC   O22 3000   3.818   1.657  10.117  0.7115 -0.5050 -0.2486
   23SAPC   C22 3001   3.663   1.517   9.980  0.3146 -0.2884  0.4996
   23SAPC   H2R 3002   3.592   1.441  10.020  0.9867 -1.4984 -0.5398
   23SAPC   H2S 3003   3.612   1.608   9.942 -1.1298 -0.8502  1.0004
   23SAPC    C3 3004   3.987   1.516  10.319  0.3198 -0.3317 -0.1085
   23SAPC    HX 3005   3.999   1.537  10.428  0.4658  0.1767 -0.2195
   23SAPC    HY 3006   4.004   1.615  10.271 -3.4144  1.2178  1.3888
   23SAPC   O31 3007   4.063   1.401  10.276  0.3397 -0.4097  0.5394
   23SAPC   C31 3008   4.178   1.372  10.333  0.3694 -0.6246 -0.5992
   23SAPC   O32 3009   4.226   1.422  10.434  0.2918 -0.1895  0.0709
   23SAPC   C32 3010   4.256   1.270  10.251 -0.0277  0.7334  0.2346
   23SAPC   H2X 3011   4.217   1.166  10.248  3.7298 -0.8583  0.4987
   23SAPC   H2Y 3012   4.354   1.255  10.302 -0.2878 -2.8372 -0.0018
   23SAPC   C23 3013   3.746   1.449   9.875  0.3517  0.1748 -0.4975
   23SAPC   H3R 3014   3.802   1.357   9.903  0.1567  0.5219  1.1574
   23SAPC   H3S 3015   3.816   1.527   9.839  1.5616 -0.0559  1.2394
   23SAPC   C24 3016   3.662   1.411   9.751 -0.2365 -0.5979  0.3586
   23SAPC   H4R 3017   3.616   1.498   9.700  2.6410  0.6650 -0.2564
   23SAPC   H4S 3018   3.576   1.355   9.793 -0.1601 -0.7068  0.3708
   23SAPC   C25 3019   3.754   1.334   9.658  1.2356  0.5410  0.2653
   23SAPC   H5R 3020   3.807   1.245   9.696  1.4969 -0.6152 -2.5576
   23SAPC   C26 3021   3.786   1.366   9.531  0.3070 -0.8547 -0.7090
   23SAPC   H6R 3022   3.856   1.304   9.473  2.2950  1.8329 -1.4113
   23SAPC   C27 3023   3.758   1.495   9.452 -0.6883 -0.4177  0.2195
   23SAPC   H7R 3024   3.839   1.514   9.378 -0.6682  1.7890  0.7391
   23SAPC   H7S 3025   3.775   1.581   9.520 -0.7039 -0.4208  0.2272
   23SAPC   C28 3026   3.611   1.496   9.400  0.2820 -0.0721 -0.4914
   23SAPC   H8R 3027   3.537   1.492   9.482 -0.4812 -0.6180 -1.1913
   23SAPC   C29 3028   3.560   1.491   9.275  0.8240 -0.0397  0.3974
   23SAPC   H9R 3029   3.452   1.470   9.276  0.8576 -0.3386 -0.8781
   23SAPC  C210 3030   3.631   1.487   9.143  0.6329 -0.2477 -0.0109
   23SAPC  H10R 3031   3.558   1.459   9.065  1.1453  0.0237 -0.6009
   23SAPC  H10S 3032   3.709   1.408   9.142  2.1589  1.1621 -1.2538
   23SAPC  C211 3033   3.696   1.605   9.083 -0.0774  0.0053 -0.5326
   23SAPC  H11R 3034   3.760   1.671   9.143 -1.9210  1.2113  0.1983
   23SAPC  C212 3035   3.677   1.658   8.954  0.0758 -0.3403 -0.2681
   23SAPC  H12R 3036   3.733   1.746   8.918 -0.9415  0.1294 -0.7643
   23SAPC  C213 3037   3.588   1.609   8.843  0.0832  0.5653  0.6320
   23SAPC  H13R 3038   3.570   1.690   8.769  0.0193  1.6944  1.8562
   23SAPC  H13S 3039   3.485   1.580   8.873  1.4916 -4.9178  1.2954
   23SAPC  C214 3040   3.642   1.484   8.773 -0.1850 -0.2116  0.1922
   23SAPC  H14R 3041   3.711   1.422   8.832 -0.7151 -0.8762  0.1346
   23SAPC  C215 3042   3.613   1.440   8.645  0.1168  0.1242 -0.7615
   23SAPC  H15R 3043   3.676   1.354   8.616  2.1378  2.8580 -5.7158
   23SAPC  C216 3044   3.514   1.494   8.547  0.0589 -0.6850 -0.3368
   23SAPC  H16R 3045   3.450   1.566   8.602  0.7159 -0.0373 -0.4149
   23SAPC  H16S 3046   3.453   1.403   8.526  2.8602 -2.6162 -0.6927
   23SAPC  C217 3047   3.564   1.563   8.423 -0.0259 -0.9688  0.3062
   23SAPC  H17R 3048   3.648   1.634   8.440  0.9211 -2.1187  0.5986
   23SAPC  H17S 3049   3.492   1.629   8.371  2.1252 -0.8049 -2.6957
   23SAPC  C218 3050   3.612   1.460   8.327 -0.1177  0.5738 -0.1142
   23SAPC  H18R 3051   3.533   1.388   8.300 -1.3089  1.9654 -0.4760
   23SAPC  H18S 3052   3.692   1.409   8.385 -1.3044  0.8250  1.8128
   23SAPC  C219 3053   3.662   1.524   8.188 -0.6178  0.4362 -0.1442
   23SAPC  H19R 3054   3.745   1.592   8.218 -1.7359  2.3005 -1.1432
   23SAPC  H19S 3055   3.585   1.584   8.135  0.5427  2.8661  0.7846
   23SAPC  C220 3056   3.701   1.414   8.086 -0.3424  0.1739  0.4464
   23SAPC  H20R 3057   3.799   1.363   8.100 -1.0595 -1.4227 -0.0661
   23SAPC  H20S 3058   3.713   1.453   7.983  2.4068 -0.7447  0.3393
   23SAPC  H20T 3059   3.626   1.332   8.085 -0.6991  0.4169 -2.7081
   23SAPC   C33 3060   4.265   1.308  10.101 -0.2340  0.0092 -0.1169
   23SAPC   H3X 3061   4.309   1.409  10.092  0.8387 -0.2726  1.4968
   23SAPC   H3Y 3062   4.162   1.310  10.059 -1.2851  0.1627  2.2915
   23SAPC   C34 3063   4.358   1.201  10.033  0.2083  0.3492  0.5459
   23SAPC   H4X 3064   4.313   1.102  10.010  0.7645 -0.1158  1.3804
   23SAPC   H4Y 3065   4.450   1.177  10.090  1.1416  0.9079 -0.6814
   23SAPC   C35 3066   4.423   1.263   9.900  0.3069  0.6241 -0.2237
   23SAPC   H5X 3067   4.468   1.180   9.840 -1.7457  1.0632 -2.5157
   23SAPC   H5Y 3068   4.504   1.323   9.947 -1.2072  1.7706  0.9822
   23SAPC   C36 3069   4.321   1.332   9.817 -0.2409  0.2804  0.7044
   23SAPC   H6X 3070   4.284   1.428   9.859  0.3172  1.4261 -1.2885
   23SAPC   H6Y 3071   4.229   1.271   9.808 -0.4318  0.6576  0.0466
   23SAPC   C37 3072   4.363   1.371   9.678  0.1734  0.0552 -0.5316
   23SAPC   H7X 3073   4.369   1.276   9.621  0.2460 -0.4454  0.2907
   23SAPC   H7Y 3074   4.454   1.435   9.671  0.2661 -0.0853 -0.6057
   23SAPC   C38 3075   4.250   1.459   9.615 -0.1318 -0.2647  1.0198
   23SAPC   H8X 3076   4.258   1.557   9.666 -2.4640 -1.3748  3.8072
   23SAPC   H8Y 3077   4.154   1.406   9.632  0.4193 -1.5186  0.3759
   23SAPC   C39 3078   4.272   1.473   9.463  0.2430 -0.0292 -0.0377
   23SAPC   H9X 3079   4.301   1.374   9.424  0.4193 -0.0571  0.1592
   23SAPC   H9Y 3080   4.352   1.550   9.458 -0.7035  0.8984 -2.2025
   23SAPC  C310 3081   4.148   1.528   9.389  0.9523  0.6801 -0.5356
   23SAPC  H10X 3082   4.099   1.617   9.433  0.4889  0.0996  0.1575
   23SAPC  H10Y 3083   4.068   1.452   9.398  1.9348 -0.2485  0.8266
   23SAPC  C311 3084   4.169   1.556   9.236 -0.6295  0.1634 -0.3749
   23SAPC  H11X 3085   4.232   1.475   9.194 -0.1499  1.2203 -1.7747
   23SAPC  H11Y 3086   4.234   1.646   9.224  0.7153 -0.7135  0.1606
   23SAPC  C312 3087   4.041   1.568   9.149 -0.4338 -0.2324 -0.1443
   23SAPC  H12X 3088   3.990   1.651   9.204  0.7419  0.4688 -0.0663
   23SAPC  H12Y 3089   3.972   1.482   9.160 -0.4984  0.0561  2.3433
   23SAPC  C313 3090   4.061   1.619   9.009 -0.1882 -0.3311 -0.0216
   23SAPC  H13X 3091   4.153   1.679   8.994 -1.0491  1.0399 -0.0330
   23SAPC  H13Y 3092   3.979   1.688   8.980 -1.1403 -1.0790  0.8057
   23SAPC  C314 3093   4.064   1.510   8.905 -0.2006  0.1191 -0.0239
   23SAPC  H14X 3094   3.970   1.454   8.922  0.8143 -1.7235 -0.2306
   23SAPC  H14Y 3095   4.146   1.440   8.929 -1.5470 -2.2563 -1.9179
   23SAPC  C315 3096   4.067   1.553   8.757 -0.2139  0.3793 -0.1540
   23SAPC  H15X 3097   4.163   1.606   8.738 -0.8296  1.4499 -0.3543
   23SAPC  H15Y 3098   3.975   1.605   8.723 -1.3056 -1.0963  0.4254
   23SAPC  C316 3099   4.065   1.431   8.663 -0.1888  0.1598 -0.7237
   23SAPC  H16X 3100   3.972   1.374   8.680  1.3329 -2.1384  0.3665
   23SAPC  H16Y 3101   4.150   1.370   8.699 -0.8773 -0.1541  0.4255
   23SAPC  C317 3102   4.074   1.454   8.516 -0.3123  0.1400 -0.1208
   23SAPC  H17X 3103   4.136   1.369   8.482  0.5060  0.5094  0.4263
   23SAPC  H17Y 3104   4.132   1.548   8.504  1.1214 -0.4376  1.8204
   23SAPC  C318 3105   3.949   1.480   8.427 -0.2518  0.3318 -0.2842
   23SAPC  H18X 3106   3.855   1.434   8.465  0.4422 -0.9657 -0.0593
   23SAPC  H18Y 3107   3.969   1.448   8.322  2.3768 -2.6374  0.9369
   23SAPC  H18Z 3108   3.933   1.589   8.421  1.5626  0.6192 -0.4367
   24SAPC     N 3109   6.757   2.032  10.949 -0.7197 -0.1538  0.6642
   24SAPC   C12 3110   6.661   1.927  10.897  0.1189 -0.3549 -0.1349
   24SAPC  H12A 3111   6.581   1.921  10.969 -1.4086 -0.0995 -1.7450
   24SAPC  H12B 3112   6.720   1.837  10.886  0.4729  0.0191 -1.4950
   24SAPC   C13 3113   6.866   2.065  10.854  0.2077 -0.0841 -1.0394
   24SAPC  H13A 3114   6.824   2.082  10.756 -1.3335  0.7688 -0.2669
   24SAPC  H13B 3115   6.931   2.143  10.888  0.6598 -0.1850 -1.6585
   24SAPC  H13C 3116   6.929   1.979  10.839  0.3624 -0.1587 -0.0369
   24SAPC   C14 3117   6.687   2.158  10.984 -0.7752  0.2820  1.0017
   24SAPC  H14A 3118   6.760   2.236  10.997  0.6787 -1.3804  3.5098
   24SAPC  H14B 3119   6.626   2.182  10.898 -0.4055  0.3336  0.7546
   24SAPC  H14C 3120   6.626   2.145  11.073 -1.7411 -0.9578  0.2081
   24SAPC   C15 3121   6.819   1.977  11.079  0.9722  0.8936  0.4265
   24SAPC  H15A 3122   6.877   1.887  11.060  1.6419  1.1994  0.9842
   24SAPC  H15B 3123   6.892   2.051  11.109  1.9669  0.3457 -0.5421
   24SAPC  H15C 3124   6.740   1.957  11.149  0.3148  0.8762 -0.3069
   24SAPC   C11 3125   6.591   1.956  10.761 -0.8559  0.0651  0.7272
   24SAPC  H11A 3126   6.538   1.864  10.729  1.7523 -1.3835  0.2651
   24SAPC  H11B 3127   6.669   1.977  10.685 -1.7599  1.5214  0.1510
   24SAPC     P 3128   6.360   2.073  10.739 -0.0774 -0.2154 -0.5562
   24SAPC   O13 3129   6.294   1.943  10.776  0.0480 -0.1528  0.8510
   24SAPC   O14 3130   6.299   2.194  10.793 -0.1010  0.1079 -0.2197
   24SAPC   O12 3131   6.514   2.075  10.780  0.1270  0.6195 -0.0865
   24SAPC   O11 3132   6.378   2.083  10.585 -0.1492  0.6257  0.5150
   24SAPC    C1 3133   6.452   2.180  10.516  0.0682 -0.3063 -0.5911
   24SAPC    HA 3134   6.394   2.274  10.504  1.4227  0.6608  0.2534
   24SAPC    HB 3135   6.546   2.213  10.565 -1.1892  1.9031  0.4831
   24SAPC    C2 3136   6.481   2.122  10.380  0.6271  0.8097  0.0326
   24SAPC    HS 3137   6.549   2.185  10.319  1.2337  0.6105  0.4971
   24SAPC   O21 3138   6.357   2.096  10.304  0.2607 -0.0100  0.2472
   24SAPC   C21 3139   6.297   2.190  10.242 -0.3918 -0.0455 -0.4950
   24SAPC   O22 3140   6.332   2.306  10.228  0.4063 -0.6676  0.6633
   24SAPC   C22 3141   6.170   2.146  10.186  0.6432 -0.8687  0.5066
   24SAPC   H2R 3142   6.189   2.074  10.103 -0.3075 -1.1701  0.5376
   24SAPC   H2S 3143   6.119   2.084  10.263 -1.0092 -2.0017 -1.3992
   24SAPC    C3 3144   6.562   1.992  10.389  0.0272  0.8264  0.4942
   24SAPC    HX 3145   6.501   1.916  10.442  2.2864 -1.0925  0.5257
   24SAPC    HY 3146   6.660   1.990  10.442 -0.2621 -0.7836  1.0221
   24SAPC   O31 3147   6.582   1.949  10.248  0.4106  0.4346  1.0269
   24SAPC   C31 3148   6.694   1.972  10.177 -0.1627  0.3498  0.6385
   24SAPC   O32 3149   6.802   2.022  10.209 -0.1973  0.1033  0.9023
   24SAPC   C32 3150   6.655   1.919  10.038 -0.3680 -0.0578 -0.2240
   24SAPC   H2X 3151   6.544   1.909  10.035 -0.3949  0.5269 -2.2827
   24SAPC   H2Y 3152   6.698   1.817  10.033  0.5566  0.3665 -1.2716
   24SAPC   C23 3153   6.073   2.253  10.131  0.1605  0.5986  0.3341
   24SAPC   H3R 3154   6.104   2.316  10.045 -2.2510  0.1805 -0.9354
   24SAPC   H3S 3155   6.052   2.317  10.220  2.0821  0.9787  0.5437
   24SAPC   C24 3156   5.940   2.196  10.091 -0.1145 -0.2808  0.3452
   24SAPC   H4R 3157   5.903   2.142  10.181  1.3628 -0.9575  0.5790
   24SAPC   H4S 3158   5.941   2.108  10.024 -3.3739 -1.2441  1.3518
   24SAPC   C25 3159   5.833   2.302  10.054 -0.1566 -0.1406  0.6688
   24SAPC   H5R 3160   5.826   2.383  10.129 -1.4827 -0.9394  1.4278
   24SAPC   C26 3161   5.754   2.302   9.948  0.3121  0.4917 -0.4798
   24SAPC   H6R 3162   5.685   2.387   9.940 -1.9823 -1.2199 -0.0164
   24SAPC   C27 3163   5.757   2.195   9.844  0.0725 -0.5310 -0.0843
   24SAPC   H7R 3164   5.691   2.117   9.887  0.9127 -1.1338  0.1434
   24SAPC   H7S 3165   5.854   2.142   9.833 -0.8420 -2.2141 -0.4486
   24SAPC   C28 3166   5.704   2.247   9.708  0.2506 -0.2230 -0.0794
   24SAPC   H8R 3167   5.637   2.334   9.700  0.2627 -0.3739 -2.9193
   24SAPC   C29 3168   5.737   2.189   9.584  0.3267 -0.2492 -0.4532
   24SAPC   H9R 3169   5.698   2.249   9.501  0.1044  0.1369 -0.0703
   24SAPC  C210 3170   5.826   2.073   9.556 -0.6171 -0.1386 -0.1921
   24SAPC  H10R 3171   5.864   2.018   9.645  1.8507  0.2239 -0.9402
   24SAPC  H10S 3172   5.911   2.108   9.493 -0.5947 -1.4803 -0.9307
   24SAPC  C211 3173   5.747   1.982   9.464 -0.0420  0.3004 -0.0843
   24SAPC  H11R 3174   5.703   1.896   9.518  0.8772  0.5093  1.0268
   24SAPC  C212 3175   5.726   1.994   9.330 -0.2060  0.5512 -0.2067
   24SAPC  H12R 3176   5.648   1.936   9.279 -0.6964  2.1321 -1.3262
   24SAPC  C213 3177   5.777   2.093   9.233 -0.3642 -0.4136 -0.4757
   24SAPC  H13R 3178   5.878   2.131   9.259  0.4747 -3.1603  0.6450
   24SAPC  H13S 3179   5.706   2.179   9.241 -0.1141  0.0087 -2.4411
   24SAPC  C214 3180   5.782   2.035   9.090 -0.8654  0.8163  0.2161
   24SAPC  H14R 3181   5.874   1.983   9.061 -1.1035  1.0523 -0.9838
   24SAPC  C215 3182   5.691   2.033   8.994 -0.0868 -0.8918  0.2511
   24SAPC  H15R 3183   5.724   2.006   8.893 -0.6062 -0.2609 -0.0928
   24SAPC  C216 3184   5.551   2.086   9.000  0.3437  0.5164  0.1043
   24SAPC  H16R 3185   5.526   2.154   8.916 -1.1046  0.6614  0.6207
   24SAPC  H16S 3186   5.534   2.158   9.083 -2.4556  0.0659  0.0118
   24SAPC  C217 3187   5.451   1.971   9.008  0.9382 -0.2093 -1.0358
   24SAPC  H17R 3188   5.357   2.023   9.035  1.9605  0.4603  1.5326
   24SAPC  H17S 3189   5.469   1.915   9.102 -0.8621  0.4539 -0.2390
   24SAPC  C218 3190   5.450   1.893   8.877  0.4011 -0.0363  0.1798
   24SAPC  H18R 3191   5.540   1.830   8.860 -0.0933 -0.7124 -0.0193
   24SAPC  H18S 3192   5.444   1.952   8.783 -0.0731 -1.3250 -0.6426
   24SAPC  C219 3193   5.317   1.809   8.874 -0.6065 -0.5524  0.4052
   24SAPC  H19R 3194   5.232   1.879   8.886 -0.9293 -0.9841  0.6360
   24SAPC  H19S 3195   5.322   1.736   8.958 -1.1131  0.0986  1.0216
   24SAPC  C220 3196   5.289   1.724   8.742 -0.3866  0.5299  0.1303
   24SAPC  H20R 3197   5.186   1.683   8.735 -1.8092  3.6902  0.7560
   24SAPC  H20S 3198   5.352   1.633   8.756  1.3584  1.4206 -1.4764
   24SAPC  H20T 3199   5.311   1.775   8.646  2.3978  0.0885  0.4551
   24SAPC   C33 3200   6.706   2.002   9.919  0.2083  0.0651  0.2093
   24SAPC   H3X 3201   6.811   2.038   9.916 -0.6357  2.7581 -3.3452
   24SAPC   H3Y 3202   6.654   2.094   9.954 -1.0741  0.0230 -1.4516
   24SAPC   C34 3203   6.662   1.950   9.785  0.4968  0.1117 -0.4024
   24SAPC   H4X 3204   6.553   1.925   9.786  0.1195  1.1456 -3.3967
   24SAPC   H4Y 3205   6.716   1.857   9.759  1.2707  0.2273  0.7406
   24SAPC   C35 3206   6.677   2.060   9.668 -0.2184  0.0239 -0.3633
   24SAPC   H5X 3207   6.782   2.096   9.664  0.0495 -0.6286  0.4905
   24SAPC   H5Y 3208   6.630   2.149   9.715 -2.8269 -0.9166 -1.0181
   24SAPC   C36 3209   6.608   2.030   9.532  0.2557 -0.9981  0.6107
   24SAPC   H6X 3210   6.586   2.123   9.477  2.8694 -0.2660  0.6536
   24SAPC   H6Y 3211   6.510   1.981   9.552 -0.1718 -1.4524 -2.1261
   24SAPC   C37 3212   6.696   1.946   9.432 -0.2102 -0.0399 -0.9126
   24SAPC   H7X 3213   6.734   1.859   9.490 -1.4030 -0.7024 -1.0748
   24SAPC   H7Y 3214   6.786   2.006   9.409  0.7344 -0.4112  1.4466
   24SAPC   C38 3215   6.617   1.917   9.306 -0.5138  0.1235  0.8136
   24SAPC   H8X 3216   6.563   2.010   9.277  1.4757  0.8703 -0.6971
   24SAPC   H8Y 3217   6.535   1.850   9.339 -0.3495 -1.2394 -1.3438
   24SAPC   C39 3218   6.701   1.882   9.186 -0.0214 -0.5563 -0.5232
   24SAPC   H9X 3219   6.748   1.787   9.219 -0.5699 -1.7051 -2.8278
   24SAPC   H9Y 3220   6.783   1.956   9.173  2.5791 -3.4410 -1.8767
   24SAPC  C310 3221   6.620   1.844   9.064 -0.1474  0.1249 -0.0744
   24SAPC  H10X 3222   6.692   1.825   8.981 -0.8443 -0.4234 -0.5687
   24SAPC  H10Y 3223   6.565   1.938   9.043 -4.4862 -1.8676  1.2152
   24SAPC  C311 3224   6.524   1.730   9.081  0.9434  0.0838  0.2734
   24SAPC  H11X 3225   6.452   1.763   9.159  0.2611  0.8518 -0.6592
   24SAPC  H11Y 3226   6.580   1.640   9.114  0.4851 -0.0296  0.7540
   24SAPC  C312 3227   6.430   1.700   8.959  0.2176  0.0970 -0.3079
   24SAPC  H12X 3228   6.495   1.647   8.886 -0.8737 -2.0101  0.1630
   24SAPC  H12Y 3229   6.406   1.794   8.904  3.1917  0.9916 -0.2760
   24SAPC  C313 3230   6.322   1.607   8.991 -0.5656  0.2670 -0.1021
   24SAPC  H13X 3231   6.233   1.642   9.048 -0.9877  0.6983 -0.9915
   24SAPC  H13Y 3232   6.367   1.521   9.043 -2.7804  0.0385  1.5925
   24SAPC  C314 3233   6.268   1.545   8.870  0.4614  0.1325  0.3414
   24SAPC  H14X 3234   6.356   1.517   8.807  0.3095  1.7074 -0.6151
   24SAPC  H14Y 3235   6.205   1.620   8.818  1.3645  0.0412 -0.9557
   24SAPC  C315 3236   6.184   1.415   8.875 -0.0005  0.1355 -0.8986
   24SAPC  H15X 3237   6.094   1.437   8.937  0.4852  0.6178 -0.3510
   24SAPC  H15Y 3238   6.249   1.332   8.908 -1.4384 -1.7852 -2.6601
   24SAPC  C316 3239   6.134   1.377   8.727  0.3089 -1.0189  0.1524
   24SAPC  H16X 3240   6.220   1.340   8.667 -0.9817 -2.5424 -0.8234
   24SAPC  H16Y 3241   6.094   1.456   8.660  0.4554 -2.3718 -1.6147
   24SAPC  C317 3242   6.037   1.256   8.736  0.0828 -0.4032 -0.3721
   24SAPC  H17X 3243   5.983   1.244   8.640 -2.1479  1.0706  0.6144
   24SAPC  H17Y 3244   5.965   1.296   8.810 -0.6780 -0.1541 -1.2468
   24SAPC  C318 3245   6.109   1.126   8.795 -0.8487 -0.3971 -0.2500
   24SAPC  H18X 3246   6.051   1.031   8.788 -0.9685 -0.4059  0.7285
   24SAPC  H18Y 3247   6.130   1.136   8.903  1.0797  1.2750 -0.7140
   24SAPC  H18Z 3248   6.200   1.111   8.733 -0.0137  1.2989  0.5055
   25SAPC     N 3249   3.880   5.390   5.602 -0.2345 -0.9314  0.2181
   25SAPC   C12 3250   3.935   5.409   5.741 -0.0290 -0.8258 -0.1062
   25SAPC  H12A 3251   4.013   5.484   5.742 -1.0489  0.2668  0.0645
   25SAPC  H12B 3252   3.985   5.317   5.766  0.3237 -0.5514  0.2062
   25SAPC   C13 3253   3.776   5.278   5.588  0.1000  0.4454 -0.1254
   25SAPC  H13A 3254   3.686   5.300   5.642 -0.9419  1.2122 -2.0913
   25SAPC  H13B 3255   3.732   5.250   5.494  0.9301  0.8021 -0.6310
   25SAPC  H13C 3256   3.826   5.195   5.636  1.7422  1.8104  0.6352
   25SAPC   C14 3257   3.819   5.519   5.549  1.3342 -0.8346  0.2339
   25SAPC  H14A 3258   3.755   5.561   5.625 -2.3864 -1.2134 -2.4425
   25SAPC  H14B 3259   3.885   5.597   5.514  0.0722  1.3866  2.5227
   25SAPC  H14C 3260   3.751   5.491   5.471  2.8339 -0.1713 -1.3915
   25SAPC   C15 3261   3.988   5.354   5.508  0.0533  0.6544  0.4513
   25SAPC  H15A 3262   4.023   5.253   5.526  1.8082  0.9313 -1.0585
   25SAPC  H15B 3263   3.935   5.350   5.414  0.4375 -0.5817  0.2588
   25SAPC  H15C 3264   4.076   5.416   5.495  1.2758 -1.3530 -1.7970
   25SAPC   C11 3265   3.826   5.433   5.859 -0.3651  0.5647  0.1779
   25SAPC  H11A 3266   3.753   5.509   5.825 -1.5205 -1.1254 -1.3189
   25SAPC  H11B 3267   3.883   5.459   5.951  0.5951 -1.1580  0.1110
   25SAPC     P 3268   3.813   5.190   5.942 -0.3230 -0.1469  0.0147
   25SAPC   O13 3269   3.733   5.070   5.923  0.1653 -0.7009 -0.8754
   25SAPC   O14 3270   3.953   5.188   5.898 -0.0952  1.0202 -0.2581
   25SAPC   O12 3271   3.733   5.323   5.885  0.1813  0.5442  0.0528
   25SAPC   O11 3272   3.816   5.218   6.096  0.4644  0.0353  1.5677
   25SAPC    C1 3273   3.700   5.206   6.181 -0.7185 -0.5381  0.1227
   25SAPC    HA 3274   3.612   5.255   6.132  1.6376  2.8912 -1.1086
   25SAPC    HB 3275   3.674   5.099   6.191  0.0862 -0.7322  0.1908
   25SAPC    C2 3276   3.723   5.280   6.322  0.6856  0.5363  0.7346
   25SAPC    HS 3277   3.753   5.386   6.306 -1.9012  1.4866  1.7472
   25SAPC   O21 3278   3.822   5.212   6.398 -0.0764  0.1483 -0.3631
   25SAPC   C21 3279   3.936   5.263   6.431 -0.3254  0.3077  0.3847
   25SAPC   O22 3280   3.986   5.362   6.388  0.3388 -0.1891  0.5788
   25SAPC   C22 3281   3.994   5.176   6.537 -0.4108  0.5576 -0.1828
   25SAPC   H2R 3282   3.913   5.146   6.607  0.2760 -0.7139  0.0929
   25SAPC   H2S 3283   4.034   5.081   6.497  0.6881  1.5112 -1.4100
   25SAPC    C3 3284   3.583   5.274   6.400 -0.6410 -0.0036  0.3908
   25SAPC    HX 3285   3.552   5.170   6.420 -2.8205  0.6605  0.7075
   25SAPC    HY 3286   3.515   5.314   6.322 -1.9095 -1.2425  0.8304
   25SAPC   O31 3287   3.587   5.351   6.519 -0.4181  0.4706 -0.4230
   25SAPC   C31 3288   3.630   5.285   6.631  0.4667 -0.4021  0.2073
   25SAPC   O32 3289   3.649   5.162   6.637 -0.5964 -0.2325 -0.3909
   25SAPC   C32 3290   3.645   5.394   6.738  0.0358 -0.0327  0.4581
   25SAPC   H2X 3291   3.551   5.450   6.758  0.5829  0.4926  1.6387
   25SAPC   H2Y 3292   3.703   5.473   6.686  0.2942  0.0855  0.9173
   25SAPC   C23 3293   4.106   5.250   6.608  0.0777 -0.4883 -0.5292
   25SAPC   H3R 3294   4.081   5.351   6.646  1.2587  0.0505 -1.1374
   25SAPC   H3S 3295   4.193   5.253   6.540 -0.0166  2.6837 -0.6411
   25SAPC   C24 3296   4.166   5.173   6.728  0.3399 -0.2369  0.3890
   25SAPC   H4R 3297   4.276   5.187   6.733  0.7028 -1.6797 -2.0005
   25SAPC   H4S 3298   4.163   5.069   6.689  0.4471 -0.2526  0.4203
   25SAPC   C25 3299   4.090   5.205   6.854 -0.8373  0.9929  0.7185
   25SAPC   H5R 3300   4.090   5.306   6.898 -2.4270  0.3952  2.2016
   25SAPC   C26 3301   4.024   5.121   6.934 -0.1190  0.7103 -0.5312
   25SAPC   H6R 3302   3.962   5.160   7.016  1.7458  1.7692  0.4551
   25SAPC   C27 3303   4.010   4.973   6.918  0.1629 -0.0806 -0.4020
   25SAPC   H7R 3304   4.063   4.942   7.011 -0.7601 -1.1222 -0.2071
   25SAPC   H7S 3305   4.070   4.936   6.832  0.4018  0.8805 -0.6550
   25SAPC   C28 3306   3.871   4.917   6.922 -0.4983  0.2937 -0.2788
   25SAPC   H8R 3307   3.841   4.866   6.830 -0.6853  0.1180 -0.1245
   25SAPC   C29 3308   3.792   4.890   7.033  0.0767 -0.4543  0.3430
   25SAPC   H9R 3309   3.690   4.849   7.026 -0.1589 -0.3026  2.2547
   25SAPC  C210 3310   3.830   4.930   7.177  0.6474  0.0579 -0.2330
   25SAPC  H10R 3311   3.933   4.973   7.179  0.5474  0.2993 -0.2836
   25SAPC  H10S 3312   3.831   4.837   7.238  2.1399 -0.0130 -0.3239
   25SAPC  C211 3313   3.730   5.025   7.236  0.1613 -0.7172 -0.2903
   25SAPC  H11R 3314   3.669   5.080   7.162 -0.6059 -0.7677  0.2898
   25SAPC  C212 3315   3.702   5.049   7.370  0.2106 -0.3937  0.7616
   25SAPC  H12R 3316   3.633   5.127   7.404  0.5827 -0.6644  2.2024
   25SAPC  C213 3317   3.794   4.994   7.475 -0.5232 -0.5644  0.2579
   25SAPC  H13R 3318   3.862   5.076   7.507  0.7372 -1.2789 -0.5317
   25SAPC  H13S 3319   3.851   4.905   7.440  1.4977 -0.0414  1.9812
   25SAPC  C214 3320   3.709   4.954   7.595  0.1783  0.3118  0.4071
   25SAPC  H14R 3321   3.607   4.919   7.575 -0.0423  0.9227  0.4360
   25SAPC  C215 3322   3.753   4.953   7.723 -0.0907 -0.8960  0.0013
   25SAPC  H15R 3323   3.686   4.910   7.799 -0.1410 -0.9451 -0.0704
   25SAPC  C216 3324   3.892   4.992   7.774  0.8329 -0.5095  0.4171
   25SAPC  H16R 3325   3.949   5.019   7.682 -2.0549 -0.4014 -1.4777
   25SAPC  H16S 3326   3.952   4.910   7.819  1.2132  0.7046  2.2186
   25SAPC  C217 3327   3.889   5.109   7.876 -0.0009  0.5890  0.6711
   25SAPC  H17R 3328   3.842   5.089   7.975  0.9779  1.4025  1.3142
   25SAPC  H17S 3329   3.819   5.188   7.841 -0.4559  0.2167  0.7281
   25SAPC  C218 3330   4.027   5.174   7.883  0.4530  0.8185  0.1892
   25SAPC  H18R 3331   4.109   5.105   7.854  0.3247 -0.0423  1.7264
   25SAPC  H18S 3332   4.049   5.190   7.991  0.2725  0.8871  0.2151
   25SAPC  C219 3333   4.025   5.297   7.802 -0.1728 -0.0419  0.2614
   25SAPC  H19R 3334   3.946   5.367   7.837  0.1879  0.4065  0.1928
   25SAPC  H19S 3335   4.005   5.274   7.695 -1.7640  2.4963 -0.0718
   25SAPC  C220 3336   4.143   5.390   7.806 -0.3643 -0.1500  0.8743
   25SAPC  H20R 3337   4.119   5.463   7.726 -0.1652  0.0056  0.9576
   25SAPC  H20S 3338   4.241   5.343   7.784  0.4857  1.2446  1.5482
   25SAPC  H20T 3339   4.143   5.444   7.903  5.8376 -0.0862  1.2605
   25SAPC   C33 3340   3.695   5.338   6.874 -0.2272 -0.0549 -0.1335
   25SAPC   H3X 3341   3.803   5.308   6.870 -0.1541 -0.0485  1.4002
   25SAPC   H3Y 3342   3.632   5.248   6.892  0.0790 -1.4149 -4.6287
   25SAPC   C34 3343   3.683   5.444   6.982 -0.2964  0.3995  0.0774
   25SAPC   H4X 3344   3.584   5.496   6.983  0.6947  2.3746  0.7330
   25SAPC   H4Y 3345   3.756   5.525   6.960  0.2763 -0.5916 -1.8991
   25SAPC   C35 3346   3.695   5.387   7.126 -0.5594  0.0424  0.2669
   25SAPC   H5X 3347   3.789   5.327   7.125 -0.8286 -0.3863 -0.9376
   25SAPC   H5Y 3348   3.617   5.308   7.135  0.1894 -0.5067  2.7856
   25SAPC   C36 3349   3.705   5.490   7.241 -0.2319 -0.2314 -0.3555
   25SAPC   H6X 3350   3.632   5.570   7.218  2.3432  2.2447 -0.5230
   25SAPC   H6Y 3351   3.800   5.547   7.234 -0.7475  0.9929  1.6229
   25SAPC   C37 3352   3.684   5.431   7.379 -0.6815 -0.0822 -0.4571
   25SAPC   H7X 3353   3.776   5.376   7.408  0.0930  1.8429  0.9724
   25SAPC   H7Y 3354   3.605   5.354   7.368  0.5150 -1.3466 -0.5813
   25SAPC   C38 3355   3.652   5.524   7.491  0.8352  0.0756 -0.5189
   25SAPC   H8X 3356   3.561   5.579   7.460  1.4209 -0.5851 -3.8044
   25SAPC   H8Y 3357   3.728   5.605   7.489  1.8514 -0.7878  0.7811
   25SAPC   C39 3358   3.645   5.467   7.632 -0.4316 -0.5024 -0.2698
   25SAPC   H9X 3359   3.717   5.389   7.664 -0.9642 -1.7624 -2.0373
   25SAPC   H9Y 3360   3.549   5.411   7.641 -1.5161  1.2505 -0.2807
   25SAPC  C310 3361   3.641   5.593   7.717 -0.1064 -0.4114 -0.5961
   25SAPC  H10X 3362   3.598   5.683   7.668 -0.4780 -1.1162 -1.5936
   25SAPC  H10Y 3363   3.751   5.606   7.724 -0.0982 -0.7528 -0.0007
   25SAPC  C311 3364   3.586   5.581   7.855 -0.0721  0.4078 -0.4164
   25SAPC  H11X 3365   3.643   5.650   7.921  2.7905 -1.7521 -0.4298
   25SAPC  H11Y 3366   3.617   5.487   7.904 -0.8066  0.1661 -0.3991
   25SAPC  C312 3367   3.436   5.602   7.880  0.1121 -0.5264 -0.1130
   25SAPC  H12X 3368   3.393   5.519   7.820 -0.1150  0.4637 -1.3590
   25SAPC  H12Y 3369   3.401   5.704   7.856  1.6792  0.2906  0.8687
   25SAPC  C313 3370   3.401   5.572   8.024 -0.3030 -0.8894  0.3160
   25SAPC  H13X 3371   3.420   5.665   8.082 -0.3810  1.1696 -2.7359
   25SAPC  H13Y 3372   3.467   5.492   8.064  0.4166  0.5824  2.2347
   25SAPC  C314 3373   3.255   5.536   8.048  0.3771  0.5556  0.2219
   25SAPC  H14X 3374   3.196   5.607   7.987 -0.1761  0.1288  0.2447
   25SAPC  H14Y 3375   3.224   5.562   8.152  1.1760  1.6964  0.1884
   25SAPC  C315 3376   3.220   5.388   8.023  0.7791  0.7468 -0.3239
   25SAPC  H15X 3377   3.269   5.316   8.093 -0.5372  0.7059  0.5923
   25SAPC  H15Y 3378   3.264   5.360   7.925 -2.5499  0.8470 -1.9574
   25SAPC  C316 3379   3.067   5.358   8.017  0.4521 -0.0401  0.1869
   25SAPC  H16X 3380   3.023   5.427   7.942  0.3183  1.0716  1.2532
   25SAPC  H16Y 3381   3.020   5.381   8.116 -0.7339 -1.9160  0.1258
   25SAPC  C317 3382   3.032   5.208   7.982  0.2443 -0.3232 -0.1984
   25SAPC  H17X 3383   2.926   5.190   8.008  0.1535  0.0466 -0.3179
   25SAPC  H17Y 3384   3.095   5.140   8.044  1.5324 -1.1090 -2.2352
   25SAPC  C318 3385   3.038   5.175   7.833  0.1209  0.0094  0.9065
   25SAPC  H18X 3386   2.967   5.091   7.816  0.5704 -0.2175  0.1180
   25SAPC  H18Y 3387   3.138   5.158   7.788  0.7580 -0.1179  2.3484
   25SAPC  H18Z 3388   3.008   5.271   7.786  1.4705 -0.2179 -0.5158
   26SAPC     N 3389   1.317   6.439   6.404  0.8083 -0.2785  0.3886
   26SAPC   C12 3390   1.335   6.593   6.390 -0.0492 -0.2345 -0.1340
   26SAPC  H12A 3391   1.423   6.627   6.442 -1.0170  2.5297 -0.1391
   26SAPC  H12B 3392   1.251   6.651   6.426  2.5344  2.9782  1.2072
   26SAPC   C13 3393   1.182   6.398   6.349 -0.0154 -0.2226 -0.4553
   26SAPC  H13A 3394   1.168   6.415   6.244 -0.8643  0.6214 -0.2184
   26SAPC  H13B 3395   1.160   6.293   6.365 -0.4688 -0.1893 -0.8257
   26SAPC  H13C 3396   1.097   6.441   6.401  0.5723  3.8048 -2.4616
   26SAPC   C14 3397   1.426   6.374   6.330 -0.2645  0.8120  0.1712
   26SAPC  H14A 3398   1.433   6.419   6.232  0.3180 -1.2680 -0.8153
   26SAPC  H14B 3399   1.519   6.393   6.380 -0.5068 -1.1330  1.4794
   26SAPC  H14C 3400   1.411   6.267   6.324 -3.3049  1.1245  0.7745
   26SAPC   C15 3401   1.314   6.397   6.548 -0.4755 -0.7476  0.0781
   26SAPC  H15A 3402   1.389   6.433   6.616  0.0475  0.1654 -0.9575
   26SAPC  H15B 3403   1.217   6.435   6.578 -0.9523 -1.6241 -0.2890
   26SAPC  H15C 3404   1.303   6.289   6.545  0.4157 -0.8827  1.0943
   26SAPC   C11 3405   1.356   6.650   6.248  0.3610 -0.0821 -0.2629
   26SAPC  H11A 3406   1.342   6.760   6.248  1.1499  0.0267 -0.2761
   26SAPC  H11B 3407   1.272   6.621   6.180  0.7887  1.8852 -1.7019
   26SAPC     P 3408   1.618   6.678   6.252  0.4410  0.0350  0.5122
   26SAPC   O13 3409   1.724   6.618   6.170  0.2507 -0.3268 -0.0996
   26SAPC   O14 3410   1.607   6.827   6.243 -0.1040  0.7543  0.0843
   26SAPC   O12 3411   1.483   6.617   6.195 -0.2666  0.3006  0.3655
   26SAPC   O11 3412   1.628   6.629   6.405 -0.2852 -0.0735  0.6627
   26SAPC    C1 3413   1.758   6.599   6.463  0.5196  0.1529  0.5793
   26SAPC    HA 3414   1.804   6.516   6.405  2.5158  0.9571  0.9017
   26SAPC    HB 3415   1.817   6.692   6.445  0.2144  0.1024 -0.8121
   26SAPC    C2 3416   1.752   6.569   6.615  0.3014 -0.0712 -0.1744
   26SAPC    HS 3417   1.852   6.555   6.661  0.6717 -0.1741 -0.9878
   26SAPC   O21 3418   1.672   6.452   6.641  0.2763 -0.0048 -0.0300
   26SAPC   C21 3419   1.741   6.336   6.632 -0.5609  0.3343  0.6349
   26SAPC   O22 3420   1.861   6.327   6.601 -0.0883  0.3488  0.6100
   26SAPC   C22 3421   1.654   6.221   6.681  0.9529 -0.3470 -0.1937
   26SAPC   H2R 3422   1.567   6.222   6.611  1.6547  0.6902 -1.0840
   26SAPC   H2S 3423   1.707   6.125   6.662  0.1096 -1.0400  0.8469
   26SAPC    C3 3424   1.702   6.690   6.703  0.5002  0.7064  0.1009
   26SAPC    HX 3425   1.613   6.722   6.645  0.1380 -0.8500 -0.2625
   26SAPC    HY 3426   1.772   6.776   6.706  0.6512  0.5650  0.9884
   26SAPC   O31 3427   1.659   6.649   6.836 -0.5502 -0.6565  0.4381
   26SAPC   C31 3428   1.533   6.626   6.857 -0.2735  0.3653 -0.4000
   26SAPC   O32 3429   1.436   6.641   6.788 -0.4615 -0.3169  0.1622
   26SAPC   C32 3430   1.531   6.576   7.005  0.6130 -0.0579  0.3259
   26SAPC   H2X 3431   1.594   6.642   7.067  1.5276 -0.7584  0.1684
   26SAPC   H2Y 3432   1.586   6.479   7.007  0.1578 -0.4354 -2.0895
   26SAPC   C23 3433   1.611   6.227   6.823 -0.3640 -0.0509 -0.6118
   26SAPC   H3R 3434   1.527   6.157   6.841  1.6330 -2.3038  0.4848
   26SAPC   H3S 3435   1.564   6.327   6.821 -0.3284 -0.0397 -1.8521
   26SAPC   C24 3436   1.718   6.206   6.934  0.2726  0.4994  0.0967
   26SAPC   H4R 3437   1.681   6.255   7.026 -1.6004 -0.7778  0.0878
   26SAPC   H4S 3438   1.813   6.252   6.899 -0.0956  0.9663 -0.2949
   26SAPC   C25 3439   1.735   6.056   6.955 -0.2491  1.1314 -0.1717
   26SAPC   H5R 3440   1.783   6.004   6.871 -2.1889 -0.0152 -0.6074
   26SAPC   C26 3441   1.710   5.982   7.064  0.9403 -0.3477  0.0958
   26SAPC   H6R 3442   1.767   5.889   7.081  2.0892 -0.0223 -1.6710
   26SAPC   C27 3443   1.648   6.030   7.195 -0.5621  0.0971  0.4359
   26SAPC   H7R 3444   1.590   5.948   7.242 -0.4545 -0.4616 -0.3666
   26SAPC   H7S 3445   1.580   6.115   7.173 -0.2727  0.0308 -0.7786
   26SAPC   C28 3446   1.748   6.083   7.284  0.0833  0.5842  0.4463
   26SAPC   H8R 3447   1.804   6.165   7.237 -2.7185  0.8463 -2.7540
   26SAPC   C29 3448   1.790   6.025   7.404  1.0539  0.1885  0.7004
   26SAPC   H9R 3449   1.869   6.081   7.457 -0.3412  1.9839  0.9980
   26SAPC  C210 3450   1.723   5.908   7.467 -0.1426 -0.5874 -0.0513
   26SAPC  H10R 3451   1.802   5.848   7.515  0.9089  2.6698  2.7298
   26SAPC  H10S 3452   1.683   5.834   7.394 -0.4595 -0.4328 -0.0377
   26SAPC  C211 3453   1.607   5.939   7.559 -0.2176 -0.1852 -0.0362
   26SAPC  H11R 3454   1.512   5.950   7.505 -0.4810 -1.9322  0.0009
   26SAPC  C212 3455   1.603   5.925   7.689 -0.6432 -0.3332 -0.5494
   26SAPC  H12R 3456   1.516   5.969   7.740  1.6658  1.9037  1.7231
   26SAPC  C213 3457   1.713   5.883   7.779 -0.9959 -0.4267  0.2983
   26SAPC  H13R 3458   1.808   5.846   7.734  0.7048  1.1088  2.4390
   26SAPC  H13S 3459   1.663   5.794   7.823 -3.6486  0.6658 -0.2795
   26SAPC  C214 3460   1.739   5.991   7.877 -0.3284 -0.7893  0.0311
   26SAPC  H14R 3461   1.830   6.048   7.854 -0.4349  0.6596  2.8798
   26SAPC  C215 3462   1.679   6.016   7.994  1.1582 -0.1060  0.0816
   26SAPC  H15R 3463   1.711   6.105   8.051 -0.9691  2.6491 -2.6982
   26SAPC  C216 3464   1.560   5.938   8.045 -0.5097  0.0535  0.2127
   26SAPC  H16R 3465   1.484   5.937   7.964 -2.0282 -0.4467  1.5720
   26SAPC  H16S 3466   1.499   5.998   8.116 -0.4155  0.1225  0.2349
   26SAPC  C217 3467   1.589   5.800   8.113 -0.6642 -0.2008 -0.3851
   26SAPC  H17R 3468   1.629   5.734   8.033 -0.1377  1.2091 -1.3237
   26SAPC  H17S 3469   1.489   5.763   8.143 -0.6066  0.5503  0.8063
   26SAPC  C218 3470   1.693   5.795   8.224 -0.5257  0.4531  0.9248
   26SAPC  H18R 3471   1.790   5.841   8.195 -1.0475  0.1885 -1.4671
   26SAPC  H18S 3472   1.715   5.686   8.231  0.2063  0.0842 -3.8175
   26SAPC  C219 3473   1.653   5.856   8.366 -0.1707 -0.2518  0.4341
   26SAPC  H19R 3474   1.547   5.829   8.385 -0.4625 -0.9740 -1.8930
   26SAPC  H19S 3475   1.661   5.966   8.352  2.9646 -0.3821  0.5782
   26SAPC  C220 3476   1.750   5.814   8.485  0.8290 -0.0984 -0.3001
   26SAPC  H20R 3477   1.856   5.844   8.468  1.5568 -0.3916  3.0161
   26SAPC  H20S 3478   1.758   5.704   8.490 -2.2160 -0.4577 -1.0235
   26SAPC  H20T 3479   1.716   5.846   8.586 -1.3908 -1.6698 -0.4754
   26SAPC   C33 3480   1.385   6.549   7.065  0.9353  1.1888  0.4451
   26SAPC   H3X 3481   1.317   6.494   6.997  1.5638 -0.2230  0.9299
   26SAPC   H3Y 3482   1.338   6.649   7.076 -1.2306  0.4853 -1.5886
   26SAPC   C34 3483   1.395   6.473   7.197  0.1844 -0.0242 -0.6467
   26SAPC   H4X 3484   1.432   6.372   7.171  0.8281  0.3943 -1.4018
   26SAPC   H4Y 3485   1.286   6.462   7.214  0.2842  1.2923  1.1624
   26SAPC   C35 3486   1.457   6.551   7.321  0.4136  0.0781 -0.0298
   26SAPC   H5X 3487   1.414   6.652   7.303 -1.9196 -1.1876 -2.2769
   26SAPC   H5Y 3488   1.567   6.544   7.309  0.4921  0.5771  0.4061
   26SAPC   C36 3489   1.403   6.505   7.453  0.3024  0.0187 -0.5752
   26SAPC   H6X 3490   1.298   6.471   7.441  0.6190 -0.5062 -2.0610
   26SAPC   H6Y 3491   1.404   6.589   7.526 -0.7499  0.1902 -0.7355
   26SAPC   C37 3492   1.486   6.393   7.508 -0.0558 -0.5694 -0.0071
   26SAPC   H7X 3493   1.591   6.423   7.485  0.3875  0.1938  2.6827
   26SAPC   H7Y 3494   1.463   6.297   7.458  2.1755 -0.2555 -1.8470
   26SAPC   C38 3495   1.471   6.378   7.658  0.9010 -0.2540 -0.2279
   26SAPC   H8X 3496   1.538   6.293   7.686  1.7296  0.7226  0.8709
   26SAPC   H8Y 3497   1.363   6.353   7.665  0.7906 -0.1250 -1.2631
   26SAPC   C39 3498   1.487   6.496   7.754  0.0424 -0.1866  0.4229
   26SAPC   H9X 3499   1.451   6.596   7.721  0.1075 -0.6791 -1.2478
   26SAPC   H9Y 3500   1.597   6.504   7.762  0.3973 -1.8000 -1.8757
   26SAPC  C310 3501   1.423   6.472   7.886  0.5406  0.1689  0.3936
   26SAPC  H10X 3502   1.315   6.447   7.877  0.7357  0.0503 -3.4336
   26SAPC  H10Y 3503   1.436   6.565   7.944  2.5295 -0.0799  0.4315
   26SAPC  C311 3504   1.489   6.362   7.968  0.5079 -0.1846  0.0886
   26SAPC  H11X 3505   1.599   6.372   7.956  0.5116 -1.6334 -1.5130
   26SAPC  H11Y 3506   1.470   6.259   7.930  2.2597 -0.7818  0.7308
   26SAPC  C312 3507   1.454   6.387   8.118  0.7188  0.0519  0.7130
   26SAPC  H12X 3508   1.344   6.390   8.136  0.5017  1.9731 -0.6459
   26SAPC  H12Y 3509   1.493   6.488   8.146 -1.0871  0.5240  1.6566
   26SAPC  C313 3510   1.514   6.290   8.212 -0.0343 -0.4763  0.1038
   26SAPC  H13X 3511   1.624   6.296   8.198  0.0055  3.0823  1.0559
   26SAPC  H13Y 3512   1.477   6.188   8.189 -0.7060 -0.7283  2.0974
   26SAPC  C314 3513   1.463   6.310   8.356  0.2811  0.3279 -0.1057
   26SAPC  H14X 3514   1.466   6.220   8.420 -0.2141  3.1139  4.2151
   26SAPC  H14Y 3515   1.362   6.357   8.362  0.4778  0.6924  0.4357
   26SAPC  C315 3516   1.549   6.403   8.447  0.5873  0.2256 -0.4414
   26SAPC  H15X 3517   1.551   6.501   8.394  1.0576 -0.8091 -2.4683
   26SAPC  H15Y 3518   1.650   6.357   8.443  0.1175 -0.9489  0.5607
   26SAPC  C316 3519   1.502   6.424   8.594  0.3208 -0.6110 -0.6416
   26SAPC  H16X 3520   1.511   6.337   8.663 -0.8369 -0.0647  0.2436
   26SAPC  H16Y 3521   1.396   6.457   8.601  0.4240 -0.6213  2.7069
   26SAPC  C317 3522   1.585   6.536   8.667 -0.1339 -0.0461 -0.3946
   26SAPC  H17X 3523   1.556   6.528   8.774  0.1679  2.7398 -0.0279
   26SAPC  H17Y 3524   1.555   6.635   8.628 -2.0517 -0.4402 -0.0457
   26SAPC  C318 3525   1.738   6.513   8.659 -0.1125 -0.6589 -0.0231
   26SAPC  H18X 3526   1.802   6.554   8.740  0.5255 -0.3462 -0.6717
   26SAPC  H18Y 3527   1.778   6.540   8.559  0.9851 -2.0428  0.0190
   26SAPC  H18Z 3528   1.766   6.408   8.680 -0.9941 -1.1044 -0.9852
   27SAPC     N 3529   6.730   5.907   6.415 -0.0849 -0.2902 -0.4754
   27SAPC   C12 3530   6.821   6.023   6.447 -0.1902 -0.0519  0.5715
   27SAPC  H12A 3531   6.861   6.067   6.357 -1.9978 -0.7695 -0.6544
   27SAPC  H12B 3532   6.913   5.982   6.486  1.2882  1.7837 -0.7985
   27SAPC   C13 3533   6.812   5.802   6.341  0.6554  0.6849  0.8075
   27SAPC  H13A 3534   6.887   5.854   6.284 -0.5444  2.1828  0.5183
   27SAPC  H13B 3535   6.864   5.744   6.416  1.4915 -1.9510 -1.6367
   27SAPC  H13C 3536   6.742   5.742   6.285  0.4607  2.4741 -0.9761
   27SAPC   C14 3537   6.680   5.844   6.538 -0.4232 -0.2410  0.3423
   27SAPC  H14A 3538   6.752   5.782   6.588 -0.0901  0.6048  0.9366
   27SAPC  H14B 3539   6.634   5.915   6.606 -1.9132 -0.5994 -0.2677
   27SAPC  H14C 3540   6.599   5.775   6.518 -0.9210 -0.4517  2.7982
   27SAPC   C15 3541   6.621   5.945   6.321 -0.3268 -0.3307  0.3603
   27SAPC  H15A 3542   6.566   6.030   6.358 -2.1112 -0.8869 -0.9336
   27SAPC  H15B 3543   6.655   5.964   6.220  0.2908  0.7582  0.7503
   27SAPC  H15C 3544   6.550   5.865   6.310 -1.6558  1.1389 -3.2071
   27SAPC   C11 3545   6.766   6.139   6.533  0.3701  0.9585  0.4314
   27SAPC  H11A 3546   6.846   6.217   6.536  0.3648  1.0060  4.0077
   27SAPC  H11B 3547   6.742   6.116   6.639  0.5188  3.8009  1.1703
   27SAPC     P 3548   6.679   6.300   6.352  0.1245 -0.3224 -0.0609
   27SAPC   O13 3549   6.773   6.248   6.243  0.3614  0.1887 -0.4498
   27SAPC   O14 3550   6.545   6.344   6.314 -0.0990  0.1388  0.5378
   27SAPC   O12 3551   6.656   6.197   6.469  0.2371  0.1671 -0.1548
   27SAPC   O11 3552   6.747   6.421   6.426  0.6588  0.6994  0.4372
   27SAPC    C1 3553   6.672   6.507   6.511  0.5153 -0.3287 -0.3575
   27SAPC    HA 3554   6.658   6.601   6.454  1.2353 -1.6537 -2.8496
   27SAPC    HB 3555   6.573   6.468   6.545 -0.8897  3.3667  0.3080
   27SAPC    C2 3556   6.751   6.535   6.639  0.4779 -0.4799 -0.5141
   27SAPC    HS 3557   6.852   6.573   6.615  0.3557 -0.3671 -0.8527
   27SAPC   O21 3558   6.770   6.408   6.711 -0.0158 -0.0940 -0.3159
   27SAPC   C21 3559   6.849   6.416   6.824 -0.5921  0.2510 -0.1023
   27SAPC   O22 3560   6.922   6.507   6.853 -0.3671  0.1324  0.3814
   27SAPC   C22 3561   6.827   6.287   6.910  0.5613 -0.3069  0.6558
   27SAPC   H2R 3562   6.719   6.302   6.932  0.6539  0.9916  0.2883
   27SAPC   H2S 3563   6.836   6.193   6.850  1.4684  0.0068  0.2928
   27SAPC    C3 3564   6.681   6.646   6.726 -0.5706 -0.0252  0.1237
   27SAPC    HX 3565   6.629   6.723   6.665 -0.8806 -0.0826  0.3153
   27SAPC    HY 3566   6.761   6.702   6.778  1.6601 -3.7789  1.1559
   27SAPC   O31 3567   6.603   6.590   6.827  0.3510  0.2308  0.2183
   27SAPC   C31 3568   6.497   6.655   6.876  0.8032 -0.5641 -0.2062
   27SAPC   O32 3569   6.483   6.777   6.881  0.3741 -0.3579  0.0170
   27SAPC   C32 3570   6.397   6.561   6.929  0.5470  0.5074 -0.0213
   27SAPC   H2X 3571   6.449   6.463   6.930 -0.0424  0.1568 -1.5939
   27SAPC   H2Y 3572   6.308   6.562   6.862 -0.0303  2.8683  0.6722
   27SAPC   C23 3573   6.903   6.273   7.043  0.4926 -0.3261  0.2795
   27SAPC   H3R 3574   6.905   6.378   7.081 -0.6530  0.1802 -0.9974
   27SAPC   H3S 3575   7.007   6.245   7.017  0.2733 -0.1969 -0.7678
   27SAPC   C24 3576   6.851   6.175   7.139  0.4788 -0.3311  0.1390
   27SAPC   H4R 3577   6.859   6.072   7.099 -0.3365 -0.3701  0.0546
   27SAPC   H4S 3578   6.741   6.192   7.150  0.9201  1.9186  1.6935
   27SAPC   C25 3579   6.937   6.189   7.261  0.3171  0.2366 -0.1661
   27SAPC   H5R 3580   7.013   6.110   7.257 -0.6360 -0.6729 -1.0833
   27SAPC   C26 3581   6.923   6.268   7.370 -0.1118 -0.1847  0.1429
   27SAPC   H6R 3582   6.994   6.257   7.453  0.1500 -0.9555 -0.1762
   27SAPC   C27 3583   6.801   6.366   7.384 -0.2997  0.1343  0.4345
   27SAPC   H7R 3584   6.726   6.309   7.443  0.5291  0.4727  1.8628
   27SAPC   H7S 3585   6.751   6.390   7.287 -2.4714 -0.6821  1.2909
   27SAPC   C28 3586   6.843   6.489   7.455  0.0079  1.1011 -0.1694
   27SAPC   H8R 3587   6.935   6.539   7.419  0.4653  0.2198 -0.2494
   27SAPC   C29 3588   6.792   6.557   7.562 -0.1588  0.0825  0.6325
   27SAPC   H9R 3589   6.848   6.643   7.604 -2.4042  2.0316 -0.1246
   27SAPC  C210 3590   6.660   6.520   7.630  0.1396  0.6089  0.0284
   27SAPC  H10R 3591   6.640   6.411   7.625  1.3795  0.3603  0.0967
   27SAPC  H10S 3592   6.571   6.567   7.584 -1.8931 -2.9809 -0.0926
   27SAPC  C211 3593   6.689   6.559   7.774  0.1187 -0.8660 -0.1780
   27SAPC  H11R 3594   6.754   6.496   7.835 -0.9791 -0.0235  1.9902
   27SAPC  C212 3595   6.640   6.668   7.835  0.3769 -0.1182  0.2018
   27SAPC  H12R 3596   6.648   6.687   7.943 -1.2702  0.3612  0.2682
   27SAPC  C213 3597   6.557   6.778   7.772 -0.3261  0.0835  0.9832
   27SAPC  H13R 3598   6.453   6.773   7.811  0.2548 -0.5231  2.5133
   27SAPC  H13S 3599   6.552   6.763   7.662  0.6207 -0.2082  0.9683
   27SAPC  C214 3600   6.608   6.917   7.802  0.1120  0.3668  0.9196
   27SAPC  H14R 3601   6.707   6.923   7.849  1.7443  1.6218 -2.3358
   27SAPC  C215 3602   6.546   7.029   7.757 -0.4375 -0.1874 -0.1181
   27SAPC  H15R 3603   6.579   7.127   7.794  1.3806 -1.7778  2.8097
   27SAPC  C216 3604   6.418   7.029   7.670  0.8793  0.6487 -0.0828
   27SAPC  H16R 3605   6.337   7.080   7.726 -0.1124  0.6673 -1.5041
   27SAPC  H16S 3606   6.374   6.928   7.657  2.2485 -0.1405  1.1140
   27SAPC  C217 3607   6.433   7.095   7.533  0.1428  0.8426 -0.0376
   27SAPC  H17R 3608   6.530   7.060   7.492  0.4733 -0.1800  1.5069
   27SAPC  H17S 3609   6.460   7.202   7.547  2.7631  0.1967  0.4502
   27SAPC  C218 3610   6.312   7.075   7.439 -0.3216  0.5811  0.3231
   27SAPC  H18R 3611   6.235   7.134   7.493 -1.5197 -0.5374 -0.1123
   27SAPC  H18S 3612   6.271   6.973   7.425 -1.2452  0.7607  1.6263
   27SAPC  C219 3613   6.339   7.135   7.298 -0.4250 -0.0085  0.0633
   27SAPC  H19R 3614   6.407   7.068   7.240  0.2613  0.7940 -0.0698
   27SAPC  H19S 3615   6.386   7.234   7.314  0.8285 -0.4129 -0.9009
   27SAPC  C220 3616   6.208   7.144   7.215  0.2075 -0.3342  0.6055
   27SAPC  H20R 3617   6.121   7.162   7.280 -0.5445 -4.7889  1.1294
   27SAPC  H20S 3618   6.186   7.045   7.171  0.5001 -0.9990  1.9184
   27SAPC  H20T 3619   6.233   7.218   7.136  0.4585 -0.7630  0.2798
   27SAPC   C33 3620   6.344   6.585   7.081 -0.1770  0.1570  0.0738
   27SAPC   H3X 3621   6.261   6.515   7.101 -0.3343  0.6182  1.0890
   27SAPC   H3Y 3622   6.321   6.692   7.098  0.5734 -0.0041  2.4067
   27SAPC   C34 3623   6.453   6.552   7.181 -0.1080  0.1833 -0.4997
   27SAPC   H4X 3624   6.533   6.627   7.166  0.4246 -0.6425 -1.9715
   27SAPC   H4Y 3625   6.488   6.447   7.168 -0.8713  0.0524 -1.5969
   27SAPC   C35 3626   6.411   6.557   7.328 -0.5272  0.3676  0.1944
   27SAPC   H5X 3627   6.508   6.538   7.378 -2.0344 -1.1442  2.7840
   27SAPC   H5Y 3628   6.359   6.462   7.356 -1.9026  1.1451  0.3902
   27SAPC   C36 3629   6.333   6.680   7.373  0.0988  0.5365  0.2336
   27SAPC   H6X 3630   6.242   6.690   7.310 -0.2064 -0.6916  0.4573
   27SAPC   H6Y 3631   6.400   6.767   7.353  1.1949  0.1317  1.9403
   27SAPC   C37 3632   6.275   6.677   7.515  0.6292  0.9933 -0.1420
   27SAPC   H7X 3633   6.253   6.785   7.529 -0.4319  0.7625  0.0613
   27SAPC   H7Y 3634   6.352   6.634   7.583  0.3708 -2.0550 -1.5921
   27SAPC   C38 3635   6.140   6.599   7.534 -1.0509 -0.1229 -0.2165
   27SAPC   H8X 3636   6.170   6.492   7.523 -0.4788  0.1416 -1.2988
   27SAPC   H8Y 3637   6.062   6.630   7.462 -3.5062 -0.0682  2.3108
   27SAPC   C39 3638   6.088   6.635   7.673  0.5451 -0.5887 -0.6196
   27SAPC   H9X 3639   5.992   6.587   7.701 -0.7920  2.4799  0.6206
   27SAPC   H9Y 3640   6.059   6.742   7.681 -0.6168 -0.8897 -0.6302
   27SAPC  C310 3641   6.195   6.606   7.781  0.5268  0.3749 -0.0412
   27SAPC  H10X 3642   6.260   6.696   7.781 -0.2277  0.9352  0.6375
   27SAPC  H10Y 3643   6.248   6.510   7.760 -1.0926 -0.2717 -1.4290
   27SAPC  C311 3644   6.134   6.590   7.923  0.2092  0.3383  0.3846
   27SAPC  H11X 3645   6.040   6.530   7.921  0.7155 -0.5826  2.0160
   27SAPC  H11Y 3646   6.118   6.694   7.957  0.1621  1.1919 -2.0349
   27SAPC  C312 3647   6.222   6.519   8.020 -0.6784  0.0067  0.1895
   27SAPC  H12X 3648   6.264   6.428   7.973  0.8014 -0.4949  2.3496
   27SAPC  H12Y 3649   6.165   6.488   8.110 -0.3130 -1.0153  0.0799
   27SAPC  C313 3650   6.340   6.608   8.066  0.6035 -0.4800  0.2409
   27SAPC  H13X 3651   6.293   6.700   8.108 -0.3324 -0.1207 -1.4924
   27SAPC  H13Y 3652   6.394   6.640   7.975  1.5852 -1.6475  0.3990
   27SAPC  C314 3653   6.438   6.542   8.154  0.3458 -0.2450 -0.3609
   27SAPC  H14X 3654   6.535   6.597   8.161  1.4800 -1.8098 -2.5355
   27SAPC  H14Y 3655   6.470   6.443   8.114  1.8406  0.2912 -0.5708
   27SAPC  C315 3656   6.395   6.540   8.304  0.0747 -0.2654  0.1341
   27SAPC  H15X 3657   6.307   6.472   8.309 -1.6567  1.7828 -1.0206
   27SAPC  H15Y 3658   6.352   6.640   8.330  0.7644  0.6523 -2.0693
   27SAPC  C316 3659   6.502   6.482   8.397  0.5364  0.1241 -0.3523
   27SAPC  H16X 3660   6.531   6.377   8.373 -0.1038 -0.0151 -0.5236
   27SAPC  H16Y 3661   6.451   6.478   8.495  0.1231 -1.4850 -0.6102
   27SAPC  C317 3662   6.622   6.580   8.403  0.0936 -0.1463  0.4660
   27SAPC  H17X 3663   6.565   6.675   8.406 -0.9346 -0.6514 -1.4120
   27SAPC  H17Y 3664   6.673   6.575   8.304  1.3919  0.3643  1.0917
   27SAPC  C318 3665   6.722   6.551   8.512  0.1189 -0.1224 -0.3360
   27SAPC  H18X 3666   6.776   6.458   8.484 -2.2389 -1.0460 -2.1642
   27SAPC  H18Y 3667   6.666   6.525   8.604 -0.5495  0.9960 -0.4078
   27SAPC  H18Z 3668   6.799   6.631   8.526  1.7946 -1.9612  1.6471
   28SAPC     N 3669   0.422   4.161   5.790  0.0754 -0.2085 -0.5395
   28SAPC   C12 3670   0.445   4.271   5.893 -0.8131  0.4385  0.2907
   28SAPC  H12A 3671   0.374   4.353   5.892 -0.5777  0.7916  3.0138
   28SAPC  H12B 3672   0.540   4.320   5.882 -1.5189  2.3211  1.8746
   28SAPC   C13 3673   0.289   4.098   5.805  0.2891  0.5162 -0.4801
   28SAPC  H13A 3674   0.209   4.164   5.774  0.2488  0.5710 -0.2655
   28SAPC  H13B 3675   0.277   4.013   5.740 -2.1948  1.0745 -0.8620
   28SAPC  H13C 3676   0.267   4.071   5.907 -0.2314  2.1830 -0.1182
   28SAPC   C14 3677   0.426   4.223   5.657 -0.3956  0.0756 -0.0996
   28SAPC  H14A 3678   0.414   4.146   5.582 -1.2657 -1.8140  1.8555
   28SAPC  H14B 3679   0.346   4.295   5.647 -0.4792  0.4629  2.5824
   28SAPC  H14C 3680   0.525   4.261   5.638  0.5492 -2.4192 -0.5120
   28SAPC   C15 3681   0.520   4.053   5.807 -0.0542 -0.3193 -0.2549
   28SAPC  H15A 3682   0.619   4.095   5.793 -1.0184  1.5419 -1.8504
   28SAPC  H15B 3683   0.512   4.007   5.904  0.0658  0.1529 -0.0157
   28SAPC  H15C 3684   0.501   3.973   5.737 -0.5680  1.0869 -1.7857
   28SAPC   C11 3685   0.440   4.226   6.041  0.1753 -0.1528  1.2246
   28SAPC  H11A 3686   0.461   4.316   6.103  0.6863 -0.5530  1.6399
   28SAPC  H11B 3687   0.525   4.158   6.064  2.0633  1.6302 -0.1505
   28SAPC     P 3688   0.202   4.249   6.119  0.2629  0.1384  0.0928
   28SAPC   O13 3689   0.222   4.384   6.049 -0.6974 -0.1804  0.1699
   28SAPC   O14 3690   0.075   4.183   6.086  0.0614 -0.1620  0.1354
   28SAPC   O12 3691   0.316   4.159   6.076  0.7211  0.4698 -0.1237
   28SAPC   O11 3692   0.232   4.262   6.280  0.0089 -0.0845  0.4708
   28SAPC    C1 3693   0.292   4.161   6.358 -0.1624 -0.3284 -0.8598
   28SAPC    HA 3694   0.347   4.091   6.292 -0.0781  1.1118 -2.3763
   28SAPC    HB 3695   0.363   4.210   6.427 -1.6613  0.4021  0.2367
   28SAPC    C2 3696   0.186   4.080   6.438 -0.0965  0.7274  0.0018
   28SAPC    HS 3697   0.116   4.050   6.357  1.1393  0.5495 -1.0329
   28SAPC   O21 3698   0.117   4.168   6.533  0.5094  0.2890  0.6774
   28SAPC   C21 3699  -0.009   4.169   6.525  0.0366 -1.1672 -0.1881
   28SAPC   O22 3700  -0.078   4.106   6.449  0.3987  0.3051 -0.4470
   28SAPC   C22 3701  -0.063   4.279   6.621 -0.1309  0.2781  0.1844
   28SAPC   H2R 3702   0.013   4.305   6.699 -0.5997 -0.0850  0.7730
   28SAPC   H2S 3703  -0.088   4.368   6.559  0.2892 -0.3806 -0.9362
   28SAPC    C3 3704   0.244   3.952   6.511  0.6653 -0.9959 -0.1925
   28SAPC    HX 3705   0.320   3.990   6.583  0.1325 -0.0659 -0.1132
   28SAPC    HY 3706   0.298   3.889   6.438  1.4214  0.9613 -1.3847
   28SAPC   O31 3707   0.138   3.889   6.590  0.1676  0.0594 -0.5094
   28SAPC   C31 3708   0.117   3.929   6.715  1.2122  0.1135  0.3649
   28SAPC   O32 3709   0.172   4.013   6.779 -0.4879 -0.2298 -0.1014
   28SAPC   C32 3710  -0.011   3.859   6.755 -0.8859  0.3754 -0.3349
   28SAPC   H2X 3711  -0.000   3.755   6.717 -1.1897  0.9823 -2.2114
   28SAPC   H2Y 3712  -0.095   3.890   6.688 -0.1202 -0.6967 -1.8598
   28SAPC   C23 3713  -0.193   4.231   6.701 -0.3173  0.3847 -0.6196
   28SAPC   H3R 3714  -0.158   4.150   6.768 -2.1297 -0.5429 -0.7488
   28SAPC   H3S 3715  -0.258   4.189   6.622  2.2890  1.5506 -3.5938
   28SAPC   C24 3716  -0.256   4.351   6.776 -0.4300  0.2330 -0.0381
   28SAPC   H4R 3717  -0.352   4.314   6.819 -0.8206  2.4819  1.1975
   28SAPC   H4S 3718  -0.190   4.362   6.865 -1.1250 -1.3259  0.7125
   28SAPC   C25 3719  -0.278   4.474   6.696  0.2107  0.6781 -1.3140
   28SAPC   H5R 3720  -0.186   4.522   6.661  0.6139  1.1500  0.3170
   28SAPC   C26 3721  -0.394   4.536   6.675 -0.2082  0.5814  0.5318
   28SAPC   H6R 3722  -0.390   4.627   6.615  1.9790  0.6801  0.7420
   28SAPC   C27 3723  -0.535   4.503   6.718 -0.9887  0.0584  0.5801
   28SAPC   H7R 3724  -0.533   4.449   6.815  0.2219  1.6020  1.4517
   28SAPC   H7S 3725  -0.570   4.432   6.639 -0.5864  1.5525 -0.9978
   28SAPC   C28 3726  -0.633   4.617   6.724  0.1841  0.0470 -0.4822
   28SAPC   H8R 3727  -0.640   4.685   6.638  1.2677  1.5344  0.5595
   28SAPC   C29 3728  -0.700   4.651   6.832  0.7235 -0.5926 -0.0058
   28SAPC   H9R 3729  -0.772   4.733   6.830  1.8264  0.5037  1.9732
   28SAPC  C210 3730  -0.698   4.587   6.970  0.1753  0.0991 -0.0024
   28SAPC  H10R 3731  -0.699   4.665   7.050 -1.5744 -0.4172  0.5136
   28SAPC  H10S 3732  -0.602   4.532   6.983 -0.2603  0.0163  4.6370
   28SAPC  C211 3733  -0.807   4.486   6.999  0.0012 -0.5417 -0.9606
   28SAPC  H11R 3734  -0.850   4.441   6.908 -1.3521  0.2800 -0.7638
   28SAPC  C212 3735  -0.876   4.465   7.119  0.5731 -0.1068  0.1522
   28SAPC  H12R 3736  -0.953   4.386   7.118  0.3509  0.0809  0.9280
   28SAPC  C213 3737  -0.856   4.551   7.239 -0.6851  0.2947 -0.5406
   28SAPC  H13R 3738  -0.846   4.658   7.211 -2.2838  0.6230  0.0621
   28SAPC  H13S 3739  -0.759   4.519   7.284 -1.1698  2.0700  2.0067
   28SAPC  C214 3740  -0.965   4.554   7.345 -0.5724 -0.9580 -0.6292
   28SAPC  H14R 3741  -1.067   4.577   7.310 -0.6637  3.1888  1.7602
   28SAPC  C215 3742  -0.947   4.558   7.479  0.0779  0.6840  0.5871
   28SAPC  H15R 3743  -1.039   4.549   7.538  0.3761 -0.6466  0.8886
   28SAPC  C216 3744  -0.816   4.549   7.552 -0.2516  0.0395 -0.0780
   28SAPC  H16R 3745  -0.781   4.650   7.580 -2.2069  0.8577 -0.4025
   28SAPC  H16S 3746  -0.734   4.506   7.491  0.7303 -0.3530  1.4679
   28SAPC  C217 3747  -0.829   4.463   7.683 -0.6805  0.4285  0.0641
   28SAPC  H17R 3748  -0.733   4.469   7.739  0.3193  2.4225 -1.6884
   28SAPC  H17S 3749  -0.852   4.357   7.662  1.1444 -0.0749  0.4329
   28SAPC  C218 3750  -0.938   4.516   7.783  0.0617 -0.7152  0.4722
   28SAPC  H18R 3751  -1.038   4.505   7.738 -0.2520  1.2296  0.5868
   28SAPC  H18S 3752  -0.916   4.625   7.792 -0.3752 -0.6268  0.4739
   28SAPC  C219 3753  -0.930   4.461   7.918 -0.1147 -0.6358  0.3276
   28SAPC  H19R 3754  -0.829   4.473   7.964  0.3365  0.1880 -0.8434
   28SAPC  H19S 3755  -0.939   4.351   7.908 -1.4027 -0.5889  0.8352
   28SAPC  C220 3756  -1.041   4.505   8.011  0.8603 -0.3756  0.0008
   28SAPC  H20R 3757  -1.034   4.456   8.110  2.0838  1.1272  0.6958
   28SAPC  H20S 3758  -1.142   4.478   7.971  0.4215  0.5114  0.4837
   28SAPC  H20T 3759  -1.036   4.614   8.033  0.2950 -0.4921  0.7230
   28SAPC   C33 3760  -0.035   3.882   6.904  0.1541 -0.3446  0.2919
   28SAPC   H3X 3761  -0.083   3.980   6.920 -1.4901 -0.9955 -0.5046
   28SAPC   H3Y 3762   0.065   3.879   6.953  1.0563 -1.5983 -1.5012
   28SAPC   C34 3763  -0.131   3.767   6.953 -0.3062 -0.3094 -0.7519
   28SAPC   H4X 3764  -0.085   3.667   6.937  0.8967 -0.1070  1.1134
   28SAPC   H4Y 3765  -0.224   3.752   6.893  0.5532  1.8735 -2.7655
   28SAPC   C35 3766  -0.164   3.765   7.101  0.3490 -0.0326 -0.8414
   28SAPC   H5X 3767  -0.192   3.870   7.124  1.0731 -0.0600  0.2090
   28SAPC   H5Y 3768  -0.075   3.753   7.166 -2.1673  0.2404  2.9807
   28SAPC   C36 3769  -0.263   3.661   7.145  0.4969 -0.6338  0.4195
   28SAPC   H6X 3770  -0.221   3.568   7.101  1.2803  0.3968 -1.0776
   28SAPC   H6Y 3771  -0.361   3.678   7.096  0.3137 -1.6390  0.4151
   28SAPC   C37 3772  -0.275   3.647   7.291  0.4938 -0.1731 -0.4200
   28SAPC   H7X 3773  -0.278   3.748   7.336  2.5380 -0.1091 -0.3363
   28SAPC   H7Y 3774  -0.184   3.594   7.326  0.2517  0.0324  0.5619
   28SAPC   C38 3775  -0.406   3.572   7.338 -0.3042 -0.5743 -0.4732
   28SAPC   H8X 3776  -0.403   3.475   7.285 -1.7110 -0.2736 -1.1607
   28SAPC   H8Y 3777  -0.503   3.612   7.301 -0.3829 -1.2008 -0.9588
   28SAPC   C39 3778  -0.421   3.553   7.494  0.7407  0.3312 -0.0324
   28SAPC   H9X 3779  -0.332   3.495   7.529  0.1254 -0.7742 -0.2291
   28SAPC   H9Y 3780  -0.504   3.479   7.492  1.4724 -0.5056 -0.0657
   28SAPC  C310 3781  -0.439   3.680   7.566  0.3442 -0.3293  0.5443
   28SAPC  H10X 3782  -0.519   3.745   7.526 -1.0369 -2.3393 -0.1043
   28SAPC  H10Y 3783  -0.343   3.736   7.560  0.2591 -0.1845  0.5289
   28SAPC  C311 3784  -0.467   3.637   7.713  0.2886  0.1819  0.8348
   28SAPC  H11X 3785  -0.385   3.570   7.745 -0.4602 -1.6497 -0.8176
   28SAPC  H11Y 3786  -0.561   3.579   7.717  0.0318  0.4684 -0.3682
   28SAPC  C312 3787  -0.494   3.743   7.825  0.1236  1.1262 -0.0935
   28SAPC  H12X 3788  -0.560   3.821   7.782 -0.1853  1.7949  1.5137
   28SAPC  H12Y 3789  -0.400   3.791   7.859  0.2184  0.9987 -0.1784
   28SAPC  C313 3790  -0.576   3.681   7.945  0.0148  0.5290 -0.0258
   28SAPC  H13X 3791  -0.656   3.612   7.908 -1.1799 -0.7840  4.4059
   28SAPC  H13Y 3792  -0.633   3.769   7.983 -1.4683  0.0091 -0.9620
   28SAPC  C314 3793  -0.482   3.616   8.042 -0.1730  0.3746  0.1183
   28SAPC  H14X 3794  -0.383   3.666   8.034  1.1655 -1.9018  1.4887
   28SAPC  H14Y 3795  -0.466   3.514   8.002 -1.3427  0.3432 -0.3278
   28SAPC  C315 3796  -0.543   3.599   8.189 -0.7154  0.0832 -0.0866
   28SAPC  H15X 3797  -0.491   3.521   8.249  1.6961  1.0104 -0.8844
   28SAPC  H15Y 3798  -0.648   3.563   8.181 -0.7013 -0.0607  0.3576
   28SAPC  C316 3799  -0.549   3.725   8.282  0.6638 -0.6911  0.0348
   28SAPC  H16X 3800  -0.603   3.807   8.231  0.0883 -1.8977 -1.3554
   28SAPC  H16Y 3801  -0.451   3.759   8.320  1.6421 -1.3037 -1.8408
   28SAPC  C317 3802  -0.626   3.703   8.415 -0.3886 -0.0818  0.2878
   28SAPC  H17X 3803  -0.563   3.643   8.484 -2.6151 -0.3363  2.2664
   28SAPC  H17Y 3804  -0.716   3.645   8.387  0.0622  0.2516 -2.0308
   28SAPC  C318 3805  -0.661   3.826   8.497  0.0476  0.3333  0.4419
   28SAPC  H18X 3806  -0.695   3.906   8.427  3.1795  1.2650 -0.1526
   28SAPC  H18Y 3807  -0.573   3.862   8.554 -1.1516  2.3185  1.1381
   28SAPC  H18Z 3808  -0.729   3.804   8.582  1.9814 -1.4238  1.6390
   29SAPC     N 3809   1.975   1.580   5.678 -0.1081 -0.5074  1.0893
   29SAPC   C12 3810   2.072   1.622   5.778 -0.3691  0.0837  0.6004
   29SAPC  H12A 3811   2.171   1.637   5.737 -0.5733  1.0949  0.4545
   29SAPC  H12B 3812   2.083   1.543   5.850  2.1668 -1.0420 -0.8771
   29SAPC   C13 3813   2.012   1.444   5.632  0.4282  0.3270  0.2312
   29SAPC  H13A 3814   1.947   1.410   5.553  1.2221 -1.5835  0.3386
   29SAPC  H13B 3815   2.116   1.433   5.603  0.7565 -0.3273  1.5802
   29SAPC  H13C 3816   1.990   1.380   5.716 -2.4802  0.4647 -0.3361
   29SAPC   C14 3817   1.839   1.568   5.742 -0.7480 -0.3606  0.1357
   29SAPC  H14A 3818   1.836   1.499   5.826 -1.3616  0.8216  1.1158
   29SAPC  H14B 3819   1.798   1.663   5.771 -1.4897 -0.2870 -1.1361
   29SAPC  H14C 3820   1.770   1.521   5.674 -0.2252 -1.7995  0.5564
   29SAPC   C15 3821   1.976   1.680   5.567  0.0877  0.1302 -0.2759
   29SAPC  H15A 3822   1.955   1.779   5.604 -0.7364  0.2484 -1.0385
   29SAPC  H15B 3823   2.073   1.701   5.525 -0.7467  1.9421 -1.4021
   29SAPC  H15C 3824   1.913   1.660   5.482 -1.3001 -0.4443  0.8387
   29SAPC   C11 3825   2.027   1.746   5.864 -0.5036  0.5370  1.2684
   29SAPC  H11A 3826   1.961   1.821   5.814  0.1178  0.1993 -0.1032
   29SAPC  H11B 3827   2.115   1.805   5.897  0.0426  0.4172  0.0746
   29SAPC     P 3828   2.047   1.625   6.087 -0.2380 -0.0497 -0.4131
   29SAPC   O13 3829   2.095   1.488   6.059  0.0380 -0.3696  0.1480
   29SAPC   O14 3830   2.153   1.721   6.131  0.5782 -0.2421  0.3264
   29SAPC   O12 3831   1.961   1.682   5.972 -0.2097 -0.7180 -0.3725
   29SAPC   O11 3832   1.955   1.614   6.209  0.0395 -0.2421 -0.0171
   29SAPC    C1 3833   1.877   1.709   6.276  0.0199 -0.0855  0.0547
   29SAPC    HA 3834   1.907   1.811   6.242 -0.3296 -0.1673 -0.5171
   29SAPC    HB 3835   1.770   1.695   6.248  0.1568  1.1429 -1.2021
   29SAPC    C2 3836   1.878   1.696   6.428 -0.7042 -0.4115 -0.9472
   29SAPC    HS 3837   1.795   1.759   6.467 -2.0735 -1.0610 -2.6800
   29SAPC   O21 3838   2.008   1.725   6.485  0.0677  0.2493  0.4270
   29SAPC   C21 3839   2.011   1.837   6.559 -0.3338  0.6042 -0.1207
   29SAPC   O22 3840   1.918   1.915   6.580 -0.4047  0.0900 -0.3197
   29SAPC   C22 3841   2.156   1.871   6.607 -0.0953 -0.3547  0.0045
   29SAPC   H2R 3842   2.222   1.783   6.593 -2.5216 -2.4652  1.0398
   29SAPC   H2S 3843   2.194   1.960   6.553 -1.8329  1.1978  1.2111
   29SAPC    C3 3844   1.841   1.553   6.459  0.4761 -0.5341  0.7407
   29SAPC    HX 3845   1.919   1.493   6.408  0.8796  0.9066 -0.3925
   29SAPC    HY 3846   1.737   1.538   6.421 -0.4151  1.5440  2.1509
   29SAPC   O31 3847   1.833   1.535   6.599 -0.4674  0.3525 -0.4197
   29SAPC   C31 3848   1.805   1.411   6.635  0.2046 -0.2463  0.1026
   29SAPC   O32 3849   1.779   1.322   6.554 -0.3568 -0.0832  0.1596
   29SAPC   C32 3850   1.826   1.393   6.780  0.4947 -0.2908 -0.6470
   29SAPC   H2X 3851   1.934   1.369   6.781  0.5540 -0.1578 -2.0607
   29SAPC   H2Y 3852   1.766   1.309   6.822 -3.3993  2.8118  0.6455
   29SAPC   C23 3853   2.158   1.912   6.757  0.1428  0.6312  0.7630
   29SAPC   H3R 3854   2.087   1.997   6.767 -1.1315 -0.3059  0.0089
   29SAPC   H3S 3855   2.262   1.947   6.778  0.3769 -0.1543  0.9607
   29SAPC   C24 3856   2.111   1.798   6.848 -0.1496  0.0042 -0.2633
   29SAPC   H4R 3857   2.011   1.759   6.820 -0.0680 -0.4498  0.0745
   29SAPC   H4S 3858   2.116   1.827   6.955 -1.3032  0.5124 -0.3349
   29SAPC   C25 3859   2.203   1.674   6.839 -0.4592  0.4202  0.1728
   29SAPC   H5R 3860   2.191   1.600   6.758  2.1457 -1.7328  1.5844
   29SAPC   C26 3861   2.289   1.632   6.930 -0.6745 -0.6797 -0.5888
   29SAPC   H6R 3862   2.343   1.538   6.913  2.1905  0.2369  2.4174
   29SAPC   C27 3863   2.318   1.698   7.059  0.2502 -0.0024 -0.5350
   29SAPC   H7R 3864   2.377   1.634   7.129  1.0637  1.6041  0.3107
   29SAPC   H7S 3865   2.218   1.714   7.105  0.5666  1.7787 -0.4096
   29SAPC   C28 3866   2.397   1.825   7.044 -0.0701 -0.7211  0.0959
   29SAPC   H8R 3867   2.465   1.830   6.957 -1.1669 -1.6620 -0.8485
   29SAPC   C29 3868   2.399   1.919   7.142 -0.5568 -0.5030  0.0869
   29SAPC   H9R 3869   2.464   2.006   7.122 -0.0234 -1.2760 -1.7244
   29SAPC  C210 3870   2.317   1.925   7.271 -0.1232 -0.2542 -0.6240
   29SAPC  H10R 3871   2.242   1.844   7.264 -0.5450  0.0845 -0.0965
   29SAPC  H10S 3872   2.254   2.017   7.277 -1.6828 -1.3065 -0.4419
   29SAPC  C211 3873   2.395   1.903   7.403 -0.4797  0.3831 -0.0218
   29SAPC  H11R 3874   2.465   1.818   7.407 -0.6486  0.2057 -0.7707
   29SAPC  C212 3875   2.408   1.995   7.501 -0.1564 -0.7172  0.2451
   29SAPC  H12R 3876   2.462   1.970   7.593 -1.9730 -2.4079  0.9049
   29SAPC  C213 3877   2.344   2.134   7.498 -0.1876 -0.2346  0.2201
   29SAPC  H13R 3878   2.245   2.136   7.448 -0.4326 -0.5362  0.6852
   29SAPC  H13S 3879   2.409   2.214   7.456 -0.0026 -0.0008  0.9407
   29SAPC  C214 3880   2.316   2.178   7.645 -0.0533  0.2047 -0.0314
   29SAPC  H14R 3881   2.209   2.176   7.669  0.0489  1.7225  0.6574
   29SAPC  C215 3882   2.399   2.209   7.754 -0.9427  0.5130  0.1040
   29SAPC  H15R 3883   2.359   2.226   7.855 -0.7578 -0.3883  0.3336
   29SAPC  C216 3884   2.547   2.229   7.741  0.1738  0.0429  0.7805
   29SAPC  H16R 3885   2.570   2.328   7.696 -0.0226 -1.2200 -2.3534
   29SAPC  H16S 3886   2.595   2.171   7.660  0.6754 -1.0524  1.8233
   29SAPC  C217 3887   2.624   2.191   7.866 -0.3086 -0.7712  0.0388
   29SAPC  H17R 3888   2.588   2.240   7.959 -0.5235  0.6712 -0.7836
   29SAPC  H17S 3889   2.722   2.242   7.864  0.2014 -1.6876  0.5626
   29SAPC  C218 3890   2.641   2.043   7.881 -0.3344  0.1781 -0.5367
   29SAPC  H18R 3891   2.671   2.006   7.781 -0.0636 -0.0294 -0.3798
   29SAPC  H18S 3892   2.539   2.003   7.899  0.2961 -1.0933  0.3048
   29SAPC  C219 3893   2.735   1.990   7.993  0.2755  0.7845  0.3299
   29SAPC  H19R 3894   2.710   1.883   8.006  0.9931  0.3922 -1.3729
   29SAPC  H19S 3895   2.713   2.061   8.076  1.4114  0.6258  0.7736
   29SAPC  C220 3896   2.882   2.012   7.960 -0.2500 -0.2260  0.5621
   29SAPC  H20R 3897   2.887   2.108   7.906  0.5402  0.5664  1.9866
   29SAPC  H20S 3898   2.927   1.926   7.906 -0.5839  0.8532 -1.5120
   29SAPC  H20T 3899   2.938   2.040   8.052  0.2489 -0.1730  0.2484
   29SAPC   C33 3900   1.789   1.524   6.855 -0.0699  0.1215  0.3650
   29SAPC   H3X 3901   1.682   1.547   6.838 -0.3717 -1.7643 -0.5263
   29SAPC   H3Y 3902   1.844   1.612   6.815 -2.8166  2.0469  0.5441
   29SAPC   C34 3903   1.809   1.509   7.007  0.0139  0.1990 -0.4051
   29SAPC   H4X 3904   1.788   1.408   7.048  0.7172  0.3146  0.2571
   29SAPC   H4Y 3905   1.734   1.583   7.044 -2.1037 -0.7771 -2.4637
   29SAPC   C35 3906   1.941   1.548   7.064 -0.4741 -0.4821 -0.6923
   29SAPC   H5X 3907   1.969   1.656   7.059 -0.7578 -0.2797  1.3826
   29SAPC   H5Y 3908   2.022   1.485   7.022  0.0927 -0.4545  0.3358
   29SAPC   C36 3909   1.942   1.521   7.221  0.1059 -0.0236  0.6298
   29SAPC   H6X 3910   1.905   1.418   7.243 -2.4615 -0.1080 -3.0349
   29SAPC   H6Y 3911   1.849   1.574   7.251  0.3418  0.9288 -0.2583
   29SAPC   C37 3912   2.067   1.572   7.289 -0.3208 -0.1164 -0.0393
   29SAPC   H7X 3913   2.077   1.682   7.277 -2.5806  0.2059  0.6078
   29SAPC   H7Y 3914   2.152   1.519   7.241 -0.0116 -0.3947  0.7940
   29SAPC   C38 3915   2.067   1.535   7.443 -0.3519  0.1388  0.0160
   29SAPC   H8X 3916   2.062   1.426   7.463  0.1374  0.3965  1.6930
   29SAPC   H8Y 3917   1.975   1.579   7.488  1.3228  1.0493  2.7895
   29SAPC   C39 3918   2.193   1.591   7.509  0.8045  0.8532  0.1470
   29SAPC   H9X 3919   2.170   1.554   7.611 -1.7288  2.1899  0.1339
   29SAPC   H9Y 3920   2.189   1.702   7.508 -1.3738  0.8363  1.4744
   29SAPC  C310 3921   2.336   1.544   7.481  0.3286  0.1435  0.2928
   29SAPC  H10X 3922   2.401   1.605   7.547  0.7677 -0.4014  0.3745
   29SAPC  H10Y 3923   2.356   1.553   7.372  0.4476 -3.4396 -0.1293
   29SAPC  C311 3924   2.359   1.399   7.514 -0.6197  0.2890 -0.4345
   29SAPC  H11X 3925   2.288   1.327   7.466 -1.6137  0.4365  0.7731
   29SAPC  H11Y 3926   2.359   1.389   7.625 -1.5142  0.9522 -0.3657
   29SAPC  C312 3927   2.500   1.359   7.474 -0.7444 -0.1204  0.3301
   29SAPC  H12X 3928   2.579   1.402   7.540 -0.9283 -1.1720  1.2595
   29SAPC  H12Y 3929   2.515   1.392   7.369 -0.8158  1.8300  0.8791
   29SAPC  C313 3930   2.519   1.208   7.465  1.1204  0.3795  0.1652
   29SAPC  H13X 3931   2.599   1.189   7.391  0.3196  0.8730 -0.8533
   29SAPC  H13Y 3932   2.419   1.175   7.428 -0.1115  2.2394  1.6531
   29SAPC  C314 3933   2.541   1.138   7.601 -0.0336 -0.0023  0.5165
   29SAPC  H14X 3934   2.536   1.028   7.585 -0.7757  0.3112 -1.8061
   29SAPC  H14Y 3935   2.465   1.177   7.671 -2.6657 -0.3484 -1.9748
   29SAPC  C315 3936   2.687   1.163   7.664 -0.1124  0.6610  0.3451
   29SAPC  H15X 3937   2.702   1.273   7.675  2.6793  0.6467 -2.1053
   29SAPC  H15Y 3938   2.759   1.131   7.586 -0.8108 -0.2259  0.0604
   29SAPC  C316 3939   2.721   1.085   7.789 -0.2534  0.0145 -0.7355
   29SAPC  H16X 3940   2.665   1.127   7.875 -0.9116 -1.6334 -0.3311
   29SAPC  H16Y 3941   2.828   1.111   7.809 -0.2219  0.2280 -1.1623
   29SAPC  C317 3942   2.695   0.934   7.767 -0.4008  0.1668 -0.8017
   29SAPC  H17X 3943   2.767   0.912   7.686  1.1588  2.4738 -0.1327
   29SAPC  H17Y 3944   2.587   0.924   7.742 -0.7003  0.5244  0.2937
   29SAPC  C318 3945   2.726   0.849   7.892  0.0779  0.3884  0.3776
   29SAPC  H18X 3946   2.669   0.872   7.984  1.5644 -0.2734  1.5005
   29SAPC  H18Y 3947   2.835   0.847   7.909  0.7157 -2.0016 -3.0640
   29SAPC  H18Z 3948   2.702   0.749   7.850  1.8377 -1.4704  3.4819
   30SAPC     N 3949   4.282   1.480   6.179  0.5817  0.0242 -0.3661
   30SAPC   C12 3950   4.216   1.603   6.207  0.4397 -0.2574 -0.7977
   30SAPC  H12A 3951   4.274   1.685   6.248 -0.9377  0.8389 -0.9988
   30SAPC  H12B 3952   4.143   1.590   6.285  2.1408  1.2574  1.1560
   30SAPC   C13 3953   4.350   1.424   6.297 -0.6197 -0.1022 -0.3287
   30SAPC  H13A 3954   4.409   1.340   6.264  0.3270  0.7964 -0.9790
   30SAPC  H13B 3955   4.422   1.494   6.336  0.9420 -0.8536 -1.7116
   30SAPC  H13C 3956   4.285   1.393   6.377  2.1457  1.5431  2.7532
   30SAPC   C14 3957   4.186   1.377   6.133  0.5346  0.0548  0.5045
   30SAPC  H14A 3958   4.229   1.279   6.120  3.4350  1.0088  1.9234
   30SAPC  H14B 3959   4.100   1.368   6.198 -1.0576 -2.1541 -1.7268
   30SAPC  H14C 3960   4.137   1.415   6.044 -0.0867  0.8467  1.1670
   30SAPC   C15 3961   4.383   1.500   6.065  0.1750 -0.1250 -0.1646
   30SAPC  H15A 3962   4.337   1.563   5.989  2.5024 -0.6201 -2.1234
   30SAPC  H15B 3963   4.461   1.563   6.106 -0.7814  0.3947  0.9262
   30SAPC  H15C 3964   4.421   1.407   6.026  1.4534  0.3167 -0.0319
   30SAPC   C11 3965   4.133   1.677   6.096 -0.3817  0.1759 -0.1278
   30SAPC  H11A 3966   4.176   1.691   5.995 -1.3616 -3.6793 -1.2149
   30SAPC  H11B 3967   4.124   1.777   6.145  0.9426  0.2236  0.0594
   30SAPC     P 3968   3.872   1.668   6.047 -0.2705  0.2698 -0.4703
   30SAPC   O13 3969   3.855   1.809   6.083 -0.4017 -0.6080  0.2116
   30SAPC   O14 3970   3.859   1.634   5.909  0.3224  0.0403  0.5681
   30SAPC   O12 3971   4.007   1.605   6.096 -0.8286  0.0860  0.0898
   30SAPC   O11 3972   3.762   1.578   6.121 -0.4171 -0.6524 -0.6700
   30SAPC    C1 3973   3.787   1.463   6.201 -0.5514  0.0765  0.0070
   30SAPC    HA 3974   3.698   1.397   6.209  0.7706 -1.8303 -0.2447
   30SAPC    HB 3975   3.867   1.407   6.147  0.8534  2.9878 -1.1290
   30SAPC    C2 3976   3.827   1.502   6.345 -0.4075  0.1864  0.0565
   30SAPC    HS 3977   3.934   1.530   6.351  0.1180 -1.6405  0.0700
   30SAPC   O21 3978   3.805   1.386   6.424 -0.3658  0.1068  0.0334
   30SAPC   C21 3979   3.910   1.308   6.450  0.3194 -0.8855 -0.3805
   30SAPC   O22 3980   4.022   1.317   6.410  0.1270 -0.4541  0.1927
   30SAPC   C22 3981   3.860   1.197   6.543  0.1055  0.2060 -0.8669
   30SAPC   H2R 3982   3.793   1.121   6.497 -1.1327 -0.2470  1.5131
   30SAPC   H2S 3983   3.954   1.144   6.567  2.0002  2.8593 -1.9659
   30SAPC    C3 3984   3.746   1.617   6.397  0.8466 -0.0120 -0.8765
   30SAPC    HX 3985   3.639   1.590   6.385  0.7148  0.7121 -1.3757
   30SAPC    HY 3986   3.757   1.706   6.332 -0.2831  0.7672 -0.0448
   30SAPC   O31 3987   3.768   1.643   6.534  0.6618  0.6162  0.2707
   30SAPC   C31 3988   3.724   1.763   6.579  0.7499  0.4858  0.1559
   30SAPC   O32 3989   3.647   1.833   6.514 -0.1789 -0.0036 -0.1850
   30SAPC   C32 3990   3.769   1.799   6.718 -0.1035 -0.2797 -0.5031
   30SAPC   H2X 3991   3.683   1.823   6.785  1.4282 -0.3676  1.6155
   30SAPC   H2Y 3992   3.830   1.892   6.720  1.9581 -1.5183  2.6692
   30SAPC   C23 3993   3.789   1.249   6.673 -0.3773  1.1468 -0.5954
   30SAPC   H3R 3994   3.682   1.252   6.645 -0.5198 -2.0148 -0.7098
   30SAPC   H3S 3995   3.825   1.349   6.704  2.3926  0.9880 -2.8998
   30SAPC   C24 3996   3.800   1.141   6.790 -0.0887  0.1414 -0.0128
   30SAPC   H4R 3997   3.777   1.038   6.756  0.5413 -0.0251  0.0392
   30SAPC   H4S 3998   3.718   1.155   6.864 -0.6056 -2.0848 -0.1123
   30SAPC   C25 3999   3.942   1.145   6.853 -0.3802  0.0613 -0.3226
   30SAPC   H5R 4000   4.032   1.160   6.792  0.3414  1.3465  1.0074
   30SAPC   C26 4001   3.964   1.121   6.983  0.1922  0.3438 -0.2203
   30SAPC   H6R 4002   4.068   1.110   7.018  0.3938  0.1029 -0.8860
   30SAPC   C27 4003   3.864   1.082   7.089 -0.1072  0.1196 -0.0932
   30SAPC   H7R 4004   3.866   0.971   7.087  2.1185 -0.0290  2.8825
   30SAPC   H7S 4005   3.760   1.118   7.073 -1.0370 -2.4756 -0.3122
   30SAPC   C28 4006   3.919   1.124   7.225 -0.2765  0.3825  0.0715
   30SAPC   H8R 4007   3.928   1.234   7.228 -0.4873  0.3924  0.3422
   30SAPC   C29 4008   3.965   1.055   7.328 -0.2163  0.2245 -0.1592
   30SAPC   H9R 4009   4.004   1.110   7.415 -2.6319  1.1644  0.4241
   30SAPC  C210 4010   3.971   0.908   7.340 -0.3076  0.5971  0.0076
   30SAPC  H10R 4011   3.978   0.859   7.240  1.9353  1.0080 -0.0787
   30SAPC  H10S 4012   3.870   0.880   7.377 -0.2064  1.6121  1.0991
   30SAPC  C211 4013   4.081   0.867   7.431 -0.8014  1.0049 -0.6640
   30SAPC  H11R 4014   4.178   0.840   7.387 -0.7890  0.6427 -0.4230
   30SAPC  C212 4015   4.076   0.870   7.571  0.7278  0.1382  1.0356
   30SAPC  H12R 4016   4.164   0.839   7.629  2.1530 -0.2168 -1.1962
   30SAPC  C213 4017   3.962   0.917   7.653  0.0747 -0.0300 -0.1093
   30SAPC  H13R 4018   3.926   0.827   7.706 -0.6474 -0.9407 -2.0265
   30SAPC  H13S 4019   3.873   0.935   7.588  0.5545  1.4352 -0.4066
   30SAPC  C214 4020   3.979   1.035   7.741  0.4849 -0.2401  0.5410
   30SAPC  H14R 4021   3.957   1.126   7.684  0.3805 -0.7403 -0.2483
   30SAPC  C215 4022   4.026   1.044   7.866 -0.0042 -0.3999 -0.2603
   30SAPC  H15R 4023   4.034   1.137   7.925 -0.3213 -0.8917  0.5772
   30SAPC  C216 4024   4.074   0.925   7.946  0.0429 -0.0336  0.3235
   30SAPC  H16R 4025   4.059   0.830   7.891 -1.1999 -1.3480  2.7905
   30SAPC  H16S 4026   4.018   0.934   8.041  0.7462  1.2057  0.6481
   30SAPC  C217 4027   4.228   0.926   7.963  0.4160  0.2765  0.0354
   30SAPC  H17R 4028   4.281   0.926   7.865  0.2436 -3.2152 -0.1829
   30SAPC  H17S 4029   4.253   0.834   8.019  0.4583  0.3537  0.1448
   30SAPC  C218 4030   4.294   1.034   8.050 -0.2069  0.0573 -0.0226
   30SAPC  H18R 4031   4.236   1.063   8.140  0.8911 -0.1506  0.7740
   30SAPC  H18S 4032   4.324   1.120   7.986 -0.8706  0.3831  0.1043
   30SAPC  C219 4033   4.431   0.984   8.108  0.2658  0.0724  0.1030
   30SAPC  H19R 4034   4.507   0.945   8.038 -1.7312 -0.0873 -2.0761
   30SAPC  H19S 4035   4.393   0.896   8.163 -0.2962 -0.5880 -1.3157
   30SAPC  C220 4036   4.513   1.079   8.202  0.4463  0.4570  0.7503
   30SAPC  H20R 4037   4.545   1.169   8.146  0.2817  2.1044  3.1385
   30SAPC  H20S 4038   4.608   1.031   8.233 -0.4349 -1.1134  1.1509
   30SAPC  H20T 4039   4.456   1.105   8.294 -1.9783 -0.2702 -0.4447
   30SAPC   C33 4040   3.820   1.684   6.802  1.1062 -0.7205 -0.5993
   30SAPC   H3X 4041   3.930   1.674   6.796  1.2015  0.9741 -3.1356
   30SAPC   H3Y 4042   3.775   1.586   6.776  0.4205 -0.2394 -1.2687
   30SAPC   C34 4043   3.790   1.729   6.946  0.2004  0.2720 -0.3234
   30SAPC   H4X 4044   3.680   1.727   6.965 -0.0002 -0.3894 -1.4995
   30SAPC   H4Y 4045   3.823   1.835   6.953  0.6298  0.3874 -3.1416
   30SAPC   C35 4046   3.863   1.654   7.061 -0.1138  0.5304 -0.8730
   30SAPC   H5X 4047   3.970   1.665   7.034  0.0157 -0.5221 -0.8184
   30SAPC   H5Y 4048   3.831   1.548   7.074 -1.1393  0.7831 -1.2000
   30SAPC   C36 4049   3.852   1.725   7.192 -0.5705 -0.0032 -0.4623
   30SAPC   H6X 4050   3.748   1.728   7.230 -0.7344  0.4110 -0.9370
   30SAPC   H6Y 4051   3.889   1.829   7.177  2.2455 -1.0298 -1.2621
   30SAPC   C37 4052   3.944   1.669   7.305  0.0337 -0.0769  0.0081
   30SAPC   H7X 4053   4.043   1.679   7.255 -0.6503 -1.0422 -1.6576
   30SAPC   H7Y 4054   3.944   1.559   7.323 -1.4854  0.1704  1.7442
   30SAPC   C38 4055   3.945   1.736   7.441 -0.5053  0.2686  0.2795
   30SAPC   H8X 4056   3.965   1.845   7.435  0.4213  0.1756  1.3719
   30SAPC   H8Y 4057   4.029   1.692   7.499  1.2519  1.3491 -1.3586
   30SAPC   C39 4058   3.805   1.704   7.508 -0.8197  1.5508  0.1779
   30SAPC   H9X 4059   3.766   1.619   7.448  0.7502  1.9629 -1.5173
   30SAPC   H9Y 4060   3.731   1.786   7.502 -0.7924  2.4300  5.8089
   30SAPC  C310 4061   3.814   1.656   7.655 -0.3802  0.3253  0.2015
   30SAPC  H10X 4062   3.875   1.564   7.651 -3.2588 -1.6583 -2.5272
   30SAPC  H10Y 4063   3.715   1.621   7.689 -0.7026  0.6183 -0.4269
   30SAPC  C311 4064   3.875   1.760   7.755  0.2948 -0.2191  0.6522
   30SAPC  H11X 4065   3.808   1.848   7.760 -0.8441 -1.1080  1.5468
   30SAPC  H11Y 4066   3.965   1.803   7.706 -0.6989  1.9273  0.6105
   30SAPC  C312 4067   3.908   1.696   7.894  0.0829  0.6513  0.0853
   30SAPC  H12X 4068   3.984   1.615   7.887 -1.0181 -0.3788 -0.3231
   30SAPC  H12Y 4069   3.816   1.650   7.936  1.1222 -2.1153 -0.4528
   30SAPC  C313 4070   3.962   1.801   7.992 -0.5706 -0.0559  0.5418
   30SAPC  H13X 4071   4.065   1.833   7.968 -1.5125  1.9696 -1.1896
   30SAPC  H13Y 4072   3.976   1.756   8.092 -1.9125  0.6613  1.0942
   30SAPC  C314 4073   3.878   1.932   8.009 -0.3818  0.4967  0.6426
   30SAPC  H14X 4074   3.772   1.896   8.005  0.0847 -0.8161 -1.7974
   30SAPC  H14Y 4075   3.884   1.986   7.912  0.4983 -0.0966  0.3581
   30SAPC  C315 4076   3.924   2.027   8.123 -0.5433  0.1548  0.2508
   30SAPC  H15X 4077   3.840   2.098   8.136 -0.2602  0.7524 -1.0090
   30SAPC  H15Y 4078   4.007   2.089   8.082  0.9406 -1.4999  0.6428
   30SAPC  C316 4079   3.964   1.962   8.257  0.7262  0.0326  0.8083
   30SAPC  H16X 4080   3.993   2.042   8.328  0.9547 -0.6074  1.4514
   30SAPC  H16Y 4081   4.049   1.893   8.237  0.9217 -0.4524  3.0349
   30SAPC  C317 4082   3.857   1.877   8.320  1.7175 -0.3534 -0.8600
   30SAPC  H17X 4083   3.850   1.776   8.274 -1.8000  0.1995 -1.9066
   30SAPC  H17Y 4084   3.759   1.926   8.299  1.1710 -1.1038 -0.1006
   30SAPC  C318 4085   3.861   1.852   8.472  0.0262 -0.2328 -0.0311
   30SAPC  H18X 4086   3.871   1.952   8.519  0.0418  0.8313 -2.1976
   30SAPC  H18Y 4087   3.938   1.776   8.498 -3.8389 -3.7209  2.5947
   30SAPC  H18Z 4088   3.764   1.806   8.501 -1.7277  3.0537 -0.1619
   31SAPC     N 4089   5.002   1.099   6.010 -0.7422  0.5127 -0.0852
   31SAPC   C12 4090   5.076   1.177   6.112 -0.0078  0.4019  0.2097
   31SAPC  H12A 4091   5.127   1.258   6.062 -2.1694  1.8910  0.2814
   31SAPC  H12B 4092   5.154   1.116   6.156 -1.1431 -0.8035  0.6283
   31SAPC   C13 4093   5.098   1.042   5.911  0.5585 -0.3932 -0.1551
   31SAPC  H13A 4094   5.140   1.113   5.841  0.2871  0.0468  0.1213
   31SAPC  H13B 4095   5.188   1.016   5.965  0.2334 -1.8879 -0.3001
   31SAPC  H13C 4096   5.054   0.961   5.855  2.0873  0.2068 -2.3750
   31SAPC   C14 4097   4.938   0.990   6.088 -0.0054 -0.1680  0.2350
   31SAPC  H14A 4098   5.010   0.926   6.137 -0.2756  0.2720  1.2355
   31SAPC  H14B 4099   4.869   1.025   6.164 -0.5233 -1.6545  0.4712
   31SAPC  H14C 4100   4.886   0.924   6.021  0.8810 -0.6079 -0.0283
   31SAPC   C15 4101   4.893   1.174   5.943  0.4881  0.3162  0.2937
   31SAPC  H15A 4102   4.841   1.235   6.015  0.0126 -0.9629  1.0612
   31SAPC  H15B 4103   4.927   1.240   5.864  0.9233 -0.4488 -0.1718
   31SAPC  H15C 4104   4.817   1.107   5.907  0.5257  1.0855 -1.2785
   31SAPC   C11 4105   4.996   1.240   6.224  0.6234 -0.7729 -0.2957
   31SAPC  H11A 4106   5.061   1.277   6.306 -0.9095  0.2548  0.5166
   31SAPC  H11B 4107   4.926   1.166   6.269 -1.0247  0.7005 -0.2971
   31SAPC     P 4108   4.956   1.486   6.118 -0.2994  0.0419 -0.4290
   31SAPC   O13 4109   5.053   1.468   6.003 -0.2665  0.6523 -0.1269
   31SAPC   O14 4110   4.848   1.581   6.097 -0.5787  0.1454  0.6880
   31SAPC   O12 4111   4.911   1.345   6.179 -0.0782 -0.0696  0.9678
   31SAPC   O11 4112   5.043   1.535   6.238 -0.5509 -0.6250  0.0265
   31SAPC    C1 4113   5.006   1.608   6.356  0.3175 -0.2071 -0.6404
   31SAPC    HA 4114   5.030   1.716   6.349  1.3351 -0.2471  1.3888
   31SAPC    HB 4115   4.898   1.602   6.380  0.1162  0.7946 -1.2100
   31SAPC    C2 4116   5.080   1.549   6.481 -0.0085  0.1284 -0.2553
   31SAPC    HS 4117   5.185   1.527   6.453  1.4107 -1.6503  5.1517
   31SAPC   O21 4118   5.004   1.427   6.530 -0.0673 -0.7956 -0.2908
   31SAPC   C21 4119   5.081   1.354   6.602  0.5483  0.6399 -0.5815
   31SAPC   O22 4120   5.205   1.351   6.612  0.8080  0.3665 -0.3944
   31SAPC   C22 4121   4.993   1.251   6.669  0.3504 -0.4358 -0.0710
   31SAPC   H2R 4122   5.003   1.268   6.778  0.6155  0.6162 -0.2556
   31SAPC   H2S 4123   4.887   1.272   6.643  1.3001  1.2955 -3.0639
   31SAPC    C3 4124   5.097   1.659   6.593  0.5360 -0.3293 -0.0526
   31SAPC    HX 4125   5.148   1.739   6.536 -0.1397 -0.2253 -0.5240
   31SAPC    HY 4126   5.159   1.623   6.678  1.3945 -3.2422 -1.7532
   31SAPC   O31 4127   4.958   1.706   6.626 -0.2589 -0.1746 -0.2227
   31SAPC   C31 4128   4.912   1.654   6.748 -0.1236 -0.0100 -0.3778
   31SAPC   O32 4129   4.971   1.584   6.828 -0.1833 -0.1371  0.1424
   31SAPC   C32 4130   4.774   1.701   6.777  0.1153 -0.1345 -0.5663
   31SAPC   H2X 4131   4.706   1.623   6.737  1.4138 -1.3785 -0.4037
   31SAPC   H2Y 4132   4.773   1.805   6.737 -0.9979  0.6660  1.3887
   31SAPC   C23 4133   5.026   1.105   6.629 -0.0642 -0.0530  0.6366
   31SAPC   H3R 4134   5.137   1.099   6.622  0.0412  2.1038 -0.4692
   31SAPC   H3S 4135   4.995   1.076   6.527  1.1652 -0.4578  0.3639
   31SAPC   C24 4136   4.991   1.009   6.744 -0.2451  0.2442 -0.8728
   31SAPC   H4R 4137   5.036   1.047   6.838 -0.3471 -1.1382 -0.2516
   31SAPC   H4S 4138   5.042   0.915   6.714  0.5510 -0.0821  1.3175
   31SAPC   C25 4139   4.843   0.985   6.757  0.4485  0.6861 -0.0792
   31SAPC   H5R 4140   4.797   0.958   6.660  4.7349  0.4363 -2.2779
   31SAPC   C26 4141   4.769   0.980   6.870  0.2914 -0.7188 -0.0998
   31SAPC   H6R 4142   4.664   0.948   6.865 -0.1764  0.4839  1.3341
   31SAPC   C27 4143   4.815   1.004   7.005 -0.2208 -0.2017 -0.6931
   31SAPC   H7R 4144   4.854   1.108   7.019  2.2006 -1.1975  0.6025
   31SAPC   H7S 4145   4.901   0.935   7.019 -0.2704 -0.3468 -1.0847
   31SAPC   C28 4146   4.716   0.963   7.113  0.0253 -0.0649  0.3057
   31SAPC   H8R 4147   4.634   0.894   7.090  0.8587 -1.1197  0.4447
   31SAPC   C29 4148   4.730   0.993   7.243  0.1451 -0.5342  0.1977
   31SAPC   H9R 4149   4.662   0.943   7.313  1.8676 -0.7146  1.8249
   31SAPC  C210 4150   4.832   1.077   7.304  0.5704 -0.3757  0.0100
   31SAPC  H10R 4151   4.788   1.142   7.383  0.5324 -3.3089  2.5799
   31SAPC  H10S 4152   4.872   1.149   7.229 -2.6005  1.0717 -0.4840
   31SAPC  C211 4153   4.941   0.996   7.365 -0.4689  0.5030 -0.6626
   31SAPC  H11R 4154   4.996   0.931   7.295 -1.2859 -0.7766 -0.1586
   31SAPC  C212 4155   4.970   0.989   7.500  1.0041  0.1557  0.4138
   31SAPC  H12R 4156   5.049   0.920   7.534 -0.8311 -1.7629  1.0261
   31SAPC  C213 4157   4.904   1.072   7.603 -0.1864 -0.3866 -0.5889
   31SAPC  H13R 4158   4.858   1.166   7.565 -1.4412 -0.7218  0.0466
   31SAPC  H13S 4159   4.973   1.096   7.687 -3.1353  1.1094  1.6121
   31SAPC  C214 4160   4.793   0.987   7.669  0.4081 -0.5268 -0.1496
   31SAPC  H14R 4161   4.736   0.919   7.603  0.3498  0.6295 -1.3296
   31SAPC  C215 4162   4.753   0.997   7.801 -0.3836  0.7579 -0.0582
   31SAPC  H15R 4163   4.663   0.947   7.840  0.1325  1.4278  2.1556
   31SAPC  C216 4164   4.819   1.083   7.905 -0.9361 -0.5812  0.3403
   31SAPC  H16R 4165   4.929   1.067   7.911 -0.6894  0.4197 -0.9210
   31SAPC  H16S 4166   4.777   1.060   8.005  1.5651 -0.2203  1.5452
   31SAPC  C217 4167   4.794   1.232   7.880 -0.8212 -0.3402  0.6506
   31SAPC  H17R 4168   4.687   1.259   7.869 -0.0518  1.9257 -3.0015
   31SAPC  H17S 4169   4.830   1.265   7.780 -1.7245  0.9484  0.7260
   31SAPC  C218 4170   4.863   1.319   7.989  0.3027  0.2166 -0.0324
   31SAPC  H18R 4171   4.887   1.422   7.955  2.4390 -0.0059  0.6460
   31SAPC  H18S 4172   4.966   1.281   8.006 -0.2772 -1.5762 -0.3756
   31SAPC  C219 4173   4.778   1.321   8.114 -0.2629  0.1010 -1.2013
   31SAPC  H19R 4174   4.778   1.220   8.162  0.2800  1.0687  0.9598
   31SAPC  H19S 4175   4.676   1.355   8.086 -0.2659  0.5754 -0.6254
   31SAPC  C220 4176   4.839   1.421   8.216  0.3480  0.2644 -0.3884
   31SAPC  H20R 4177   4.787   1.416   8.314 -0.3159 -0.9310 -0.7916
   31SAPC  H20S 4178   4.826   1.525   8.179 -0.8975  1.3058  2.6333
   31SAPC  H20T 4179   4.943   1.391   8.239 -0.0669  0.0344  1.3642
   31SAPC   C33 4180   4.747   1.704   6.927  0.0201 -0.0678 -0.3021
   31SAPC   H3X 4181   4.756   1.612   6.988  0.4549  0.4886  0.5024
   31SAPC   H3Y 4182   4.640   1.728   6.946 -0.1047 -0.7769 -0.1073
   31SAPC   C34 4183   4.829   1.810   7.002 -0.6871 -0.0026 -0.0029
   31SAPC   H4X 4184   4.826   1.903   6.941  1.8941  0.3363  0.2678
   31SAPC   H4Y 4185   4.930   1.766   7.017 -0.5488  0.9703  2.1883
   31SAPC   C35 4186   4.794   1.832   7.153  0.0904 -0.0392 -0.3765
   31SAPC   H5X 4187   4.870   1.773   7.208 -0.7493 -0.9956 -0.2188
   31SAPC   H5Y 4188   4.701   1.781   7.183  0.2961 -1.7318 -2.3700
   31SAPC   C36 4189   4.803   1.983   7.200 -0.0011  0.6504 -0.2536
   31SAPC   H6X 4190   4.707   2.031   7.172 -0.7345  0.5267  1.8900
   31SAPC   H6Y 4191   4.885   2.037   7.147  0.3644 -0.0926 -0.4705
   31SAPC   C37 4192   4.836   1.979   7.351  0.2302 -1.1451  0.3938
   31SAPC   H7X 4193   4.942   1.953   7.371  0.2861 -1.4982 -0.3362
   31SAPC   H7Y 4194   4.764   1.903   7.389 -1.8299  0.5234  0.0567
   31SAPC   C38 4195   4.811   2.122   7.413 -0.8683  0.6710  0.4278
   31SAPC   H8X 4196   4.705   2.150   7.396 -0.8578 -0.1644 -1.1510
   31SAPC   H8Y 4197   4.873   2.200   7.365 -2.5859  0.8810 -1.5463
   31SAPC   C39 4198   4.837   2.119   7.564 -0.0147 -0.8444  0.3038
   31SAPC   H9X 4199   4.928   2.059   7.590  1.9031  2.0539  0.7716
   31SAPC   H9Y 4200   4.745   2.079   7.610 -1.8385  0.4663 -1.9714
   31SAPC  C310 4201   4.853   2.256   7.632 -0.1865 -0.5010  0.4378
   31SAPC  H10X 4202   4.818   2.330   7.558  1.4868  0.7068  0.7910
   31SAPC  H10Y 4203   4.962   2.272   7.621 -0.8123  4.3247 -0.6453
   31SAPC  C311 4204   4.784   2.283   7.760 -0.4445 -1.1430 -0.9857
   31SAPC  H11X 4205   4.686   2.232   7.747  0.6255 -2.8779 -2.6493
   31SAPC  H11Y 4206   4.781   2.393   7.779  0.3826 -1.0541 -1.3493
   31SAPC  C312 4207   4.863   2.216   7.876 -0.5154  0.1657 -0.2561
   31SAPC  H12X 4208   4.970   2.244   7.868 -0.6910  0.3670 -2.7639
   31SAPC  H12Y 4209   4.873   2.105   7.868  1.7715  0.3307 -0.3790
   31SAPC  C313 4210   4.798   2.248   8.007  0.4927 -0.5106  0.7715
   31SAPC  H13X 4211   4.691   2.224   7.990  0.5198 -0.4461  0.5064
   31SAPC  H13Y 4212   4.806   2.356   8.033  1.8397 -0.2921 -0.4533
   31SAPC  C314 4213   4.843   2.177   8.134  0.2440 -0.0187  0.4858
   31SAPC  H14X 4214   4.949   2.204   8.150  0.5339 -0.8726  0.1091
   31SAPC  H14Y 4215   4.834   2.066   8.122  0.2853  0.1094 -0.8646
   31SAPC  C315 4216   4.752   2.207   8.254  0.6788  0.2934  0.5456
   31SAPC  H15X 4217   4.643   2.195   8.234  0.6152 -0.3355  1.2277
   31SAPC  H15Y 4218   4.763   2.318   8.259 -2.8402  0.9449 -1.9655
   31SAPC  C316 4219   4.796   2.147   8.390 -0.4051  0.3161  0.3458
   31SAPC  H16X 4220   4.906   2.152   8.404 -0.1659 -0.8632 -0.8990
   31SAPC  H16Y 4221   4.772   2.039   8.392 -1.5019  0.5296 -0.4238
   31SAPC  C317 4222   4.736   2.215   8.512 -0.4847  0.1458  0.0933
   31SAPC  H17X 4223   4.625   2.210   8.516 -0.4817 -0.4253 -0.3677
   31SAPC  H17Y 4224   4.774   2.317   8.494  0.3122 -0.4463 -1.7595
   31SAPC  C318 4225   4.796   2.167   8.651 -0.6744 -0.0204  0.0434
   31SAPC  H18X 4226   4.763   2.064   8.675 -2.7352  0.9746  1.7993
   31SAPC  H18Y 4227   4.757   2.229   8.735 -0.9892 -1.4729  1.0008
   31SAPC  H18Z 4228   4.906   2.183   8.653 -0.9988  2.7895  0.0805
   32SAPC     N 4229   0.200   2.639   6.054  0.0447  0.3634  0.2590
   32SAPC   C12 4230   0.316   2.713   6.116 -0.1671  0.3119 -0.1446
   32SAPC  H12A 4231   0.370   2.760   6.035  2.0309 -2.6596 -0.5436
   32SAPC  H12B 4232   0.380   2.637   6.158  1.7334  1.1965 -1.2964
   32SAPC   C13 4233   0.242   2.529   5.972  0.5757  0.2292  0.0145
   32SAPC  H13A 4234   0.313   2.460   6.017  2.9142  2.4391 -0.0295
   32SAPC  H13B 4235   0.152   2.489   5.928 -0.4643  2.0230  0.4126
   32SAPC  H13C 4236   0.292   2.560   5.881 -1.1551 -2.2125 -1.9184
   32SAPC   C14 4237   0.109   2.599   6.161 -0.4172  0.5597 -0.4814
   32SAPC  H14A 4238   0.062   2.687   6.203 -1.5633 -1.8160  3.7912
   32SAPC  H14B 4239   0.039   2.527   6.122  0.3252  0.1309 -1.0679
   32SAPC  H14C 4240   0.167   2.560   6.243  0.9620  0.9893 -1.2149
   32SAPC   C15 4241   0.125   2.732   5.957 -0.6825  0.3760 -0.5640
   32SAPC  H15A 4242   0.033   2.688   5.923 -1.6592  0.3654  1.9681
   32SAPC  H15B 4243   0.104   2.820   6.015 -1.7452 -1.1627  1.4809
   32SAPC  H15C 4244   0.185   2.776   5.878 -0.9233  3.1020  0.6603
   32SAPC   C11 4245   0.292   2.814   6.242 -0.0801 -0.2263  0.3667
   32SAPC  H11A 4246   0.391   2.859   6.263  0.9528 -1.5071 -1.4732
   32SAPC  H11B 4247   0.257   2.743   6.320 -2.4237  0.0137 -0.3608
   32SAPC     P 4248   0.219   3.042   6.140 -0.2527 -0.0041  0.0446
   32SAPC   O13 4249   0.362   3.046   6.089  0.3381 -0.2463 -0.4233
   32SAPC   O14 4250   0.112   3.050   6.042  0.1735 -0.0259  1.2425
   32SAPC   O12 4251   0.185   2.907   6.214 -0.9327 -0.0618  0.3663
   32SAPC   O11 4252   0.189   3.156   6.240  0.1580  0.8656  0.0452
   32SAPC    C1 4253   0.258   3.160   6.369  0.8013  0.0041 -0.0768
   32SAPC    HA 4254   0.356   3.109   6.377  1.3052  1.0986  1.2230
   32SAPC    HB 4255   0.268   3.266   6.401  2.3284  0.1272 -0.8592
   32SAPC    C2 4256   0.157   3.101   6.478  0.4558  0.7903 -0.5656
   32SAPC    HS 4257   0.095   3.028   6.422  0.0775  0.4525  0.2724
   32SAPC   O21 4258   0.079   3.212   6.509  0.2281  0.3295  0.2369
   32SAPC   C21 4259   0.104   3.297   6.604 -0.5178  0.3156 -0.5651
   32SAPC   O22 4260   0.216   3.315   6.653 -0.8598  0.1799 -0.2020
   32SAPC   C22 4261  -0.028   3.366   6.654  0.1399  0.8411 -0.3997
   32SAPC   H2R 4262  -0.008   3.463   6.703 -0.4441  0.6296  0.2745
   32SAPC   H2S 4263  -0.077   3.384   6.556  0.7058 -3.3532 -1.6501
   32SAPC    C3 4264   0.229   3.030   6.593 -0.3469 -0.0409  0.6410
   32SAPC    HX 4265   0.315   3.092   6.627  0.7409 -1.0849 -0.1326
   32SAPC    HY 4266   0.277   2.937   6.557 -0.9454  0.5699 -1.9284
   32SAPC   O31 4267   0.148   3.007   6.705  0.6122  0.4187  0.0828
   32SAPC   C31 4268   0.063   2.904   6.682  0.0471  0.2371  0.3311
   32SAPC   O32 4269   0.048   2.838   6.581 -0.2997  0.1649  0.6612
   32SAPC   C32 4270  -0.015   2.889   6.819 -0.3949 -0.6044 -0.9537
   32SAPC   H2X 4271  -0.063   2.986   6.844 -0.3100 -0.4079 -1.5285
   32SAPC   H2Y 4272   0.063   2.872   6.897  0.8961 -0.1754 -2.1084
   32SAPC   C23 4273  -0.107   3.270   6.754 -0.1325  0.2362  0.0452
   32SAPC   H3R 4274  -0.040   3.231   6.833  0.7967 -1.1928 -1.3711
   32SAPC   H3S 4275  -0.133   3.180   6.694 -0.0068 -0.2500  0.7073
   32SAPC   C24 4276  -0.222   3.347   6.814 -0.1469 -0.1801 -0.7065
   32SAPC   H4R 4277  -0.254   3.427   6.743 -1.0481  0.8750  0.8125
   32SAPC   H4S 4278  -0.202   3.411   6.903 -0.0330 -1.3447  0.1152
   32SAPC   C25 4279  -0.336   3.255   6.853  0.5588 -0.2581 -0.2517
   32SAPC   H5R 4280  -0.426   3.262   6.790 -0.1931  0.5169  0.8912
   32SAPC   C26 4281  -0.345   3.171   6.956 -0.0824 -0.2651 -0.7039
   32SAPC   H6R 4282  -0.440   3.119   6.975  0.0413  0.5571  2.9954
   32SAPC   C27 4283  -0.247   3.140   7.068 -0.3610  0.8227  0.3771
   32SAPC   H7R 4284  -0.172   3.073   7.021 -2.1002  1.0832 -3.0676
   32SAPC   H7S 4285  -0.309   3.079   7.137 -2.1922  1.9206 -0.2382
   32SAPC   C28 4286  -0.172   3.250   7.154  0.5539 -0.0269 -0.8192
   32SAPC   H8R 4287  -0.134   3.338   7.099  0.7413 -0.4922 -1.4449
   32SAPC   C29 4288  -0.157   3.239   7.287  0.7282 -0.1933 -0.0125
   32SAPC   H9R 4289  -0.102   3.324   7.329 -0.2557  0.2975  0.3330
   32SAPC  C210 4290  -0.212   3.127   7.377  0.5870  0.2867  0.6054
   32SAPC  H10R 4291  -0.151   3.037   7.353  2.2127  0.9905  1.9247
   32SAPC  H10S 4292  -0.317   3.093   7.366  0.7824  0.0289 -0.5418
   32SAPC  C211 4293  -0.193   3.159   7.522  0.3561 -0.0856 -0.2548
   32SAPC  H11R 4294  -0.249   3.249   7.551  2.1864  0.6567  1.1849
   32SAPC  C212 4295  -0.112   3.098   7.614  0.5991  0.6673  0.1571
   32SAPC  H12R 4296  -0.124   3.128   7.719  1.2322  2.9270 -0.3702
   32SAPC  C213 4297  -0.031   2.970   7.587 -0.3501  0.5874 -0.0767
   32SAPC  H13R 4298   0.075   2.983   7.615 -0.1303 -0.6747 -0.2288
   32SAPC  H13S 4299  -0.029   2.945   7.479 -0.6776  0.5629 -0.0801
   32SAPC  C214 4300  -0.084   2.848   7.666 -1.1761 -0.2980  0.3428
   32SAPC  H14R 4301  -0.113   2.755   7.614  0.3604 -0.8206  0.3795
   32SAPC  C215 4302  -0.073   2.830   7.805 -0.5270  0.4566  0.1488
   32SAPC  H15R 4303  -0.115   2.737   7.846 -0.5994  1.1664  1.7853
   32SAPC  C216 4304  -0.013   2.911   7.914 -0.1935  0.2460  0.6888
   32SAPC  H16R 4305   0.040   2.995   7.864 -0.5557 -1.0232 -1.9453
   32SAPC  H16S 4306   0.065   2.846   7.959  0.4146 -0.1649 -0.9251
   32SAPC  C217 4307  -0.107   2.976   8.019  0.4174  0.6216 -0.1830
   32SAPC  H17R 4308  -0.026   3.007   8.088  2.2995  0.6017 -2.2625
   32SAPC  H17S 4309  -0.168   2.909   8.083  1.7270 -0.7259 -0.2757
   32SAPC  C218 4310  -0.193   3.098   7.976  0.2324 -0.5588  1.4010
   32SAPC  H18R 4311  -0.273   3.071   7.903 -0.4202  1.1355  1.4420
   32SAPC  H18S 4312  -0.126   3.173   7.927  0.1464 -1.5592 -0.3295
   32SAPC  C219 4313  -0.266   3.161   8.100  0.1183  0.2003  0.6888
   32SAPC  H19R 4314  -0.191   3.195   8.175  0.0076  0.0925  0.8495
   32SAPC  H19S 4315  -0.333   3.087   8.150 -0.7121 -0.5541 -1.4447
   32SAPC  C220 4316  -0.355   3.279   8.062 -0.3175 -0.0137 -0.2049
   32SAPC  H20R 4317  -0.414   3.319   8.148  0.4110  0.5097  0.0621
   32SAPC  H20S 4318  -0.427   3.246   7.985 -0.7372  0.6443 -0.1018
   32SAPC  H20T 4319  -0.305   3.365   8.015  0.4156 -0.7262 -0.7564
   32SAPC   C33 4320  -0.122   2.779   6.823  0.0478 -0.5970 -0.4106
   32SAPC   H3X 4321  -0.142   2.736   6.924 -1.5391 -0.1462 -0.5042
   32SAPC   H3Y 4322  -0.091   2.690   6.765 -0.5794 -0.0672 -1.5894
   32SAPC   C34 4323  -0.258   2.812   6.757  0.0714  0.1892  0.0326
   32SAPC   H4X 4324  -0.242   2.795   6.649 -1.4841  1.2315 -0.3974
   32SAPC   H4Y 4325  -0.278   2.919   6.778 -1.6328 -0.4698  2.2311
   32SAPC   C35 4326  -0.366   2.728   6.813 -0.2408  0.2185  0.1456
   32SAPC   H5X 4327  -0.333   2.630   6.851 -2.3140  0.3952  2.6737
   32SAPC   H5Y 4328  -0.438   2.713   6.729 -0.8221  2.1196  0.2437
   32SAPC   C36 4329  -0.445   2.798   6.926 -0.1126  0.0243  0.0721
   32SAPC   H6X 4330  -0.547   2.760   6.945 -0.1957 -0.5708 -1.4468
   32SAPC   H6Y 4331  -0.451   2.904   6.891  0.9072  0.6373  1.6460
   32SAPC   C37 4332  -0.381   2.795   7.068  0.2659 -1.4108 -0.5440
   32SAPC   H7X 4333  -0.285   2.851   7.072  0.2756 -1.3810 -1.1103
   32SAPC   H7Y 4334  -0.358   2.694   7.108  2.5534 -1.1575 -1.0774
   32SAPC   C38 4335  -0.474   2.864   7.164 -0.3412 -0.4063  0.1926
   32SAPC   H8X 4336  -0.580   2.833   7.151 -0.4975 -0.2124  0.9768
   32SAPC   H8Y 4337  -0.475   2.974   7.144 -0.2216 -0.6467 -1.2301
   32SAPC   C39 4338  -0.428   2.839   7.309  0.4717  0.2863  0.0968
   32SAPC   H9X 4339  -0.322   2.863   7.331  0.4641 -1.3623  2.2065
   32SAPC   H9Y 4340  -0.432   2.728   7.318 -0.4981  0.1686 -1.3825
   32SAPC  C310 4341  -0.511   2.890   7.421  0.6944 -0.3629 -0.0193
   32SAPC  H10X 4342  -0.613   2.886   7.379  0.9231  0.2053 -0.6422
   32SAPC  H10Y 4343  -0.482   2.994   7.447  0.7661 -0.5785  0.7786
   32SAPC  C311 4344  -0.493   2.811   7.544  0.3073  0.1219 -1.2261
   32SAPC  H11X 4345  -0.385   2.806   7.572  0.1993  3.4294  0.3010
   32SAPC  H11Y 4346  -0.521   2.706   7.519  0.3045  0.3293 -2.1152
   32SAPC  C312 4347  -0.566   2.878   7.666  0.6387  0.3996 -0.7474
   32SAPC  H12X 4348  -0.673   2.874   7.637  0.6749 -1.4040 -0.7765
   32SAPC  H12Y 4349  -0.528   2.982   7.668  3.4346 -0.5238 -1.5048
   32SAPC  C313 4350  -0.542   2.818   7.804 -0.4418  0.0135  0.3729
   32SAPC  H13X 4351  -0.435   2.790   7.818  0.2583  2.4995  0.5278
   32SAPC  H13Y 4352  -0.602   2.725   7.797  1.4825 -1.2868  0.3486
   32SAPC  C314 4353  -0.566   2.909   7.918  0.2292 -0.2571 -0.7365
   32SAPC  H14X 4354  -0.671   2.945   7.918  0.4413  0.6268  1.8831
   32SAPC  H14Y 4355  -0.499   2.998   7.920 -2.0730  1.5862 -0.2904
   32SAPC  C315 4356  -0.556   2.845   8.055  0.3290  0.7202 -0.1117
   32SAPC  H15X 4357  -0.583   2.925   8.128 -0.8013 -0.7852  1.2123
   32SAPC  H15Y 4358  -0.461   2.793   8.077 -1.1805 -2.8707 -1.3370
   32SAPC  C316 4359  -0.663   2.738   8.080  0.0709  0.2809 -0.0726
   32SAPC  H16X 4360  -0.663   2.653   8.008 -0.9560 -1.7432  2.1852
   32SAPC  H16Y 4361  -0.766   2.779   8.073 -0.4407 -0.3883  2.5057
   32SAPC  C317 4362  -0.645   2.671   8.215  0.8105 -0.3408 -0.1147
   32SAPC  H17X 4363  -0.654   2.746   8.296 -0.0957 -1.3899  0.7856
   32SAPC  H17Y 4364  -0.541   2.633   8.222  0.9054 -0.6602 -2.4186
   32SAPC  C318 4365  -0.735   2.552   8.242 -0.0408 -0.6319  0.1335
   32SAPC  H18X 4366  -0.731   2.481   8.156 -1.1754 -1.5932  0.8467
   32SAPC  H18Y 4367  -0.838   2.594   8.246  0.6702  1.1373  1.2587
   32SAPC  H18Z 4368  -0.717   2.491   8.333 -0.5440 -1.8869 -0.5851
   33POPC     N 4369   3.683   5.397  10.297  0.4258 -0.2124 -0.2102
   33POPC   C12 4370   3.633   5.282  10.384  0.1651  0.2294  0.3558
   33POPC  H12A 4371   3.581   5.311  10.474  0.5343 -0.7023  0.8950
   33POPC  H12B 4372   3.724   5.230  10.414 -0.3584 -2.2387 -1.9319
   33POPC   C13 4373   3.752   5.496  10.392  0.1772  0.4417  0.3721
   33POPC  H13A 4374   3.749   5.593  10.345 -0.6544  0.5641  0.6673
   33POPC  H13B 4375   3.686   5.508  10.476  0.0260 -1.1462  0.5047
   33POPC  H13C 4376   3.851   5.470  10.428  0.3799 -1.0844 -1.1396
   33POPC   C14 4377   3.785   5.356  10.196  1.5945 -0.5732 -0.0087
   33POPC  H14A 4378   3.837   5.440  10.151  1.1647 -0.7750 -0.9073
   33POPC  H14B 4379   3.851   5.304  10.263  1.9030 -2.7804 -1.8922
   33POPC  H14C 4380   3.752   5.280  10.127 -1.2823 -0.7129  1.3732
   33POPC   C15 4381   3.569   5.468  10.234  0.1869  0.5863  0.2061
   33POPC  H15A 4382   3.603   5.553  10.175 -0.0844  0.8669  0.4479
   33POPC  H15B 4383   3.496   5.498  10.307  2.1871  0.9081  2.1717
   33POPC  H15C 4384   3.523   5.403  10.161  1.6231  1.1354 -1.2642
   33POPC   C11 4385   3.543   5.179  10.315  0.4512 -0.3706  0.0324
   33POPC  H11A 4386   3.539   5.182  10.204  0.1622  0.6795  0.0627
   33POPC  H11B 4387   3.449   5.206  10.369  0.4799 -0.6551  0.2251
   33POPC     P 4388   3.705   4.969  10.299 -0.1172 -0.2973 -0.0231
   33POPC   O13 4389   3.658   4.845  10.238 -0.2800  0.7592 -0.0114
   33POPC   O14 4390   3.808   4.955  10.403 -0.8495  0.0054  0.1522
   33POPC   O12 4391   3.583   5.049  10.358  0.1100 -0.6427 -0.4737
   33POPC   O11 4392   3.758   5.062  10.186 -0.3218 -0.5096 -0.1432
   33POPC    C1 4393   3.889   5.042  10.134  0.3387  0.0872  0.0126
   33POPC    HA 4394   3.939   5.140  10.116 -0.0290  0.1978 -0.4314
   33POPC    HB 4395   3.953   4.982  10.202  0.3774 -2.0524 -1.8067
   33POPC    C2 4396   3.893   4.964  10.002  0.2234 -1.2206 -0.2074
   33POPC    HS 4397   3.978   5.010   9.946 -1.3420  1.8218 -0.3015
   33POPC   O21 4398   3.772   4.982   9.926  0.3871  0.3097 -0.1812
   33POPC   C21 4399   3.736   5.107   9.897 -0.0396  0.1567 -0.3803
   33POPC   O22 4400   3.803   5.205   9.905 -0.1248 -0.3799  0.7668
   33POPC   C22 4401   3.585   5.094   9.866 -0.7477 -0.5979 -0.3653
   33POPC   H2R 4402   3.525   5.097   9.959  0.4678  1.6042  0.4317
   33POPC   H2S 4403   3.568   5.000   9.810  0.8625 -2.0193  1.4217
   33POPC    C3 4404   3.925   4.816  10.020  0.1462  0.0635  0.4337
   33POPC    HX 4405   3.837   4.758  10.055  0.8419 -2.8727 -2.2556
   33POPC    HY 4406   4.002   4.808  10.100  0.8966  0.8760 -0.1812
   33POPC   O31 4407   3.972   4.758   9.893  0.3814  0.4076 -0.8850
   33POPC   C31 4408   3.886   4.693   9.828 -0.4016  0.5643  0.2286
   33POPC   O32 4409   3.778   4.648   9.860 -0.2580 -0.3571 -0.1307
   33POPC   C32 4410   3.950   4.650   9.695  0.1077  0.3370  0.4563
   33POPC   H2X 4411   3.911   4.551   9.664  0.9017 -0.4570  1.8989
   33POPC   H2Y 4412   4.060   4.639   9.706  0.5775  2.4933 -1.3338
   33POPC   C23 4413   3.535   5.202   9.779  0.5859 -0.4468  1.0236
   33POPC   H3R 4414   3.596   5.203   9.686  1.2290 -1.3805  1.4178
   33POPC   H3S 4415   3.563   5.299   9.825  0.0844  0.9014 -1.3116
   33POPC   C24 4416   3.389   5.196   9.768  0.0484 -0.6373 -0.0744
   33POPC   H4R 4417   3.342   5.187   9.868 -2.0264  2.1071 -0.6663
   33POPC   H4S 4418   3.358   5.104   9.714 -1.0665 -1.0758  1.2673
   33POPC   C25 4419   3.321   5.325   9.710 -0.3865 -0.2956  0.6671
   33POPC   H5R 4420   3.347   5.409   9.777  0.4457  0.2746 -0.3392
   33POPC   H5S 4421   3.211   5.311   9.717 -0.2520 -0.9301  1.8379
   33POPC   C26 4422   3.353   5.352   9.561 -0.2358  0.3740  0.2737
   33POPC   H6R 4423   3.460   5.381   9.559 -0.7775  2.4549 -1.0384
   33POPC   H6S 4424   3.289   5.435   9.525 -0.5304  1.0617  2.2235
   33POPC   C27 4425   3.326   5.224   9.471  0.5789 -0.1072  0.3131
   33POPC   H7R 4426   3.220   5.199   9.496  0.3465  0.7282  0.2133
   33POPC   H7S 4427   3.398   5.145   9.501  0.1944 -0.5236  0.1637
   33POPC   C28 4428   3.342   5.260   9.325 -0.2155  0.1431  0.3181
   33POPC   H8R 4429   3.449   5.281   9.304  0.0355 -2.8254 -1.9462
   33POPC   H8S 4430   3.292   5.353   9.291 -2.9273 -1.1476  0.4643
   33POPC   C29 4431   3.302   5.143   9.232 -1.0324 -0.1104 -0.7900
   33POPC   H91 4432   3.207   5.091   9.252 -0.3088 -1.2844 -0.3375
   33POPC  C210 4433   3.374   5.103   9.127 -0.3223  0.3349  0.2816
   33POPC  H101 4434   3.338   5.028   9.055  4.5979  0.0876 -2.4363
   33POPC  C211 4435   3.504   5.160   9.082  0.7225  0.2410 -0.3372
   33POPC  H11R 4436   3.576   5.078   9.057  0.9897  0.3303  0.1275
   33POPC  H11S 4437   3.554   5.218   9.162  0.1247  2.9788 -1.8332
   33POPC  C212 4438   3.479   5.244   8.959 -0.0321  0.0165 -0.1058
   33POPC  H12R 4439   3.462   5.180   8.870 -3.9417 -0.1767  0.5851
   33POPC  H12S 4440   3.571   5.306   8.951  1.6311 -1.8086  2.7708
   33POPC  C213 4441   3.369   5.356   8.972  0.2440 -0.0632  0.0812
   33POPC  H13R 4442   3.397   5.427   9.053  0.3876 -1.8838  1.7043
   33POPC  H13S 4443   3.272   5.309   8.996  0.9013 -1.4908  0.0905
   33POPC  C214 4444   3.366   5.434   8.836  0.9794  0.1666  0.0216
   33POPC  H14R 4445   3.466   5.449   8.792  1.1213 -1.3502 -0.2133
   33POPC  H14S 4446   3.332   5.537   8.860  0.6172  0.1712 -0.4902
   33POPC  C215 4447   3.259   5.376   8.750 -0.9272 -0.4184  0.2530
   33POPC  H15R 4448   3.159   5.395   8.795 -0.5560 -1.4737  1.5777
   33POPC  H15S 4449   3.277   5.266   8.747  0.0793 -0.2757  0.9028
   33POPC  C216 4450   3.245   5.425   8.607  0.0323  0.3279  0.2995
   33POPC  H16R 4451   3.236   5.535   8.616  3.3374  0.7876 -0.6138
   33POPC  H16S 4452   3.156   5.383   8.556  0.9743 -1.3859 -0.0419
   33POPC  C217 4453   3.368   5.376   8.519 -0.0596 -0.0048  0.0834
   33POPC  H17R 4454   3.361   5.265   8.517 -1.7178  0.0864 -0.8575
   33POPC  H17S 4455   3.455   5.414   8.576 -0.0112  0.6190 -0.3968
   33POPC  C218 4456   3.377   5.437   8.381  0.0280  1.2597  0.1313
   33POPC  H18R 4457   3.390   5.547   8.391  0.4987  1.0608  1.9376
   33POPC  H18S 4458   3.284   5.418   8.323  0.0421 -1.7785  0.9496
   33POPC  H18T 4459   3.473   5.404   8.335  1.1964  1.3134  2.4152
   33POPC   C33 4460   3.937   4.760   9.591 -0.2376 -0.5995 -0.2971
   33POPC   H3X 4461   3.998   4.733   9.502 -0.8750  0.0687 -0.9423
   33POPC   H3Y 4462   3.975   4.858   9.629 -0.9575 -0.5252  0.2573
   33POPC   C34 4463   3.797   4.784   9.540 -0.6237  0.1724 -0.4496
   33POPC   H4X 4464   3.723   4.812   9.618 -2.7487  2.5065 -3.1200
   33POPC   H4Y 4465   3.768   4.682   9.506 -0.6534 -0.4006  1.1916
   33POPC   C35 4466   3.791   4.897   9.438  0.7750  0.8730 -0.4541
   33POPC   H5X 4467   3.830   4.987   9.490  3.6560 -0.7049  0.3308
   33POPC   H5Y 4468   3.685   4.909   9.408  0.1105 -1.1670  0.8367
   33POPC   C36 4469   3.870   4.871   9.313  0.0995  0.3046 -0.4790
   33POPC   H6X 4470   3.834   4.776   9.268  1.8499 -0.7085  0.1303
   33POPC   H6Y 4471   3.978   4.879   9.338 -0.2617  1.8719  0.7111
   33POPC   C37 4472   3.853   4.975   9.201  0.3391 -0.3550  0.1269
   33POPC   H7X 4473   3.885   5.075   9.235  1.7612 -0.9378  0.5721
   33POPC   H7Y 4474   3.743   4.975   9.184  0.0097 -4.4765  1.0735
   33POPC   C38 4475   3.926   4.954   9.069  0.0682 -0.1856 -0.1612
   33POPC   H8X 4476   3.893   4.857   9.027 -1.2584  0.5663 -0.9664
   33POPC   H8Y 4477   4.035   4.948   9.089  0.2688  0.3216 -1.0175
   33POPC   C39 4478   3.876   5.058   8.964 -0.1319  0.4707  0.7282
   33POPC   H9X 4479   3.879   5.159   9.010 -0.0940  0.4951  0.6716
   33POPC   H9Y 4480   3.772   5.030   8.935  0.0234  0.6200  0.0300
   33POPC  C310 4481   3.947   5.043   8.832 -0.7716  0.2669 -0.0855
   33POPC  H10X 4482   3.944   4.940   8.792  1.2352 -0.5071  1.5914
   33POPC  H10Y 4483   4.054   5.064   8.850 -1.2032  1.7495  0.9160
   33POPC  C311 4484   3.884   5.136   8.722  0.2799 -0.1526 -0.3481
   33POPC  H11X 4485   3.896   5.232   8.777 -1.2034 -0.5092  0.6648
   33POPC  H11Y 4486   3.774   5.133   8.709 -0.1568  2.1583  1.8657
   33POPC  C312 4487   3.954   5.146   8.588  0.1365  0.3465 -0.5238
   33POPC  H12X 4488   3.890   5.099   8.511  1.4353 -0.9374 -0.8687
   33POPC  H12Y 4489   4.054   5.098   8.582  0.3928  0.9787 -1.5396
   33POPC  C313 4490   3.978   5.296   8.544 -0.4845  0.6220  0.9134
   33POPC  H13X 4491   4.067   5.334   8.599  2.8401 -2.2335 -2.0075
   33POPC  H13Y 4492   3.895   5.363   8.575  1.1143  2.7044  0.8640
   33POPC  C314 4493   3.999   5.315   8.391  0.0683  0.5899  0.2315
   33POPC  H14X 4494   3.930   5.239   8.347  2.0068 -0.9130 -0.3659
   33POPC  H14Y 4495   4.103   5.276   8.385 -0.3459 -0.6335  0.7192
   33POPC  C315 4496   3.982   5.456   8.344  0.1996 -0.1799 -0.0523
   33POPC  H15X 4497   4.034   5.510   8.426  2.6165 -1.2190 -0.7968
   33POPC  H15Y 4498   3.875   5.484   8.345  0.5375  1.5468 -2.8519
   33POPC  C316 4499   4.045   5.495   8.212 -0.4088  0.2464 -0.6650
   33POPC  H16X 4500   4.156   5.483   8.217 -0.3059  1.3563  0.2870
   33POPC  H16Y 4501   4.020   5.599   8.182  0.6240  0.8789  0.5122
   33POPC  H16Z 4502   4.022   5.417   8.138  2.1602 -2.1078  0.8225
   34POPC     N 4503   1.507   6.606  10.904  0.3610 -0.1532  0.5181
   34POPC   C12 4504   1.651   6.567  10.917 -0.3519 -0.6338  0.5573
   34POPC  H12A 4505   1.668   6.463  10.892 -2.1770 -0.7898 -0.1799
   34POPC  H12B 4506   1.686   6.577  11.019  2.1879  0.2929 -0.3188
   34POPC   C13 4507   1.454   6.547  10.773 -0.4644 -0.4993 -0.6350
   34POPC  H13A 4508   1.507   6.602  10.697 -1.2880  0.7081 -0.3776
   34POPC  H13B 4509   1.469   6.440  10.771  0.5935 -0.3458 -1.4765
   34POPC  H13C 4510   1.348   6.569  10.765 -0.9340 -1.3694  2.1941
   34POPC   C14 4511   1.422   6.554  11.019 -1.1529  0.2201 -0.5928
   34POPC  H14A 4512   1.317   6.570  11.000 -1.7333  0.5206  2.4718
   34POPC  H14B 4513   1.436   6.448  11.026 -1.4884  0.2240  0.2491
   34POPC  H14C 4514   1.445   6.605  11.111 -1.5267 -1.5633  0.5151
   34POPC   C15 4515   1.483   6.756  10.908  0.2317  0.1935 -0.1160
   34POPC  H15A 4516   1.531   6.794  10.819  1.4951 -0.1868  0.3888
   34POPC  H15B 4517   1.522   6.794  11.001 -0.5788  0.8398 -0.0333
   34POPC  H15C 4518   1.380   6.782  10.886  0.9373  1.4958 -2.1732
   34POPC   C11 4519   1.751   6.664  10.836 -0.3808 -0.0228  0.5842
   34POPC  H11A 4520   1.852   6.628  10.863 -0.3007 -0.7722 -0.6390
   34POPC  H11B 4521   1.742   6.761  10.890  2.2747  1.3787 -1.2959
   34POPC     P 4522   1.797   6.774  10.603 -0.0250  0.3127 -0.6481
   34POPC   O13 4523   1.790   6.912  10.661 -0.2792 -0.4553 -0.4862
   34POPC   O14 4524   1.738   6.754  10.472  0.1466  0.6430  0.2747
   34POPC   O12 4525   1.722   6.675  10.694 -0.5430  0.1244 -0.1024
   34POPC   O11 4526   1.941   6.714  10.609  0.2698  0.2190 -0.5949
   34POPC    C1 4527   1.980   6.586  10.559 -1.0036  0.1640 -0.0084
   34POPC    HA 4528   1.898   6.512  10.551  0.0461 -0.9893 -0.4669
   34POPC    HB 4529   2.046   6.535  10.632  0.2781 -2.1838 -2.6375
   34POPC    C2 4530   2.056   6.579  10.421 -0.3916  0.3840 -1.1225
   34POPC    HS 4531   2.083   6.472  10.413  0.2206  0.3204  1.1299
   34POPC   O21 4532   2.173   6.663  10.427  0.4264 -0.7299 -0.3070
   34POPC   C21 4533   2.292   6.604  10.397  0.3107  0.8378 -0.1485
   34POPC   O22 4534   2.305   6.496  10.336  0.8231  0.0119  0.2889
   34POPC   C22 4535   2.398   6.681  10.473 -0.7221 -0.1806 -0.7287
   34POPC   H2R 4536   2.397   6.629  10.570  0.2598  1.1406  0.0253
   34POPC   H2S 4537   2.364   6.786  10.487 -1.1000 -0.4775  0.6574
   34POPC    C3 4538   1.966   6.611  10.296  0.6966 -0.6825 -1.1144
   34POPC    HX 4539   1.915   6.707  10.317  1.0533 -0.5969 -0.5894
   34POPC    HY 4540   1.888   6.532  10.293 -0.3982  0.2003  1.4123
   34POPC   O31 4541   2.043   6.617  10.175 -0.0693 -0.1360  0.4157
   34POPC   C31 4542   2.081   6.507  10.109  0.1072  0.2525 -0.7701
   34POPC   O32 4543   2.062   6.393  10.153 -0.3437  0.0416  0.5047
   34POPC   C32 4544   2.144   6.545   9.982 -0.0739  0.7808  0.6129
   34POPC   H2X 4545   2.218   6.624  10.006  1.2175 -0.0372 -0.5721
   34POPC   H2Y 4546   2.066   6.588   9.915  0.6498 -0.0208 -0.7849
   34POPC   C23 4547   2.536   6.671  10.419  0.7418  0.6435  0.1548
   34POPC   H3R 4548   2.573   6.567  10.410 -2.2837 -0.3036 -2.9371
   34POPC   H3S 4549   2.609   6.719  10.489 -0.5484  0.3071  1.7955
   34POPC   C24 4550   2.565   6.706  10.274  0.2215 -0.5768  0.6667
   34POPC   H4R 4551   2.511   6.628  10.216  1.2067 -0.9633  0.2541
   34POPC   H4S 4552   2.671   6.709  10.242  0.5037  0.2272  1.6502
   34POPC   C25 4553   2.521   6.846  10.245  0.2985 -0.5653  0.0125
   34POPC   H5R 4554   2.600   6.905  10.295  2.5908 -1.0754 -2.7676
   34POPC   H5S 4555   2.426   6.869  10.296 -0.6856 -1.1990 -1.4576
   34POPC   C26 4556   2.515   6.892  10.096 -0.2257  0.2615 -0.5561
   34POPC   H6R 4557   2.617   6.876  10.054  0.0828 -2.0338  0.8719
   34POPC   H6S 4558   2.494   7.001  10.092  0.8025  0.5992  1.6281
   34POPC   C27 4559   2.427   6.804  10.008  0.0204 -0.4774 -0.3886
   34POPC   H7R 4560   2.328   6.800  10.058  0.6586  0.0117  0.9896
   34POPC   H7S 4561   2.456   6.697  10.023 -0.8057 -0.5130  1.1646
   34POPC   C28 4562   2.412   6.844   9.857  0.4722  0.1190  0.0567
   34POPC   H8R 4563   2.359   6.941   9.849  1.6235  0.7571 -0.0939
   34POPC   H8S 4564   2.336   6.774   9.814  0.6754  0.2859 -0.5911
   34POPC   C29 4565   2.547   6.844   9.792  0.1530 -0.3822 -0.3181
   34POPC   H91 4566   2.635   6.796   9.837  0.9734  0.4213 -1.0140
   34POPC  C210 4567   2.576   6.911   9.680  0.6304  0.1702  0.0966
   34POPC  H101 4568   2.681   6.904   9.646  1.5285  2.1122  2.1917
   34POPC  C211 4569   2.488   6.992   9.590  0.6405  0.4938  0.0325
   34POPC  H11R 4570   2.514   7.100   9.604 -0.9623  0.8918  0.1523
   34POPC  H11S 4571   2.384   6.982   9.628  0.5826  0.4415 -0.1406
   34POPC  C212 4572   2.498   6.946   9.450 -0.4252  0.2723  0.4239
   34POPC  H12R 4573   2.459   6.842   9.438  0.3381 -0.0454  0.6392
   34POPC  H12S 4574   2.604   6.938   9.419 -0.8044  0.2513 -0.9226
   34POPC  C213 4575   2.426   7.044   9.359  0.1541  0.4067 -0.1791
   34POPC  H13R 4576   2.468   7.147   9.365 -0.4606  0.6645 -0.1729
   34POPC  H13S 4577   2.322   7.059   9.394 -0.1718 -0.4900 -0.7270
   34POPC  C214 4578   2.411   6.990   9.216  0.1435  0.1294 -0.4913
   34POPC  H14R 4579   2.516   6.977   9.183 -0.7083 -3.1218 -2.3403
   34POPC  H14S 4580   2.371   7.076   9.157  1.8385  1.5383  0.3147
   34POPC  C215 4581   2.324   6.869   9.186  0.3562 -0.1510 -0.5578
   34POPC  H15R 4582   2.218   6.901   9.189 -0.0915 -1.5746  0.4874
   34POPC  H15S 4583   2.344   6.786   9.257 -1.9975  0.9798  1.5934
   34POPC  C216 4584   2.344   6.825   9.041  0.1515 -0.4846  0.1800
   34POPC  H16R 4585   2.290   6.728   9.037  0.1850 -0.4682 -0.7513
   34POPC  H16S 4586   2.454   6.816   9.030 -0.0161  0.3982 -3.3804
   34POPC  C217 4587   2.297   6.921   8.938  1.1083  0.1953  0.5699
   34POPC  H17R 4588   2.310   7.029   8.963  1.1474 -0.0668  1.7779
   34POPC  H17S 4589   2.186   6.910   8.938  1.2252 -1.1601  0.0037
   34POPC  C218 4590   2.347   6.885   8.799  0.0290  0.0307  0.3965
   34POPC  H18R 4591   2.291   6.945   8.725 -0.2943  1.6099  1.8427
   34POPC  H18S 4592   2.329   6.781   8.766  0.5443  0.1864 -0.4143
   34POPC  H18T 4593   2.453   6.917   8.787 -0.5338  1.6065 -0.6659
   34POPC   C33 4594   2.225   6.431   9.927 -1.2401  0.1048  0.1235
   34POPC   H3X 4595   2.165   6.340   9.907 -0.3377 -0.6301  0.6903
   34POPC   H3Y 4596   2.305   6.391   9.993  0.3838 -1.9892 -2.8816
   34POPC   C34 4597   2.306   6.472   9.800 -0.7465 -0.1238 -0.0582
   34POPC   H4X 4598   2.385   6.396   9.778  0.5048  1.1652 -0.1605
   34POPC   H4Y 4599   2.363   6.564   9.827 -1.8190  0.4033  0.4689
   34POPC   C35 4600   2.217   6.497   9.674  0.1095  0.5634  0.2239
   34POPC   H5X 4601   2.114   6.521   9.707 -0.5234 -1.9808  0.2417
   34POPC   H5Y 4602   2.211   6.396   9.628  1.4428 -0.4914  2.2134
   34POPC   C36 4603   2.269   6.597   9.577  0.2654  0.5298  0.0507
   34POPC   H6X 4604   2.367   6.553   9.548  0.9077  0.9373  1.5391
   34POPC   H6Y 4605   2.295   6.692   9.627  0.8566 -0.0047  0.7920
   34POPC   C37 4606   2.183   6.630   9.460 -0.0251  0.8651 -0.7948
   34POPC   H7X 4607   2.226   6.719   9.409  0.2541  1.1781 -0.0225
   34POPC   H7Y 4608   2.078   6.650   9.492 -0.6633 -0.2301 -2.0996
   34POPC   C38 4609   2.186   6.523   9.362  0.3899  0.6038  0.2748
   34POPC   H8X 4610   2.132   6.437   9.408 -2.1218  0.9678 -1.7817
   34POPC   H8Y 4611   2.290   6.492   9.337  0.1110  0.5858 -0.9265
   34POPC   C39 4612   2.115   6.556   9.231  0.2195  0.2200  0.1973
   34POPC   H9X 4613   2.184   6.629   9.184  0.0554  0.5362  0.4453
   34POPC   H9Y 4614   2.019   6.604   9.261 -0.7352 -0.5092 -1.5596
   34POPC  C310 4615   2.092   6.442   9.127 -0.2763 -0.2853 -0.0921
   34POPC  H10X 4616   2.036   6.365   9.184  0.1413  0.6328  1.6336
   34POPC  H10Y 4617   2.189   6.401   9.092 -0.6740  0.4980 -2.3014
   34POPC  C311 4618   2.024   6.495   9.004  0.1313 -0.4501 -0.0270
   34POPC  H11X 4619   2.068   6.594   8.981  1.0243 -0.9422 -0.5053
   34POPC  H11Y 4620   1.921   6.514   9.039  1.1116  2.4636  1.5838
   34POPC  C312 4621   2.033   6.404   8.885  0.2671 -0.2432  0.3902
   34POPC  H12X 4622   1.958   6.432   8.808 -2.7284 -0.8919  2.9078
   34POPC  H12Y 4623   2.005   6.303   8.923 -2.7413  0.6971  0.9215
   34POPC  C313 4624   2.177   6.398   8.820  0.3811  0.2969  0.0877
   34POPC  H13X 4625   2.184   6.293   8.782 -1.1648 -0.3314  1.4224
   34POPC  H13Y 4626   2.264   6.409   8.888 -2.6213  1.5470  4.0765
   34POPC  C314 4627   2.200   6.496   8.707 -0.9392 -0.1035  0.4624
   34POPC  H14X 4628   2.308   6.481   8.686 -0.6054 -0.3820  2.2681
   34POPC  H14Y 4629   2.178   6.601   8.733  1.1171  0.6254 -0.5225
   34POPC  C315 4630   2.117   6.464   8.580  0.5139  0.4058  0.2430
   34POPC  H15X 4631   2.009   6.486   8.595 -0.2635 -3.4107  1.6065
   34POPC  H15Y 4632   2.116   6.353   8.566  0.5144  0.4891 -0.4481
   34POPC  C316 4633   2.172   6.535   8.463 -0.3498  0.0208 -0.9451
   34POPC  H16X 4634   2.113   6.519   8.370 -0.5564  0.0339 -0.8147
   34POPC  H16Y 4635   2.273   6.502   8.430  0.0078 -1.4398  1.3863
   34POPC  H16Z 4636   2.167   6.643   8.488 -2.1621 -0.4726  1.0177
   35POPC     N 4637   0.910   2.973  10.956  0.5896 -0.0901 -0.3790
   35POPC   C12 4638   0.941   3.039  10.826  0.0535  0.0329 -0.0746
   35POPC  H12A 4639   0.925   2.966  10.748 -4.0110 -0.2718  0.8202
   35POPC  H12B 4640   1.043   3.075  10.826  0.9751 -2.3474  0.7135
   35POPC   C13 4641   0.990   2.845  10.943 -0.3859 -0.1935 -0.5014
   35POPC  H13A 4642   1.095   2.872  10.947 -0.8143  1.9484 -2.1152
   35POPC  H13B 4643   0.963   2.779  11.025 -1.9807  0.0001 -0.8431
   35POPC  H13C 4644   0.967   2.794  10.851 -2.0099 -0.0180 -0.2198
   35POPC   C14 4645   0.954   3.059  11.070  0.3963 -0.1003 -0.3714
   35POPC  H14A 4646   0.916   3.159  11.068  1.2719  0.3266  1.7209
   35POPC  H14B 4647   0.919   3.011  11.160 -0.0514  0.4761 -0.2328
   35POPC  H14C 4648   1.062   3.060  11.077  0.3125 -0.1411  1.5590
   35POPC   C15 4649   0.765   2.936  10.989  0.1823  0.6250 -0.1955
   35POPC  H15A 4650   0.718   2.891  10.902 -0.4303  2.5003 -0.8941
   35POPC  H15B 4651   0.702   3.019  11.016  0.5312  1.0455 -0.6473
   35POPC  H15C 4652   0.770   2.865  11.070 -2.5675 -1.1067 -1.4072
   35POPC   C11 4653   0.850   3.160  10.792  0.1810 -0.0585 -0.0616
   35POPC  H11A 4654   0.745   3.132  10.815  0.2564 -0.5417 -0.2911
   35POPC  H11B 4655   0.857   3.168  10.681  1.6419 -2.2648 -0.1961
   35POPC     P 4656   1.002   3.367  10.852 -0.1351 -0.0299 -0.0003
   35POPC   O13 4657   1.124   3.283  10.869 -0.0227 -0.0456 -0.3843
   35POPC   O14 4658   0.998   3.482  10.951 -0.9324  0.1487 -0.1485
   35POPC   O12 4659   0.870   3.277  10.871  0.0557  0.2020 -0.6730
   35POPC   O11 4660   0.989   3.429  10.711  0.1515  0.3319 -0.0792
   35POPC    C1 4661   0.889   3.526  10.674 -0.3368  0.6708 -0.3072
   35POPC    HA 4662   0.865   3.604  10.750 -1.9649  1.3686 -1.4937
   35POPC    HB 4663   0.806   3.472  10.623 -0.6852  1.2633 -0.3797
   35POPC    C2 4664   0.944   3.616  10.556 -0.0216  0.1397 -0.4998
   35POPC    HS 4665   0.857   3.663  10.505 -1.2892 -1.8894 -0.3100
   35POPC   O21 4666   1.012   3.531  10.467 -0.3884 -0.2134 -0.0076
   35POPC   C21 4667   0.952   3.475  10.356  0.1873  0.3085 -0.7309
   35POPC   O22 4668   0.841   3.505  10.322  0.2762 -0.1877  0.5087
   35POPC   C22 4669   1.045   3.377  10.284 -0.3744  0.1516  0.6707
   35POPC   H2R 4670   1.024   3.273  10.317  2.4204 -0.9645 -0.7621
   35POPC   H2S 4671   1.143   3.413  10.324 -0.7433 -1.0704  2.8342
   35POPC    C3 4672   1.048   3.724  10.612 -0.2938  0.5350  0.0796
   35POPC    HX 4673   1.124   3.670  10.672  1.1145  2.1628 -0.1432
   35POPC    HY 4674   1.006   3.806  10.674  1.7585  0.7399  1.2973
   35POPC   O31 4675   1.120   3.792  10.503  0.6920 -0.7796  0.4869
   35POPC   C31 4676   1.038   3.867  10.426  0.6831 -0.0604 -0.8120
   35POPC   O32 4677   0.920   3.873  10.437 -0.3503  0.1228  0.3809
   35POPC   C32 4678   1.116   3.931  10.314 -0.5427  0.3562 -0.0134
   35POPC   H2X 4679   1.171   3.856  10.254 -1.1269  1.4142 -1.9417
   35POPC   H2Y 4680   1.191   3.995  10.366  0.3419  0.3032 -1.1877
   35POPC   C23 4681   1.029   3.384  10.132 -0.3064  0.0726 -0.6561
   35POPC   H3R 4682   0.946   3.326  10.085 -1.0409 -0.3892  1.1301
   35POPC   H3S 4683   1.123   3.335  10.100  0.1314  1.5644 -1.7698
   35POPC   C24 4684   1.046   3.530  10.084  0.5907  0.9042 -0.0483
   35POPC   H4R 4685   1.123   3.577  10.150  0.6988  0.2923  0.2655
   35POPC   H4S 4686   0.946   3.578  10.084 -0.1561 -0.4114  2.8946
   35POPC   C25 4687   1.098   3.548   9.939  0.2535 -0.4385 -0.3861
   35POPC   H5R 4688   1.034   3.492   9.868  0.3895 -1.9233  0.6017
   35POPC   H5S 4689   1.198   3.501   9.930  1.1664  1.4006 -0.3100
   35POPC   C26 4690   1.085   3.692   9.893  0.3651  0.0737 -0.0677
   35POPC   H6R 4691   1.133   3.768   9.959  0.0553  1.0012 -0.8802
   35POPC   H6S 4692   0.977   3.718   9.899  0.6066  1.4459 -1.1500
   35POPC   C27 4693   1.127   3.710   9.749 -0.8493  0.2953  0.1395
   35POPC   H7R 4694   1.114   3.617   9.691  1.5863 -1.4797  2.2081
   35POPC   H7S 4695   1.237   3.717   9.733 -1.2129 -1.1534 -4.2008
   35POPC   C28 4696   1.064   3.827   9.673 -0.5631  0.0281 -0.3114
   35POPC   H8R 4697   1.090   3.915   9.736  0.7132 -0.3862 -0.2209
   35POPC   H8S 4698   0.955   3.813   9.682 -0.8295  2.1926  0.5269
   35POPC   C29 4699   1.117   3.850   9.534  0.4284 -0.2155  0.3543
   35POPC   H91 4700   1.188   3.932   9.516  0.0657 -0.5748 -3.2961
   35POPC  C210 4701   1.081   3.771   9.430  0.5819  0.4149 -0.7705
   35POPC  H101 4702   1.135   3.787   9.335 -1.5697 -0.8007 -2.2987
   35POPC  C211 4703   0.980   3.661   9.438 -0.0506  0.2172 -0.5170
   35POPC  H11R 4704   0.911   3.671   9.525  1.0419 -2.2397  0.7140
   35POPC  H11S 4705   1.032   3.564   9.447  1.1064  0.9652  1.6157
   35POPC  C212 4706   0.897   3.668   9.304 -0.4566  0.0306 -0.2459
   35POPC  H12R 4707   0.822   3.586   9.306 -0.0427 -0.3495 -0.1302
   35POPC  H12S 4708   0.962   3.662   9.214  0.6517  0.5526  0.5019
   35POPC  C213 4709   0.821   3.801   9.287 -0.4787 -0.7684  0.4925
   35POPC  H13R 4710   0.888   3.888   9.271 -0.1376 -0.9116  1.1126
   35POPC  H13S 4711   0.754   3.817   9.374 -2.8559 -0.4278 -1.3146
   35POPC  C214 4712   0.732   3.802   9.157 -0.4688 -1.6571 -0.2866
   35POPC  H14R 4713   0.686   3.703   9.136  0.4784 -2.1488 -0.1054
   35POPC  H14S 4714   0.806   3.837   9.082  0.5805 -0.3315  1.3079
   35POPC  C215 4715   0.626   3.914   9.153  0.4829 -0.2929  0.1220
   35POPC  H15R 4716   0.672   4.013   9.174 -1.5372  1.4457 -2.8470
   35POPC  H15S 4717   0.557   3.895   9.237 -0.0781 -1.1592 -0.5112
   35POPC  C216 4718   0.539   3.924   9.030 -0.2557 -0.1092  0.1842
   35POPC  H16R 4719   0.433   3.956   9.046 -1.0891 -0.6024 -3.4893
   35POPC  H16S 4720   0.530   3.822   8.987  1.0286 -0.6467  1.1321
   35POPC  C217 4721   0.584   4.037   8.933  0.4320 -0.2477 -0.0143
   35POPC  H17R 4722   0.681   4.017   8.883 -0.3681  1.7799 -2.5815
   35POPC  H17S 4723   0.601   4.131   8.991  0.9292 -0.3819  0.0591
   35POPC  C218 4724   0.487   4.055   8.815 -0.6522 -0.4485 -0.4303
   35POPC  H18R 4725   0.517   4.142   8.753 -0.5047 -0.4456 -0.3536
   35POPC  H18S 4726   0.387   4.082   8.856 -0.0273  0.2634  0.6808
   35POPC  H18T 4727   0.486   3.963   8.753 -1.5308  0.4445 -1.8038
   35POPC   C33 4728   1.029   4.027  10.230 -0.3971 -0.6449 -0.4452
   35POPC   H3X 4729   1.112   4.062  10.163 -0.8029 -2.1521 -1.7869
   35POPC   H3Y 4730   0.971   4.108  10.279  2.5791  2.2803 -1.3396
   35POPC   C34 4731   0.930   3.963  10.128  0.3297  0.3742 -0.5924
   35POPC   H4X 4732   0.831   3.951  10.179 -0.3366 -0.0636 -1.9324
   35POPC   H4Y 4733   0.968   3.860  10.112  0.9404 -0.0465  2.8757
   35POPC   C35 4734   0.910   4.050  10.006  0.3011 -0.6867  0.9869
   35POPC   H5X 4735   1.009   4.068   9.960 -1.0285  0.9469 -1.4173
   35POPC   H5Y 4736   0.879   4.153  10.035 -2.6435 -1.2163  0.0209
   35POPC   C36 4737   0.808   3.999   9.910  0.1064  0.3108 -0.0488
   35POPC   H6X 4738   0.706   4.004   9.951  0.6471  0.3398  1.3285
   35POPC   H6Y 4739   0.824   3.889   9.906  0.3400  0.2124  2.4413
   35POPC   C37 4740   0.806   4.061   9.771 -0.1657  0.1795 -0.5349
   35POPC   H7X 4741   0.899   4.037   9.716 -0.9401  1.2282 -2.4096
   35POPC   H7Y 4742   0.787   4.170   9.761 -1.3342 -0.1233 -1.9666
   35POPC   C38 4743   0.684   3.996   9.704 -0.3756 -0.1180  0.3722
   35POPC   H8X 4744   0.591   4.016   9.761 -0.2455 -1.5374  1.1249
   35POPC   H8Y 4745   0.713   3.888   9.708  0.7869  0.2206  2.5777
   35POPC   C39 4746   0.657   4.043   9.557  0.1843  0.5741  0.5270
   35POPC   H9X 4747   0.595   3.971   9.499 -1.1934  1.7740  0.4620
   35POPC   H9Y 4748   0.757   4.045   9.508 -0.7306  0.8235 -1.4676
   35POPC  C310 4749   0.587   4.173   9.533 -0.4086 -0.2941 -0.0732
   35POPC  H10X 4750   0.657   4.256   9.555 -1.3692  1.4241 -3.0164
   35POPC  H10Y 4751   0.499   4.193   9.597  1.3753  3.2034  1.5600
   35POPC  C311 4752   0.527   4.189   9.393  0.4410  0.6720 -0.3745
   35POPC  H11X 4753   0.449   4.115   9.365 -0.5134  1.0760  1.1315
   35POPC  H11Y 4754   0.617   4.186   9.328  0.6401 -0.8878 -0.0763
   35POPC  C312 4755   0.458   4.324   9.360 -0.0574 -0.5134 -0.4219
   35POPC  H12X 4756   0.477   4.399   9.440 -1.2057 -0.2608 -0.3711
   35POPC  H12Y 4757   0.349   4.305   9.350  0.1907 -2.0312 -0.4615
   35POPC  C313 4758   0.509   4.407   9.241  0.3207 -0.4472  0.6507
   35POPC  H13X 4759   0.541   4.336   9.162  2.4584  1.3109 -0.1597
   35POPC  H13Y 4760   0.598   4.467   9.269 -0.1054  0.0407  0.9734
   35POPC  C314 4761   0.406   4.512   9.191 -0.1815  0.5141 -0.1366
   35POPC  H14X 4762   0.355   4.569   9.271  0.1408  2.1134 -1.0399
   35POPC  H14Y 4763   0.324   4.458   9.137  0.9744 -2.8641  1.1943
   35POPC  C315 4764   0.483   4.611   9.092  0.4127  0.2878 -0.4691
   35POPC  H15X 4765   0.584   4.633   9.135 -0.0709  1.5010  0.1016
   35POPC  H15Y 4766   0.428   4.707   9.097  1.8482  1.3817 -3.4703
   35POPC  C316 4767   0.481   4.556   8.955  0.0906 -0.0539  0.5480
   35POPC  H16X 4768   0.544   4.611   8.881  0.3342 -0.8858  0.1189
   35POPC  H16Y 4769   0.377   4.544   8.917 -0.6156 -1.4471  2.7167
   35POPC  H16Z 4770   0.513   4.449   8.963 -0.7575 -0.2791  1.0177
   36POPC     N 4771   6.744   1.108  11.233 -0.2280 -0.3840  0.4952
   36POPC   C12 4772   6.717   1.183  11.100 -0.8369 -0.2299  0.7298
   36POPC  H12A 4773   6.795   1.254  11.076 -0.8705 -0.9593 -1.8036
   36POPC  H12B 4774   6.626   1.240  11.114 -0.6073  0.7316 -1.2882
   36POPC   C13 4775   6.868   1.024  11.220 -0.1281 -0.1354  0.0836
   36POPC  H13A 4776   6.945   1.099  11.216 -1.8224  1.6538 -0.4359
   36POPC  H13B 4777   6.877   0.964  11.310  1.4156  0.2224  0.1906
   36POPC  H13C 4778   6.867   0.953  11.139  1.1348  0.0418 -0.0944
   36POPC   C14 4779   6.763   1.210  11.356 -0.4521  0.4999  0.9166
   36POPC  H14A 4780   6.849   1.274  11.343 -1.4881  1.6853 -0.3388
   36POPC  H14B 4781   6.672   1.267  11.354 -0.1990  0.9006 -0.4039
   36POPC  H14C 4782   6.777   1.160  11.451 -1.0947  1.3698  1.4807
   36POPC   C15 4783   6.637   1.008  11.269 -0.1676 -0.7699 -0.0948
   36POPC  H15A 4784   6.542   1.060  11.262 -0.6940 -1.7596 -0.4232
   36POPC  H15B 4785   6.658   0.957  11.362 -0.7724  1.6480  1.4825
   36POPC  H15C 4786   6.636   0.932  11.193 -0.5655  1.1086 -2.0763
   36POPC   C11 4787   6.709   1.105  10.962 -0.1122 -0.4356 -0.4879
   36POPC  H11A 4788   6.818   1.091  10.942  0.2167  0.8779  0.2735
   36POPC  H11B 4789   6.680   1.176  10.881 -0.5387 -0.8069 -0.6647
   36POPC     P 4790   6.508   0.971  10.870 -0.1346 -0.4189  0.0228
   36POPC   O13 4791   6.395   1.047  10.924 -0.0996  0.5147  0.6675
   36POPC   O14 4792   6.478   0.821  10.851  0.3638 -0.1090 -1.1227
   36POPC   O12 4793   6.637   0.980  10.953 -0.1720  0.0286 -0.3056
   36POPC   O11 4794   6.548   1.042  10.730  0.5570  0.0789 -0.0932
   36POPC    C1 4795   6.471   1.127  10.651 -0.2464  0.3100 -0.1826
   36POPC    HA 4796   6.365   1.121  10.683 -0.5342  1.5932 -0.8307
   36POPC    HB 4797   6.463   1.087  10.548  1.7069  0.4708 -0.4222
   36POPC    C2 4798   6.531   1.268  10.646 -0.2966 -0.5490 -0.2229
   36POPC    HS 4799   6.528   1.301  10.752  0.9722 -1.7245  0.2123
   36POPC   O21 4800   6.455   1.355  10.567  0.0423  0.3839  0.9008
   36POPC   C21 4801   6.484   1.489  10.581  0.0606 -0.1435 -0.1811
   36POPC   O22 4802   6.569   1.530  10.652  0.3661 -0.6665 -0.3546
   36POPC   C22 4803   6.394   1.564  10.478  0.0762 -0.4446 -0.7843
   36POPC   H2R 4804   6.351   1.642  10.545 -1.6830 -0.9144 -1.3042
   36POPC   H2S 4805   6.310   1.492  10.467 -1.5357  0.9900  1.2517
   36POPC    C3 4806   6.682   1.269  10.601 -1.0415  0.5340  0.3931
   36POPC    HX 4807   6.724   1.213  10.687 -2.0202  0.5629  0.8964
   36POPC    HY 4808   6.736   1.365  10.615 -2.1139  1.1689  0.2506
   36POPC   O31 4809   6.712   1.204  10.478 -0.0336 -0.4568  0.0252
   36POPC   C31 4810   6.749   1.280  10.369 -0.0145  0.2193  0.6096
   36POPC   O32 4811   6.783   1.395  10.381 -0.7383  0.1796  0.7399
   36POPC   C32 4812   6.750   1.197  10.246 -0.2058 -0.6030  0.2460
   36POPC   H2X 4813   6.648   1.166  10.216 -0.2103  1.0307 -1.6939
   36POPC   H2Y 4814   6.808   1.105  10.269  1.2481  0.0765 -0.4971
   36POPC   C23 4815   6.463   1.625  10.357 -0.4604  0.0934 -0.5155
   36POPC   H3R 4816   6.573   1.644  10.361 -0.3142 -0.8103  0.0087
   36POPC   H3S 4817   6.412   1.723  10.351 -0.9194 -0.0197  1.1007
   36POPC   C24 4818   6.434   1.541  10.229  0.2431  0.6711 -0.0741
   36POPC   H4R 4819   6.325   1.520  10.227  0.5183 -0.8911 -0.2659
   36POPC   H4S 4820   6.482   1.441  10.231  1.8242  1.4024  0.2782
   36POPC   C25 4821   6.482   1.611  10.100  0.4833 -0.4216 -0.7103
   36POPC   H5R 4822   6.590   1.614  10.128 -0.5830  0.2516  4.2742
   36POPC   H5S 4823   6.453   1.719  10.098  0.0574 -0.4776  1.0203
   36POPC   C26 4824   6.450   1.536   9.973  0.2428  0.1834  0.2613
   36POPC   H6R 4825   6.339   1.541   9.969  0.2084 -0.2300  0.6255
   36POPC   H6S 4826   6.463   1.426   9.972 -0.1515  0.1194 -1.4388
   36POPC   C27 4827   6.503   1.588   9.838  0.1354  0.3117 -0.8005
   36POPC   H7R 4828   6.507   1.699   9.833  0.4644  0.3514  0.1142
   36POPC   H7S 4829   6.417   1.560   9.773  0.5268 -2.1058 -0.3856
   36POPC   C28 4830   6.636   1.522   9.788 -0.1805  0.4339 -0.3263
   36POPC   H8R 4831   6.709   1.512   9.871 -0.2745  0.4920 -0.2363
   36POPC   H8S 4832   6.676   1.601   9.720 -0.1090  1.0501  0.4227
   36POPC   C29 4833   6.610   1.392   9.723 -0.4841  0.7130 -0.5292
   36POPC   H91 4834   6.653   1.302   9.770 -1.1530  0.4126 -0.4913
   36POPC  C210 4835   6.578   1.381   9.593 -0.9006  0.1846  0.2627
   36POPC  H101 4836   6.562   1.282   9.548 -0.5749 -0.8033  2.2167
   36POPC  C211 4837   6.542   1.497   9.493 -0.7099 -0.0872  0.0225
   36POPC  H11R 4838   6.561   1.594   9.544  0.8812  0.1740 -0.9774
   36POPC  H11S 4839   6.433   1.506   9.478 -0.4485  3.6078 -0.4272
   36POPC  C212 4840   6.619   1.495   9.358 -0.7958  0.4930 -0.2230
   36POPC  H12R 4841   6.726   1.468   9.372 -0.5933  0.7968 -1.0681
   36POPC  H12S 4842   6.606   1.596   9.312 -0.4840  0.6567  0.0426
   36POPC  C213 4843   6.570   1.388   9.258  1.3692  0.1403 -0.1245
   36POPC  H13R 4844   6.468   1.408   9.218  2.1661  4.1101 -0.6416
   36POPC  H13S 4845   6.558   1.295   9.318 -0.5462  1.4092  1.5967
   36POPC  C214 4846   6.666   1.362   9.144  0.2990 -0.2577 -0.5886
   36POPC  H14R 4847   6.770   1.370   9.183 -0.3406  2.3355  0.8105
   36POPC  H14S 4848   6.665   1.457   9.087 -1.0388 -0.6319 -1.2158
   36POPC  C215 4849   6.629   1.245   9.060  0.0458  0.5933 -0.2166
   36POPC  H15R 4850   6.521   1.261   9.037 -0.7106 -1.3754  1.6680
   36POPC  H15S 4851   6.631   1.151   9.120 -0.5410 -0.6657 -2.0921
   36POPC  C216 4852   6.706   1.212   8.926  0.3794  0.1526  0.1703
   36POPC  H16R 4853   6.677   1.112   8.889  2.9641 -1.3465  1.9021
   36POPC  H16S 4854   6.814   1.208   8.954  0.1455  0.0038  1.0713
   36POPC  C217 4855   6.687   1.319   8.814 -0.0245 -1.1064  0.1152
   36POPC  H17R 4856   6.767   1.312   8.738 -0.0342  1.7163 -0.2734
   36POPC  H17S 4857   6.703   1.417   8.863  4.1967 -0.4757 -2.0729
   36POPC  C218 4858   6.555   1.314   8.743 -0.2189  0.6445  0.7020
   36POPC  H18R 4859   6.466   1.320   8.809 -1.7802  1.7836 -1.3580
   36POPC  H18S 4860   6.555   1.221   8.681  0.4280 -1.3371  3.4855
   36POPC  H18T 4861   6.548   1.407   8.683 -1.9483  0.0312 -0.1135
   36POPC   C33 4862   6.830   1.259  10.131 -0.6202  0.0362  0.2857
   36POPC   H3X 4863   6.926   1.301  10.170  0.1461 -1.6549  0.3082
   36POPC   H3Y 4864   6.764   1.336  10.086 -0.9898 -0.6487 -0.3690
   36POPC   C34 4865   6.867   1.165  10.020 -0.5482  0.5084  0.1261
   36POPC   H4X 4866   6.776   1.145   9.960 -1.8211 -0.5247  2.2989
   36POPC   H4Y 4867   6.885   1.062  10.059  0.0106  0.7080  0.4120
   36POPC   C35 4868   6.961   1.228   9.915 -0.3380  0.2771 -0.5131
   36POPC   H5X 4869   7.065   1.230   9.956 -0.9751  0.6523  1.1812
   36POPC   H5Y 4870   6.924   1.329   9.889 -1.8824 -0.6378 -2.0453
   36POPC   C36 4871   6.970   1.158   9.777  0.3645  0.4165 -0.0640
   36POPC   H6X 4872   6.874   1.114   9.743 -0.5318  0.6624  1.9838
   36POPC   H6Y 4873   7.034   1.071   9.801 -2.9369 -2.2208 -0.1249
   36POPC   C37 4874   7.015   1.252   9.665 -0.1963 -0.0195  0.3877
   36POPC   H7X 4875   7.112   1.298   9.695  0.8138  0.4286 -3.1853
   36POPC   H7Y 4876   6.945   1.337   9.654  2.7403  2.9172  2.3435
   36POPC   C38 4877   7.046   1.170   9.536 -0.5640  0.5165 -0.4134
   36POPC   H8X 4878   6.968   1.091   9.530 -0.8311  0.8781 -1.9459
   36POPC   H8Y 4879   7.149   1.130   9.549 -0.6248  0.7366  0.9623
   36POPC   C39 4880   7.041   1.244   9.400 -0.0072  0.3062 -0.4295
   36POPC   H9X 4881   7.078   1.348   9.408  1.3175 -0.1441 -0.3846
   36POPC   H9Y 4882   6.934   1.239   9.372 -0.0146  2.6682 -0.9972
   36POPC  C310 4883   7.125   1.174   9.286  1.5767 -0.7415  0.1080
   36POPC  H10X 4884   7.094   1.067   9.292  2.8329 -1.0359  2.6327
   36POPC  H10Y 4885   7.233   1.181   9.308  1.5331  0.1855  0.0616
   36POPC  C311 4886   7.078   1.228   9.148 -0.3099  0.4850 -0.1228
   36POPC  H11X 4887   7.122   1.331   9.145  0.2880  0.2291 -0.3625
   36POPC  H11Y 4888   6.967   1.223   9.150 -0.2860  0.0125  1.1139
   36POPC  C312 4889   7.143   1.146   9.037  0.1481 -0.3048  0.7408
   36POPC  H12X 4890   7.103   1.042   9.041 -0.5847 -0.0760 -0.2206
   36POPC  H12Y 4891   7.252   1.143   9.057  0.2351 -1.7871  0.1944
   36POPC  C313 4892   7.111   1.212   8.898 -0.1043  0.2970  0.5979
   36POPC  H13X 4893   7.160   1.311   8.883  0.5869 -0.4403 -2.5950
   36POPC  H13Y 4894   7.000   1.221   8.905  0.0672  1.8809  2.0713
   36POPC  C314 4895   7.147   1.121   8.782  0.1322 -0.2437 -0.0379
   36POPC  H14X 4896   7.117   1.015   8.794  0.2935 -0.5248 -1.7470
   36POPC  H14Y 4897   7.257   1.123   8.762  0.2209 -0.7635  0.4016
   36POPC  C315 4898   7.086   1.178   8.654 -0.8172 -0.6280 -0.0850
   36POPC  H15X 4899   7.096   1.288   8.652  0.0443 -0.7057 -0.7718
   36POPC  H15Y 4900   6.981   1.141   8.662 -0.0419 -3.0377 -0.0903
   36POPC  C316 4901   7.150   1.144   8.521 -0.2980 -0.3112 -0.3268
   36POPC  H16X 4902   7.122   1.039   8.498 -0.2487 -0.0724 -1.5683
   36POPC  H16Y 4903   7.261   1.149   8.519 -0.2565 -1.1078 -0.4998
   36POPC  H16Z 4904   7.105   1.192   8.432 -0.2447  0.3221 -0.0161
   37POPC     N 4905   1.723   3.589   6.301  0.3877 -0.0382  0.5197
   37POPC   C12 4906   1.694   3.568   6.450  0.0017  0.2508 -0.5087
   37POPC  H12A 4907   1.719   3.659   6.503 -3.4565  1.7691 -1.2253
   37POPC  H12B 4908   1.754   3.486   6.487  0.9813  1.7455  1.3884
   37POPC   C13 4909   1.643   3.711   6.250 -0.1292  0.4328 -0.0541
   37POPC  H13A 4910   1.673   3.795   6.312 -0.2339  1.6424 -1.5901
   37POPC  H13B 4911   1.673   3.738   6.150  3.4763  0.0422  0.7741
   37POPC  H13C 4912   1.536   3.701   6.254 -0.0916 -1.1218 -1.5538
   37POPC   C14 4913   1.864   3.643   6.287 -0.6359  0.3369 -0.3466
   37POPC  H14A 4914   1.928   3.558   6.305 -0.7087  0.6881  1.7658
   37POPC  H14B 4915   1.884   3.674   6.185 -0.7217 -2.5891 -1.3599
   37POPC  H14C 4916   1.875   3.723   6.358  0.3493 -0.1812  0.1056
   37POPC   C15 4917   1.692   3.471   6.221 -0.3360  0.0694  0.0250
   37POPC  H15A 4918   1.588   3.441   6.221 -0.6709  0.6056 -4.2216
   37POPC  H15B 4919   1.751   3.385   6.248  0.5983  0.3896 -0.9720
   37POPC  H15C 4920   1.720   3.490   6.119  0.7249  2.2618  0.6557
   37POPC   C11 4921   1.548   3.526   6.489  0.1903 -0.0880  0.4328
   37POPC  H11A 4922   1.477   3.598   6.443 -2.5782 -1.7080  1.8932
   37POPC  H11B 4923   1.539   3.526   6.599  1.3356  2.1563  0.6056
   37POPC     P 4924   1.379   3.327   6.435 -0.0717  0.0184  0.2994
   37POPC   O13 4925   1.399   3.191   6.460  0.1438  0.8413 -0.3913
   37POPC   O14 4926   1.314   3.356   6.308  0.4736 -0.0310  0.1299
   37POPC   O12 4927   1.520   3.401   6.438 -0.0470  0.2742 -0.2419
   37POPC   O11 4928   1.311   3.401   6.561  0.5579 -0.3746  0.5414
   37POPC    C1 4929   1.196   3.348   6.610  0.1304  0.4223  0.1126
   37POPC    HA 4930   1.140   3.275   6.548 -1.9326  3.5905 -2.0861
   37POPC    HB 4931   1.120   3.428   6.628  0.4635  1.0668 -1.2472
   37POPC    C2 4932   1.204   3.287   6.756  0.2838 -0.6655  0.3980
   37POPC    HS 4933   1.276   3.202   6.750 -1.2869 -1.9684 -0.6615
   37POPC   O21 4934   1.080   3.239   6.786  0.1912  0.2786 -0.2421
   37POPC   C21 4935   1.078   3.144   6.879  0.1457 -0.1933  0.0083
   37POPC   O22 4936   1.178   3.091   6.927  0.0600  0.1105  0.2715
   37POPC   C22 4937   0.934   3.114   6.913 -0.0516 -0.1299  0.2217
   37POPC   H2R 4938   0.927   3.003   6.906 -0.2911 -0.1089  0.1399
   37POPC   H2S 4939   0.871   3.155   6.831  0.8039 -2.6463 -1.8410
   37POPC    C3 4940   1.250   3.405   6.854  0.0858  0.0659  0.2155
   37POPC    HX 4941   1.191   3.498   6.838  0.2369 -0.2281 -2.4085
   37POPC    HY 4942   1.354   3.428   6.822  0.3949 -1.2262  0.2492
   37POPC   O31 4943   1.244   3.371   7.002 -0.0883  0.3783  0.0928
   37POPC   C31 4944   1.346   3.312   7.061  0.1606 -0.0618  0.0415
   37POPC   O32 4945   1.456   3.302   7.013 -0.1526 -0.3157  0.0869
   37POPC   C32 4946   1.309   3.280   7.207 -0.0626  0.8118 -0.3686
   37POPC   H2X 4947   1.404   3.307   7.258  0.6605  1.2196 -1.8716
   37POPC   H2Y 4948   1.298   3.169   7.205 -2.0558  0.9442  0.6364
   37POPC   C23 4949   0.887   3.154   7.050  0.1414 -0.0183 -0.2013
   37POPC   H3R 4950   0.776   3.139   7.050 -0.5041  3.4758 -2.9106
   37POPC   H3S 4951   0.908   3.261   7.070 -2.9713  0.8941 -1.1638
   37POPC   C24 4952   0.954   3.077   7.161 -0.0543  0.3375 -0.0752
   37POPC   H4R 4953   1.063   3.096   7.161 -0.1089  0.8754 -1.8475
   37POPC   H4S 4954   0.927   2.971   7.138  1.2626  0.2048 -1.1370
   37POPC   C25 4955   0.887   3.109   7.299 -0.1223  0.4339  0.5849
   37POPC   H5R 4956   0.776   3.104   7.288 -0.5942 -2.7306  4.3281
   37POPC   H5S 4957   0.913   3.211   7.334 -0.4581  1.0203 -0.8098
   37POPC   C26 4958   0.923   3.007   7.405  0.1951 -0.0650 -0.1857
   37POPC   H6R 4959   1.034   3.000   7.411  0.2904  1.8185  1.5246
   37POPC   H6S 4960   0.883   2.909   7.372 -1.6756  0.9569 -1.0881
   37POPC   C27 4961   0.850   3.024   7.543 -0.3107 -0.2972  0.3774
   37POPC   H7R 4962   0.864   2.939   7.613  0.3284  0.6525  1.4465
   37POPC   H7S 4963   0.740   3.024   7.528 -0.1500  2.3290 -1.4862
   37POPC   C28 4964   0.890   3.153   7.620  0.5601 -0.9598  0.2532
   37POPC   H8R 4965   0.873   3.223   7.536  2.5581 -0.3033  0.3515
   37POPC   H8S 4966   1.000   3.160   7.631  0.6598 -1.1678 -0.5390
   37POPC   C29 4967   0.804   3.199   7.733  0.2892  0.4001 -0.3894
   37POPC   H91 4968   0.756   3.297   7.719 -0.4633 -0.0963 -1.3803
   37POPC  C210 4969   0.757   3.124   7.836 -0.4258 -0.2121  0.1852
   37POPC  H101 4970   0.693   3.183   7.904  0.4620 -0.1837  1.0268
   37POPC  C211 4971   0.776   2.977   7.876  0.3897 -0.5662  0.6525
   37POPC  H11R 4972   0.886   2.962   7.871  0.8585  2.5602 -1.0695
   37POPC  H11S 4973   0.727   2.907   7.804  0.8052 -0.0075 -0.1903
   37POPC  C212 4974   0.709   2.944   8.012 -0.9983 -0.3337 -0.4361
   37POPC  H12R 4975   0.682   2.840   8.043 -0.8992 -0.4497 -0.7357
   37POPC  H12S 4976   0.612   2.997   8.020 -1.1658 -0.1977 -2.7780
   37POPC  C213 4977   0.799   2.984   8.132  0.1452  0.7310 -0.9627
   37POPC  H13R 4978   0.728   3.012   8.213 -2.3630  1.7429 -3.3097
   37POPC  H13S 4979   0.855   3.076   8.105 -0.2294  1.8112  1.6856
   37POPC  C214 4980   0.904   2.888   8.177  0.2075  0.2765 -0.0731
   37POPC  H14R 4981   0.956   2.850   8.086  1.4326  2.7729 -0.5088
   37POPC  H14S 4982   0.851   2.817   8.244  0.1672  1.2747  0.9793
   37POPC  C215 4983   1.018   2.954   8.261  0.0989  0.5176  0.4766
   37POPC  H15R 4984   0.969   3.019   8.337 -0.0241  2.6004 -1.2766
   37POPC  H15S 4985   1.085   3.015   8.197  1.1722 -2.7473 -1.7790
   37POPC  C216 4986   1.102   2.841   8.328  0.3296  0.2924  0.6684
   37POPC  H16R 4987   1.191   2.890   8.373  0.1875  0.4924  0.7344
   37POPC  H16S 4988   1.154   2.777   8.254 -1.5626  0.8444 -1.2560
   37POPC  C217 4989   1.021   2.769   8.437 -0.2828  0.2148 -0.5134
   37POPC  H17R 4990   0.945   2.703   8.391 -1.4878  0.5821  0.8796
   37POPC  H17S 4991   0.963   2.845   8.493  0.7325  0.6178  0.0306
   37POPC  C218 4992   1.101   2.691   8.545  0.4888  0.3955  0.3076
   37POPC  H18R 4993   1.174   2.758   8.595  0.0058 -0.9100  2.9095
   37POPC  H18S 4994   1.164   2.612   8.499  1.0784  1.1539 -0.2101
   37POPC  H18T 4995   1.031   2.642   8.616  0.3837 -2.8730 -1.8347
   37POPC   C33 4996   1.203   3.373   7.262 -0.5262  0.2018  0.6193
   37POPC   H3X 4997   1.115   3.366   7.195  0.6639  3.8891 -1.6381
   37POPC   H3Y 4998   1.240   3.476   7.243 -0.2305 -0.2320 -1.3352
   37POPC   C34 4999   1.175   3.362   7.417  0.4150  0.3783 -0.1508
   37POPC   H4X 5000   1.161   3.253   7.436  0.0191  0.6236  1.0321
   37POPC   H4Y 5001   1.089   3.428   7.442  0.4621  1.4784 -2.5709
   37POPC   C35 5002   1.293   3.404   7.507 -0.1125  0.0770  0.0494
   37POPC   H5X 5003   1.323   3.508   7.481 -0.9013 -0.0760 -1.6077
   37POPC   H5Y 5004   1.378   3.337   7.480  0.9467  1.1863  0.5410
   37POPC   C36 5005   1.264   3.400   7.657 -0.4687 -0.2718  0.3220
   37POPC   H6X 5006   1.172   3.462   7.667 -0.7649 -0.9491  2.0912
   37POPC   H6Y 5007   1.348   3.451   7.707  1.3505  0.1895 -2.9672
   37POPC   C37 5008   1.274   3.255   7.718  0.4576 -0.8566 -0.7854
   37POPC   H7X 5009   1.369   3.203   7.694  1.3003  0.8596 -1.3532
   37POPC   H7Y 5010   1.197   3.193   7.667 -0.0600  0.5679 -1.8399
   37POPC   C38 5011   1.253   3.259   7.869  0.3407  0.1088 -0.4225
   37POPC   H8X 5012   1.347   3.256   7.929 -0.7093 -1.3806  1.2523
   37POPC   H8Y 5013   1.209   3.159   7.890 -0.0026  0.3866  0.2325
   37POPC   C39 5014   1.155   3.353   7.930 -0.6320  0.0624  0.1953
   37POPC   H9X 5015   1.068   3.362   7.861  0.5892 -0.1412 -1.4195
   37POPC   H9Y 5016   1.201   3.453   7.934  0.1318 -0.3048  1.0594
   37POPC  C310 5017   1.117   3.299   8.070 -0.1914 -0.6916  0.0741
   37POPC  H10X 5018   1.071   3.198   8.066  1.4549 -1.4453 -0.9712
   37POPC  H10Y 5019   1.046   3.375   8.109 -1.1214 -0.3955 -2.0377
   37POPC  C311 5020   1.237   3.310   8.171 -0.3711 -0.4650  0.4576
   37POPC  H11X 5021   1.293   3.405   8.157  2.2294 -1.6919  1.7784
   37POPC  H11Y 5022   1.306   3.233   8.131 -0.8166 -0.3256 -0.6095
   37POPC  C312 5023   1.194   3.290   8.315 -0.6583 -0.2587 -0.1469
   37POPC  H12X 5024   1.123   3.204   8.317 -2.4926  1.1207 -1.9516
   37POPC  H12Y 5025   1.152   3.384   8.358  0.3163  0.9150 -1.6699
   37POPC  C313 5026   1.315   3.246   8.405  0.7522 -0.6056 -0.5122
   37POPC  H13X 5027   1.362   3.149   8.379  1.2261 -0.5659  0.1678
   37POPC  H13Y 5028   1.287   3.249   8.513 -3.5425 -0.9360 -1.4354
   37POPC  C314 5029   1.435   3.350   8.397  0.8879 -0.0887  0.9411
   37POPC  H14X 5030   1.391   3.449   8.421  0.4745 -0.1742  0.5480
   37POPC  H14Y 5031   1.463   3.349   8.290 -0.0378  1.3688  0.6543
   37POPC  C315 5032   1.552   3.346   8.492 -0.0557 -0.3859 -0.3618
   37POPC  H15X 5033   1.584   3.241   8.509  2.0096  0.5811  2.3762
   37POPC  H15Y 5034   1.507   3.380   8.588 -0.5939  0.5614 -0.9293
   37POPC  C316 5035   1.660   3.444   8.439 -0.3595 -0.2847  0.5010
   37POPC  H16X 5036   1.630   3.486   8.341 -2.2680 -1.4689  0.5287
   37POPC  H16Y 5037   1.750   3.387   8.406  1.2522  2.6470 -0.5021
   37POPC  H16Z 5038   1.688   3.518   8.517 -0.2998 -2.2046  2.4019
   38POPC     N 5039   0.209   1.025   5.976 -0.7307 -0.3306 -0.5720
   38POPC   C12 5040   0.311   1.099   6.056  0.1167 -0.4519 -0.6301
   38POPC  H12A 5041   0.274   1.201   6.060 -1.1907 -0.9339 -0.1598
   38POPC  H12B 5042   0.404   1.096   6.001  1.0205 -3.2019  0.8904
   38POPC   C13 5043   0.082   1.037   6.053  0.5096  0.3161 -0.4576
   38POPC  H13A 5044   0.005   0.969   6.020 -0.3915  1.4834 -0.8454
   38POPC  H13B 5045   0.085   1.015   6.159  2.6231 -0.6844 -0.6919
   38POPC  H13C 5046   0.040   1.136   6.045  0.6529  0.2917 -1.6778
   38POPC   C14 5047   0.183   1.088   5.840  0.1324 -0.1685 -0.2143
   38POPC  H14A 5048   0.278   1.113   5.796 -0.1940  0.6076 -0.4937
   38POPC  H14B 5049   0.133   1.020   5.772  0.7789  0.7296 -1.6329
   38POPC  H14C 5050   0.134   1.183   5.853 -1.4055 -0.6703 -1.8770
   38POPC   C15 5051   0.241   0.882   5.950 -0.8790 -0.0408 -0.5035
   38POPC  H15A 5052   0.302   0.833   6.024 -2.1839 -0.6680  0.1892
   38POPC  H15B 5053   0.285   0.854   5.855  1.1887  0.7814  0.1633
   38POPC  H15C 5054   0.149   0.826   5.957 -0.8527  0.0694  0.9006
   38POPC   C11 5055   0.349   1.050   6.204  0.2718  0.1525 -0.3591
   38POPC  H11A 5056   0.257   1.056   6.267  0.7091  2.1866  0.1386
   38POPC  H11B 5057   0.429   1.117   6.241  2.9221 -1.4578 -2.7817
   38POPC     P 5058   0.531   0.870   6.171 -0.5473 -0.2854 -0.3506
   38POPC   O13 5059   0.604   0.994   6.133  0.4091 -0.0373  0.1576
   38POPC   O14 5060   0.537   0.752   6.077  0.0574 -0.5839 -0.8016
   38POPC   O12 5061   0.384   0.911   6.205  0.2712 -0.0436 -0.3221
   38POPC   O11 5062   0.590   0.822   6.312  0.0021 -0.1859 -0.0150
   38POPC    C1 5063   0.502   0.777   6.412  0.0307 -0.0972  0.0841
   38POPC    HA 5064   0.550   0.699   6.475  0.7337  1.9942  2.2899
   38POPC    HB 5065   0.407   0.737   6.369 -0.6344  2.7379 -1.2990
   38POPC    C2 5066   0.470   0.891   6.517 -0.0112  0.5109 -0.3215
   38POPC    HS 5067   0.433   0.976   6.456 -1.8994  0.0686  0.1430
   38POPC   O21 5068   0.594   0.920   6.588  0.3145 -0.6520 -0.6052
   38POPC   C21 5069   0.624   1.043   6.615 -0.1829  0.4641  0.3525
   38POPC   O22 5070   0.577   1.144   6.567  0.2067 -0.2014 -0.3133
   38POPC   C22 5071   0.747   1.034   6.705  0.0690  0.5201 -0.1535
   38POPC   H2R 5072   0.752   0.933   6.751 -1.7215 -0.4084 -1.8687
   38POPC   H2S 5073   0.733   1.109   6.785 -0.8879 -0.6810  0.8423
   38POPC    C3 5074   0.360   0.853   6.619  0.5604  0.4220 -0.2629
   38POPC    HX 5075   0.262   0.852   6.567 -0.5950  0.4602  1.8434
   38POPC    HY 5076   0.339   0.940   6.685 -1.2050 -0.4793  0.4148
   38POPC   O31 5077   0.387   0.727   6.687  0.0542 -1.1237  0.6731
   38POPC   C31 5078   0.434   0.744   6.804 -0.3643  0.3561 -0.2159
   38POPC   O32 5079   0.465   0.846   6.863  0.2533  0.1224 -0.1860
   38POPC   C32 5080   0.473   0.612   6.867  0.1198 -0.0753  0.3835
   38POPC   H2X 5081   0.529   0.560   6.786  0.3265  0.1005  0.4139
   38POPC   H2Y 5082   0.384   0.547   6.883 -0.7627  0.7780 -0.8302
   38POPC   C23 5083   0.879   1.052   6.630 -0.8610  0.4609 -0.2653
   38POPC   H3R 5084   0.882   1.148   6.575 -1.8914  1.5008  1.4299
   38POPC   H3S 5085   0.875   0.973   6.552  0.1154  2.0188 -1.9810
   38POPC   C24 5086   0.998   1.017   6.725 -0.8911 -0.4047  0.0379
   38POPC   H4R 5087   1.091   1.004   6.666 -1.2811  1.2227 -1.0037
   38POPC   H4S 5088   0.989   0.920   6.778  2.9760 -0.1775  1.3890
   38POPC   C25 5089   1.022   1.124   6.833  0.4463 -0.2901  0.5982
   38POPC   H5R 5090   0.935   1.139   6.901  2.0637 -1.7497  3.1743
   38POPC   H5S 5091   1.053   1.219   6.784 -0.0278  0.5624  1.8916
   38POPC   C26 5092   1.133   1.069   6.919 -0.1092  0.0514  0.4383
   38POPC   H6R 5093   1.228   1.070   6.863 -0.3222  0.8634  0.0746
   38POPC   H6S 5094   1.122   0.962   6.947  0.2595 -0.2716 -0.6247
   38POPC   C27 5095   1.152   1.155   7.047 -0.5891 -0.0179  0.5069
   38POPC   H7R 5096   1.069   1.120   7.112 -0.5043 -1.3879 -0.0855
   38POPC   H7S 5097   1.159   1.263   7.024  1.2748  0.2736  2.1233
   38POPC   C28 5098   1.275   1.114   7.128 -0.2573  0.3666 -0.7104
   38POPC   H8R 5099   1.287   1.004   7.142 -0.4023  0.7830  4.0432
   38POPC   H8S 5100   1.254   1.143   7.233 -1.3163  0.7685 -1.0210
   38POPC   C29 5101   1.394   1.175   7.063  0.0769 -0.1305  0.2926
   38POPC   H91 5102   1.406   1.141   6.959  1.4434  1.5194 -0.1440
   38POPC  C210 5103   1.489   1.253   7.114 -0.2835 -0.4073  0.4366
   38POPC  H101 5104   1.570   1.300   7.056 -1.9071  0.9119 -0.8795
   38POPC  C211 5105   1.489   1.312   7.253  0.3251 -0.1592  0.0894
   38POPC  H11R 5106   1.385   1.309   7.291  0.3482 -3.6903  0.2030
   38POPC  H11S 5107   1.516   1.419   7.247 -2.5712  0.5642 -2.1803
   38POPC  C212 5108   1.569   1.213   7.344 -0.3529  0.3503  0.2501
   38POPC  H12R 5109   1.672   1.201   7.304 -0.0272  2.2497  0.4399
   38POPC  H12S 5110   1.529   1.109   7.343  0.8242 -0.1306  0.5970
   38POPC  C213 5111   1.589   1.268   7.485  0.6961  0.3519  0.3707
   38POPC  H13R 5112   1.630   1.190   7.553  2.1295  1.8184  1.2800
   38POPC  H13S 5113   1.485   1.284   7.520 -0.5347 -2.3167 -1.6883
   38POPC  C214 5114   1.670   1.387   7.485  0.6979 -0.2445  0.4913
   38POPC  H14R 5115   1.642   1.470   7.417  0.3991 -0.5541  0.2371
   38POPC  H14S 5116   1.770   1.354   7.450  1.2794  2.3033 -0.4535
   38POPC  C215 5117   1.693   1.442   7.628 -0.2735  0.2375  0.8839
   38POPC  H15R 5118   1.597   1.445   7.684  1.3441 -0.1776  3.9258
   38POPC  H15S 5119   1.731   1.547   7.637  0.2789 -0.0120  1.5780
   38POPC  C216 5120   1.795   1.356   7.704 -0.5911 -0.9996  0.8648
   38POPC  H16R 5121   1.894   1.380   7.659 -0.1189  0.2281  2.4522
   38POPC  H16S 5122   1.779   1.247   7.685  2.9282 -1.8213  1.8219
   38POPC  C217 5123   1.802   1.375   7.852  0.1562 -0.4502  0.0059
   38POPC  H17R 5124   1.699   1.358   7.889 -0.4127  0.0514 -1.2638
   38POPC  H17S 5125   1.842   1.478   7.863 -2.4457  0.4024  2.7318
   38POPC  C218 5126   1.897   1.271   7.918  0.2258 -0.0187  0.1306
   38POPC  H18R 5127   1.863   1.166   7.907 -1.9326  0.5691  0.5852
   38POPC  H18S 5128   1.908   1.288   8.027  0.3527  0.5661  0.0331
   38POPC  H18T 5129   1.994   1.267   7.865  0.1280 -2.3850  0.0252
   38POPC   C33 5130   0.565   0.623   6.988  0.7291  0.6878 -0.7711
   38POPC   H3X 5131   0.501   0.656   7.072  0.8355 -1.7147  0.3349
   38POPC   H3Y 5132   0.633   0.706   6.961  1.8531  0.4404  1.1224
   38POPC   C34 5133   0.634   0.489   7.026  0.1773  0.1298 -0.0087
   38POPC   H4X 5134   0.711   0.521   7.099 -1.3091  2.1121  0.7891
   38POPC   H4Y 5135   0.688   0.443   6.940 -0.0978 -1.1253  0.4704
   38POPC   C35 5136   0.539   0.389   7.093 -0.2256 -1.0383 -0.0247
   38POPC   H5X 5137   0.600   0.296   7.097 -1.0171 -1.6187 -1.0925
   38POPC   H5Y 5138   0.449   0.360   7.036  0.3493 -0.1776 -1.4394
   38POPC   C36 5139   0.498   0.447   7.240 -0.4527  0.2094  0.3185
   38POPC   H6X 5140   0.416   0.378   7.270 -1.1902  0.3373 -1.2727
   38POPC   H6Y 5141   0.449   0.546   7.226 -0.8921 -0.1711 -1.0610
   38POPC   C37 5142   0.610   0.453   7.344 -0.6744  1.1130  0.2261
   38POPC   H7X 5143   0.686   0.529   7.318 -0.3591  0.3959 -1.0133
   38POPC   H7Y 5144   0.641   0.347   7.354  2.1571  1.6143 -1.8733
   38POPC   C38 5145   0.545   0.490   7.476 -0.1202 -0.9512  0.3892
   38POPC   H8X 5146   0.444   0.447   7.492  0.6307 -1.8734  3.0971
   38POPC   H8Y 5147   0.523   0.599   7.466 -1.9792 -1.3999 -0.9901
   38POPC   C39 5148   0.633   0.474   7.603  0.3934 -0.0040 -0.1119
   38POPC   H9X 5149   0.594   0.554   7.670 -1.1572 -0.0083 -0.9657
   38POPC   H9Y 5150   0.736   0.491   7.566  0.1809  0.6885 -0.3874
   38POPC  C310 5151   0.633   0.332   7.662 -0.5755  1.0528 -0.2318
   38POPC  H10X 5152   0.690   0.254   7.608  0.5866  0.1938  2.0763
   38POPC  H10Y 5153   0.526   0.301   7.658 -1.0807  2.6802 -0.2275
   38POPC  C311 5154   0.685   0.337   7.802 -0.4249 -0.4928 -0.1898
   38POPC  H11X 5155   0.637   0.410   7.870 -0.9022 -1.7745  0.8987
   38POPC  H11Y 5156   0.785   0.386   7.804 -1.1486  1.0461  1.9390
   38POPC  C312 5157   0.687   0.201   7.873 -0.1800 -0.5003 -0.7068
   38POPC  H12X 5158   0.743   0.126   7.813 -0.3655  0.6250 -2.3404
   38POPC  H12Y 5159   0.586   0.156   7.871 -0.6669  0.5782 -1.1942
   38POPC  C313 5160   0.758   0.200   8.008 -0.3138  0.2502 -0.9217
   38POPC  H13X 5161   0.838   0.277   8.006  1.5681 -1.3707  2.3986
   38POPC  H13Y 5162   0.797   0.099   8.032 -0.3793  0.2132 -0.9706
   38POPC  C314 5163   0.650   0.236   8.110  0.0493 -0.0835  0.1942
   38POPC  H14X 5164   0.586   0.148   8.134 -1.4350  1.3333  1.7220
   38POPC  H14Y 5165   0.597   0.321   8.062 -0.3239 -1.1799 -1.4275
   38POPC  C315 5166   0.705   0.292   8.241  0.1101 -1.0305  0.1445
   38POPC  H15X 5167   0.618   0.303   8.310  0.0120 -0.4384 -0.0625
   38POPC  H15Y 5168   0.737   0.397   8.226  0.7909 -1.2240  0.2375
   38POPC  C316 5169   0.823   0.224   8.306  0.6545  0.2359 -0.2594
   38POPC  H16X 5170   0.866   0.267   8.399  1.8051  0.6506 -0.9599
   38POPC  H16Y 5171   0.904   0.224   8.230 -0.6035  1.3854 -1.6538
   38POPC  H16Z 5172   0.792   0.122   8.336  0.1739 -0.1810 -2.0513
   39POPC     N 5173   6.335   3.315   5.700 -0.2965  0.4676  0.4944
   39POPC   C12 5174   6.292   3.200   5.791  0.5689 -0.5744 -1.0179
   39POPC  H12A 5175   6.249   3.126   5.724 -2.6278  0.5664 -0.3872
   39POPC  H12B 5176   6.212   3.222   5.860  1.3747  0.1639 -0.3013
   39POPC   C13 5177   6.222   3.385   5.635 -0.3144  0.4271  0.1195
   39POPC  H13A 5178   6.172   3.430   5.719 -0.7384  1.0134 -0.4438
   39POPC  H13B 5179   6.251   3.464   5.568 -0.4591  2.3094  2.1532
   39POPC  H13C 5180   6.146   3.322   5.594  1.0364 -0.8357 -0.5409
   39POPC   C14 5181   6.424   3.411   5.782  0.3315  0.6005  0.6465
   39POPC  H14A 5182   6.496   3.348   5.831  1.7524  0.8528 -1.0104
   39POPC  H14B 5183   6.475   3.479   5.716 -0.1564 -0.5501 -0.9852
   39POPC  H14C 5184   6.361   3.461   5.854  0.6268  2.5324 -0.3598
   39POPC   C15 5185   6.420   3.256   5.590 -0.0575  0.4932 -0.0925
   39POPC  H15A 5186   6.406   3.309   5.497  1.0724 -0.6051 -0.9069
   39POPC  H15B 5187   6.402   3.156   5.554  1.3611 -0.1951  0.9816
   39POPC  H15C 5188   6.526   3.261   5.610  0.2530 -4.4634  0.8266
   39POPC   C11 5189   6.399   3.132   5.881  0.1424  0.1639  0.2825
   39POPC  H11A 5190   6.493   3.105   5.829 -0.6733 -1.1537 -0.5749
   39POPC  H11B 5191   6.351   3.037   5.914 -0.6064  0.5831  0.4229
   39POPC     P 5192   6.321   3.232   6.117 -0.4481  0.2236 -0.0058
   39POPC   O13 5193   6.324   3.117   6.201 -0.1207 -0.5103 -0.2953
   39POPC   O14 5194   6.187   3.250   6.058 -0.3984 -0.3690  0.1720
   39POPC   O12 5195   6.422   3.219   5.992  0.9357 -0.3558 -0.6168
   39POPC   O11 5196   6.367   3.365   6.185  0.1707  0.1800 -0.5166
   39POPC    C1 5197   6.443   3.371   6.303 -0.8046  0.5938  0.2643
   39POPC    HA 5198   6.531   3.434   6.282  0.0957 -0.9648 -0.9056
   39POPC    HB 5199   6.491   3.274   6.330  1.1642  1.3625 -0.2950
   39POPC    C2 5200   6.367   3.428   6.430 -0.0985  0.1277  0.0639
   39POPC    HS 5201   6.440   3.435   6.514  1.6844 -1.7402 -1.2405
   39POPC   O21 5202   6.248   3.348   6.463 -0.3503 -0.3950 -0.1035
   39POPC   C21 5203   6.263   3.224   6.509 -0.2780  0.2458  0.7886
   39POPC   O22 5204   6.361   3.181   6.563 -0.0396  0.2883  0.4817
   39POPC   C22 5205   6.127   3.151   6.498  0.0461  0.4276  0.1018
   39POPC   H2R 5206   6.107   3.137   6.389  0.1456 -0.0117  0.1382
   39POPC   H2S 5207   6.043   3.213   6.534 -1.2859 -0.0577 -1.9962
   39POPC    C3 5208   6.312   3.572   6.398  0.2119 -1.0439  1.2034
   39POPC    HX 5209   6.225   3.566   6.329  1.6147  1.0171 -0.9100
   39POPC    HY 5210   6.378   3.633   6.333  0.6934 -1.7308  1.0411
   39POPC   O31 5211   6.263   3.638   6.521  0.3638  0.4968 -0.1122
   39POPC   C31 5212   6.355   3.716   6.580  0.1129 -0.1913  0.2855
   39POPC   O32 5213   6.459   3.755   6.527  0.3100  0.1218 -0.4267
   39POPC   C32 5214   6.300   3.764   6.707  0.2146 -0.2629 -0.3772
   39POPC   H2X 5215   6.196   3.790   6.680  0.7335  0.2855 -1.9706
   39POPC   H2Y 5216   6.307   3.672   6.769  1.4083 -1.0725 -1.6574
   39POPC   C23 5217   6.104   3.011   6.557 -0.1302  0.0767  0.8212
   39POPC   H3R 5218   6.191   2.946   6.535 -0.7917 -0.3055 -0.7610
   39POPC   H3S 5219   6.021   2.954   6.510 -1.5100  0.8063  2.2959
   39POPC   C24 5220   6.086   3.023   6.707  0.6901 -0.4042  0.6214
   39POPC   H4R 5221   6.002   3.092   6.731  2.0415  0.1549  4.3467
   39POPC   H4S 5222   6.176   3.072   6.750  1.1077  1.4436 -2.1563
   39POPC   C25 5223   6.053   2.889   6.779  0.0859  0.4416  1.2725
   39POPC   H5R 5224   6.146   2.834   6.803 -0.2740  0.3289  2.4885
   39POPC   H5S 5225   6.001   2.816   6.712  0.0198  0.9349  0.7749
   39POPC   C26 5226   5.965   2.896   6.912  0.4640 -0.4803  0.3456
   39POPC   H6R 5227   5.970   2.789   6.940 -0.0925 -0.3484  0.9781
   39POPC   H6S 5228   5.863   2.931   6.882  0.1111  0.3147  2.3366
   39POPC   C27 5229   6.022   2.986   7.029 -0.0480  0.5291  0.3715
   39POPC   H7R 5230   5.998   3.094   7.017  0.6467  0.5859 -0.6255
   39POPC   H7S 5231   6.133   2.985   7.023  0.1032 -0.0934  2.5485
   39POPC   C28 5232   5.988   2.941   7.168  0.0681 -0.0743  0.3817
   39POPC   H8R 5233   6.053   2.993   7.242 -0.6904  0.2368  0.8473
   39POPC   H8S 5234   6.021   2.835   7.175 -1.2465 -0.4098  2.3310
   39POPC   C29 5235   5.846   2.932   7.222  0.4417  0.4620  0.7435
   39POPC   H91 5236   5.776   2.998   7.169  0.7081 -1.0958 -1.7124
   39POPC  C210 5237   5.790   2.864   7.326 -0.3953 -0.2916 -0.2700
   39POPC  H101 5238   5.683   2.870   7.353 -0.3683 -0.6979 -0.0574
   39POPC  C211 5239   5.883   2.781   7.417  0.0621 -0.3011  0.0237
   39POPC  H11R 5240   5.991   2.804   7.411  0.1779 -0.6351  0.7216
   39POPC  H11S 5241   5.870   2.672   7.400 -1.7166  0.0311 -1.0696
   39POPC  C212 5242   5.837   2.801   7.563  0.1710  0.3101  0.4484
   39POPC  H12R 5243   5.727   2.784   7.556  0.7240 -3.2743 -2.5589
   39POPC  H12S 5244   5.858   2.904   7.599  1.1005  0.4468 -0.4372
   39POPC  C213 5245   5.915   2.713   7.663 -0.2000 -0.2044  0.3157
   39POPC  H13R 5246   6.022   2.740   7.669 -0.1175 -0.4348 -0.1285
   39POPC  H13S 5247   5.910   2.605   7.638 -1.4008  0.3720 -2.2526
   39POPC  C214 5248   5.865   2.734   7.811 -0.3805  0.0785  0.6531
   39POPC  H14R 5249   5.858   2.844   7.823 -1.9174  0.3609 -1.9175
   39POPC  H14S 5250   5.950   2.703   7.876  0.3555  1.3274  0.3160
   39POPC  C215 5251   5.724   2.671   7.832  0.2671  0.0420 -0.3792
   39POPC  H15R 5252   5.732   2.561   7.837 -0.8564 -0.0290  0.2556
   39POPC  H15S 5253   5.644   2.698   7.760 -0.2124 -0.9124 -0.2196
   39POPC  C216 5254   5.674   2.702   7.972 -0.4884 -0.3848 -0.4223
   39POPC  H16R 5255   5.571   2.667   7.993 -0.1446 -2.1814 -1.4883
   39POPC  H16S 5256   5.660   2.811   7.988 -1.9373 -0.7747  1.2059
   39POPC  C217 5257   5.768   2.648   8.084  0.6369  0.0004  0.4620
   39POPC  H17R 5258   5.869   2.693   8.080  0.4869  0.2912 -0.1728
   39POPC  H17S 5259   5.791   2.543   8.058 -0.9841 -0.0430 -0.9692
   39POPC  C218 5260   5.704   2.664   8.228  0.0663  0.0805  0.2686
   39POPC  H18R 5261   5.737   2.587   8.301 -1.2339 -2.1317 -1.3581
   39POPC  H18S 5262   5.594   2.657   8.222 -0.2947  3.5339  0.7941
   39POPC  H18T 5263   5.720   2.767   8.265 -2.0964  0.6559 -0.2461
   39POPC   C33 5264   6.378   3.884   6.773 -0.2357  0.1852 -0.0707
   39POPC   H3X 5265   6.338   3.972   6.719  0.0138  0.0425 -0.4984
   39POPC   H3Y 5266   6.488   3.876   6.762 -0.2472  1.2557 -1.1432
   39POPC   C34 5267   6.342   3.906   6.918 -0.1961 -0.0519 -0.0769
   39POPC   H4X 5268   6.375   3.814   6.969 -0.6278 -0.0933  0.1384
   39POPC   H4Y 5269   6.231   3.903   6.930  0.0368 -2.5695  2.3300
   39POPC   C35 5270   6.394   4.039   6.978 -0.4720  1.1059  0.1516
   39POPC   H5X 5271   6.338   4.126   6.938  1.5106  1.8601 -1.1919
   39POPC   H5Y 5272   6.500   4.062   6.951 -0.7162  1.3873 -0.6009
   39POPC   C36 5273   6.399   4.042   7.130  0.0099  0.2043 -0.5655
   39POPC   H6X 5274   6.467   3.961   7.162 -0.8599  0.8451  3.4717
   39POPC   H6Y 5275   6.300   4.003   7.162  0.7145 -0.1222  1.3814
   39POPC   C37 5276   6.432   4.186   7.191 -0.8007  0.2490 -0.4041
   39POPC   H7X 5277   6.357   4.267   7.203  0.4467  1.7971 -2.3164
   39POPC   H7Y 5278   6.506   4.230   7.121  1.5934  2.6807  3.2903
   39POPC   C38 5279   6.506   4.171   7.325 -0.1978 -0.3405 -0.2484
   39POPC   H8X 5280   6.573   4.257   7.348 -0.6057 -0.0280 -0.2144
   39POPC   H8Y 5281   6.565   4.077   7.326 -0.9090 -0.8362 -1.7510
   39POPC   C39 5282   6.399   4.178   7.435  0.1164  0.0533  0.8458
   39POPC   H9X 5283   6.323   4.098   7.422  0.6888 -0.1675 -1.5448
   39POPC   H9Y 5284   6.344   4.274   7.426 -0.2128 -0.2894 -1.2039
   39POPC  C310 5285   6.455   4.164   7.582 -0.4016 -1.0052 -0.0400
   39POPC  H10X 5286   6.557   4.207   7.582 -0.4141 -0.9771  0.4809
   39POPC  H10Y 5287   6.471   4.055   7.598  1.3495 -0.7060  0.4848
   39POPC  C311 5288   6.361   4.218   7.692  0.4355  1.1551  0.3573
   39POPC  H11X 5289   6.284   4.138   7.702  1.1243  0.3754 -0.3826
   39POPC  H11Y 5290   6.330   4.321   7.666  3.7242  1.9426 -1.0171
   39POPC  C312 5291   6.433   4.219   7.834 -0.0917  0.3834 -0.0622
   39POPC  H12X 5292   6.368   4.279   7.901 -0.6124  0.3312 -0.5151
   39POPC  H12Y 5293   6.534   4.264   7.820  0.0593 -0.3412 -1.4729
   39POPC  C313 5294   6.448   4.080   7.893 -0.0364 -0.1984  0.2061
   39POPC  H13X 5295   6.520   4.012   7.841  0.3078  1.1027 -1.0921
   39POPC  H13Y 5296   6.351   4.028   7.903  1.6886 -3.4433  1.6233
   39POPC  C314 5297   6.505   4.094   8.033 -0.4061 -0.5092 -0.4465
   39POPC  H14X 5298   6.487   4.197   8.073 -0.7666 -1.4348  1.9452
   39POPC  H14Y 5299   6.615   4.087   8.041 -0.5590 -1.1425  1.7497
   39POPC  C315 5300   6.445   4.007   8.151 -0.1327 -0.3109 -0.4738
   39POPC  H15X 5301   6.451   3.897   8.139 -2.3817 -0.5847  0.4154
   39POPC  H15Y 5302   6.337   4.035   8.156 -0.0613 -0.2783  1.5897
   39POPC  C316 5303   6.492   4.045   8.292  0.1920  0.5503  0.4736
   39POPC  H16X 5304   6.603   4.044   8.296  0.1967 -0.1055  0.2569
   39POPC  H16Y 5305   6.452   3.968   8.361 -0.7838  0.5618 -0.0661
   39POPC  H16Z 5306   6.454   4.146   8.317  1.1015  0.5618  1.9498
   40POPC     N 5307   5.359   0.230   6.138 -0.3771 -0.5793 -0.0173
   40POPC   C12 5308   5.270   0.195   6.255  0.3614  0.6018 -0.0230
   40POPC  H12A 5309   5.325   0.205   6.348  1.7409 -0.1415 -0.7361
   40POPC  H12B 5310   5.249   0.092   6.229  1.2558  0.3942  0.0289
   40POPC   C13 5311   5.378   0.377   6.136 -0.3637 -0.4774  0.8527
   40POPC  H13A 5312   5.441   0.415   6.215  1.7122  0.9553 -1.3706
   40POPC  H13B 5313   5.418   0.410   6.041  0.3477 -3.4525  0.0122
   40POPC  H13C 5314   5.276   0.412   6.149 -1.1073 -1.3867 -1.7884
   40POPC   C14 5315   5.500   0.165   6.135  0.4510  0.1660 -0.0846
   40POPC  H14A 5316   5.549   0.188   6.229 -1.5966  0.6415  0.9241
   40POPC  H14B 5317   5.475   0.060   6.129 -0.3273  0.3199  0.3453
   40POPC  H14C 5318   5.558   0.203   6.052  1.1226  0.0376  0.3163
   40POPC   C15 5319   5.292   0.197   6.009 -0.3110  0.7489  0.1572
   40POPC  H15A 5320   5.266   0.093   5.998  0.5526  0.7298 -2.2209
   40POPC  H15B 5321   5.362   0.222   5.930 -0.4471 -1.0983 -0.5931
   40POPC  H15C 5322   5.198   0.250   6.005  0.8027  2.7979 -1.2553
   40POPC   C11 5323   5.132   0.269   6.268 -0.0911  0.3613  0.6935
   40POPC  H11A 5324   5.151   0.376   6.291 -1.6828  0.5506  1.2491
   40POPC  H11B 5325   5.093   0.218   6.359  0.9257 -1.6926  0.0477
   40POPC     P 5326   4.927   0.317   6.118 -0.0452 -0.0030 -0.1020
   40POPC   O13 5327   4.823   0.225   6.062  0.3596 -0.3228  0.0261
   40POPC   O14 5328   4.969   0.426   6.029  0.7846 -0.1139 -0.5902
   40POPC   O12 5329   5.054   0.240   6.155  0.9149  0.0391  0.1636
   40POPC   O11 5330   4.870   0.372   6.255 -0.0066 -0.1054 -0.0055
   40POPC    C1 5331   4.796   0.291   6.342 -0.3807 -0.8442 -0.3142
   40POPC    HA 5332   4.812   0.335   6.443 -0.6899  1.6093 -1.2508
   40POPC    HB 5333   4.834   0.187   6.342 -0.0357 -0.7194 -0.1662
   40POPC    C2 5334   4.646   0.298   6.318 -0.4587 -0.5199 -0.1391
   40POPC    HS 5335   4.635   0.297   6.207 -0.5496  0.1091 -0.1364
   40POPC   O21 5336   4.598   0.424   6.380 -0.4500 -0.1976  0.6025
   40POPC   C21 5337   4.591   0.530   6.303 -0.3113 -0.5296 -0.5483
   40POPC   O22 5338   4.593   0.530   6.179  0.0494  0.0992  0.1942
   40POPC   C22 5339   4.575   0.649   6.396  0.0370  0.0092  0.8622
   40POPC   H2R 5340   4.585   0.747   6.345  0.7431 -0.2318  0.5208
   40POPC   H2S 5341   4.648   0.643   6.479  0.5836 -0.8094  0.3403
   40POPC    C3 5342   4.569   0.176   6.386  0.0633  0.5665 -0.1287
   40POPC    HX 5343   4.617   0.077   6.368 -0.4216  0.3179 -0.0937
   40POPC    HY 5344   4.475   0.159   6.329 -2.6292 -2.4627  4.4855
   40POPC   O31 5345   4.544   0.191   6.522  0.1546 -0.1482 -0.4964
   40POPC   C31 5346   4.421   0.247   6.554  0.0200 -0.0370  0.4435
   40POPC   O32 5347   4.333   0.272   6.474 -0.2503  0.5566 -0.8856
   40POPC   C32 5348   4.419   0.287   6.694 -0.7647  0.2528  0.0448
   40POPC   H2X 5349   4.512   0.347   6.700 -0.5614 -0.1148  0.7656
   40POPC   H2Y 5350   4.439   0.199   6.760 -1.3630  0.1355  0.0795
   40POPC   C23 5351   4.431   0.648   6.450 -0.7090 -0.3627  0.5568
   40POPC   H3R 5352   4.393   0.546   6.471 -0.0360 -0.7252  0.0536
   40POPC   H3S 5353   4.369   0.682   6.363 -0.5067 -0.2924  0.4389
   40POPC   C24 5354   4.417   0.745   6.571 -0.9188 -0.3189  0.5465
   40POPC   H4R 5355   4.471   0.841   6.560 -0.3854 -0.7985 -1.2898
   40POPC   H4S 5356   4.471   0.700   6.657  0.7243 -0.0834 -0.3179
   40POPC   C25 5357   4.267   0.763   6.618  0.0421  0.2629  0.9459
   40POPC   H5R 5358   4.219   0.667   6.646 -0.3674 -0.1284 -0.9430
   40POPC   H5S 5359   4.210   0.814   6.537  0.1337  1.9808  1.9326
   40POPC   C26 5360   4.240   0.847   6.743 -0.0163 -0.1881  0.0817
   40POPC   H6R 5361   4.276   0.951   6.729 -0.6732 -0.2533 -2.6852
   40POPC   H6S 5362   4.282   0.794   6.831  1.6708 -1.9189 -1.6776
   40POPC   C27 5363   4.086   0.860   6.759 -0.3931 -1.1505 -0.2636
   40POPC   H7R 5364   4.046   0.936   6.688  0.4717  0.6740  1.1059
   40POPC   H7S 5365   4.076   0.916   6.854 -0.5916  1.5328 -1.7524
   40POPC   C28 5366   4.005   0.730   6.773  1.2625  0.1978  0.9732
   40POPC   H8R 5367   4.064   0.669   6.845  0.3181 -3.1185 -0.8868
   40POPC   H8S 5368   4.004   0.668   6.682 -0.5930 -2.3451  2.5800
   40POPC   C29 5369   3.860   0.752   6.814 -0.3683  0.9322 -0.3142
   40POPC   H91 5370   3.802   0.827   6.757 -0.4221  1.8196  0.8695
   40POPC  C210 5371   3.787   0.681   6.903 -0.3583 -0.6157 -0.8846
   40POPC  H101 5372   3.680   0.703   6.917 -0.0991  1.3403 -1.6698
   40POPC  C211 5373   3.839   0.567   6.988 -0.5852 -0.2930 -0.2119
   40POPC  H11R 5374   3.905   0.501   6.928 -0.3517  1.5633 -2.1046
   40POPC  H11S 5375   3.754   0.500   7.014  0.6203 -1.9146 -0.2595
   40POPC  C212 5376   3.891   0.620   7.128  0.3567  0.3240  0.6428
   40POPC  H12R 5377   3.819   0.687   7.180 -0.1535  1.9881 -2.0391
   40POPC  H12S 5378   3.985   0.679   7.119  0.3927  0.0431 -1.1076
   40POPC  C213 5379   3.945   0.508   7.223  0.5453  0.6944 -0.5276
   40POPC  H13R 5380   4.000   0.419   7.187 -2.3446 -2.1085  1.4016
   40POPC  H13S 5381   3.858   0.464   7.277  0.1626  1.8088 -0.2193
   40POPC  C214 5382   4.010   0.564   7.349 -0.0466 -0.4431 -0.4340
   40POPC  H14R 5383   3.943   0.644   7.389  1.6074  0.1181  1.3958
   40POPC  H14S 5384   4.105   0.615   7.322 -0.2591  0.2002  0.0102
   40POPC  C215 5385   4.034   0.466   7.455 -0.2181 -0.3895 -0.0949
   40POPC  H15R 5386   4.108   0.389   7.424 -1.9825 -2.1114 -0.2738
   40POPC  H15S 5387   3.939   0.409   7.468 -0.1923 -0.4082  0.0071
   40POPC  C216 5388   4.087   0.536   7.589 -0.6106 -0.0946 -0.4101
   40POPC  H16R 5389   4.021   0.622   7.614  0.7904  1.2851 -1.3102
   40POPC  H16S 5390   4.186   0.585   7.579 -1.6001  1.7609 -1.7924
   40POPC  C217 5391   4.098   0.444   7.709  0.2154  0.2504 -0.1168
   40POPC  H17R 5392   4.179   0.370   7.691 -1.4684 -1.3863 -1.2368
   40POPC  H17S 5393   4.002   0.391   7.717 -0.6364  1.8007  0.3368
   40POPC  C218 5394   4.135   0.524   7.835  0.8326  0.0975  0.6299
   40POPC  H18R 5395   4.041   0.572   7.870  0.3819 -0.0486 -0.3285
   40POPC  H18S 5396   4.210   0.604   7.817 -1.9342  2.3456 -2.2244
   40POPC  H18T 5397   4.159   0.454   7.918 -0.8121 -0.4931  0.6549
   40POPC   C33 5398   4.301   0.381   6.738 -0.5731  0.4723 -0.3917
   40POPC   H3X 5399   4.206   0.330   6.713 -0.7289 -0.1251  1.2896
   40POPC   H3Y 5400   4.318   0.478   6.687  2.3853  0.5207  0.4890
   40POPC   C34 5401   4.288   0.405   6.889  0.3305  0.3289  0.0435
   40POPC   H4X 5402   4.287   0.313   6.952 -0.3046 -0.7668 -1.5216
   40POPC   H4Y 5403   4.191   0.453   6.913  1.4670  2.6434  0.3382
   40POPC   C35 5404   4.390   0.505   6.942 -0.1803 -0.5741 -0.6438
   40POPC   H5X 5405   4.395   0.588   6.868  2.9510 -0.2150 -0.1838
   40POPC   H5Y 5406   4.496   0.471   6.950 -0.0843 -0.0859  0.3879
   40POPC   C36 5407   4.360   0.572   7.079  0.6432 -0.3968 -1.3438
   40POPC   H6X 5408   4.344   0.490   7.152  2.5974 -2.2027 -2.8130
   40POPC   H6Y 5409   4.262   0.619   7.056  0.3038 -1.0221 -1.1888
   40POPC   C37 5410   4.462   0.671   7.120 -0.0811 -0.1469  0.2335
   40POPC   H7X 5411   4.454   0.758   7.051 -0.4899 -0.3736 -0.0100
   40POPC   H7Y 5412   4.560   0.623   7.101 -0.3150  0.0484 -1.6977
   40POPC   C38 5413   4.443   0.725   7.265 -0.1632  0.0968 -0.0348
   40POPC   H8X 5414   4.335   0.753   7.261 -0.0360  0.6265  0.1536
   40POPC   H8Y 5415   4.499   0.821   7.263 -0.8680  0.5143 -0.3031
   40POPC   C39 5416   4.492   0.630   7.373 -0.2338 -0.2047 -0.3177
   40POPC   H9X 5417   4.598   0.605   7.349 -0.5667 -1.1943 -0.8175
   40POPC   H9Y 5418   4.430   0.538   7.376  0.0811 -0.3855  1.6116
   40POPC  C310 5419   4.482   0.696   7.509  0.1243 -0.0305  0.6622
   40POPC  H10X 5420   4.377   0.733   7.509  0.2424  0.3383 -0.5588
   40POPC  H10Y 5421   4.548   0.785   7.504 -1.2977  1.2386  2.7568
   40POPC  C311 5422   4.505   0.598   7.625 -0.3049  0.0356  0.3141
   40POPC  H11X 5423   4.602   0.545   7.622  1.0739  2.4601 -0.9222
   40POPC  H11Y 5424   4.420   0.526   7.623 -2.5886  2.5714  0.0197
   40POPC  C312 5425   4.499   0.665   7.761  0.4519  0.0791 -0.0580
   40POPC  H12X 5426   4.396   0.707   7.770 -0.6222 -2.2486 -0.6411
   40POPC  H12Y 5427   4.575   0.746   7.767  0.0572  0.4190  0.4949
   40POPC  C313 5428   4.514   0.565   7.878  0.1386 -0.1001 -0.5083
   40POPC  H13X 5429   4.618   0.526   7.877  0.0511 -0.4882  1.3060
   40POPC  H13Y 5430   4.443   0.481   7.865 -1.0911 -0.0223  3.9961
   40POPC  C314 5431   4.492   0.624   8.013  0.4428  0.1634 -0.1510
   40POPC  H14X 5432   4.392   0.671   8.022  0.6833  1.1843 -2.1658
   40POPC  H14Y 5433   4.563   0.706   8.039  1.0482 -1.2505  3.1881
   40POPC  C315 5434   4.506   0.529   8.135  0.5104 -0.3945 -0.7729
   40POPC  H15X 5435   4.600   0.470   8.133  1.6736  1.2527  1.3024
   40POPC  H15Y 5436   4.428   0.450   8.125 -0.8387  0.9918 -1.5901
   40POPC  C316 5437   4.505   0.602   8.269 -0.4991  0.2329 -0.2728
   40POPC  H16X 5438   4.403   0.639   8.295 -1.0627 -1.2489 -0.3020
   40POPC  H16Y 5439   4.579   0.684   8.258 -0.7607  0.4842 -0.1845
   40POPC  H16Z 5440   4.548   0.526   8.338 -0.4015 -2.1185 -2.7983
   41CHL1    C3 5441   4.058   6.834   9.962  0.1225  0.0032  0.0216
   41CHL1    H3 5442   4.121   6.922   9.938  0.9479 -0.6118 -0.1287
   41CHL1    O3 5443   4.040   6.834  10.101  0.7585 -0.0333  0.2235
   41CHL1   H3' 5444   3.974   6.766  10.117  1.8167 -1.2046 -0.2546
   41CHL1    C4 5445   3.927   6.854   9.888 -0.2300  0.2288  0.5916
   41CHL1   H4A 5446   3.857   6.768   9.901  1.2021 -0.8536  1.4094
   41CHL1   H4B 5447   3.879   6.937   9.945 -2.6956 -0.8540  0.2324
   41CHL1    C5 5448   3.949   6.868   9.737  0.3031 -0.9718  0.0464
   41CHL1    C6 5449   3.913   6.975   9.669  0.1990  0.4650 -0.3698
   41CHL1    H6 5450   3.862   7.053   9.727 -1.3314 -1.3626  0.8602
   41CHL1    C7 5451   3.942   6.990   9.521  0.3719 -0.1718 -1.1106
   41CHL1   H7A 5452   3.852   7.030   9.470 -0.9551 -2.1821 -0.4556
   41CHL1   H7B 5453   4.013   7.075   9.509 -0.1418  0.5947  0.8660
   41CHL1    C8 5454   3.993   6.867   9.450 -0.1598 -0.2462  0.5496
   41CHL1    H8 5455   3.909   6.799   9.425  1.1733 -2.5632  2.0662
   41CHL1   C14 5456   4.063   6.908   9.322 -0.5166 -0.6589  0.5247
   41CHL1   H14 5457   4.146   6.973   9.356 -0.0916 -1.2757  0.6903
   41CHL1   C15 5458   3.980   6.986   9.215 -0.2090 -0.4385 -0.2976
   41CHL1  H15A 5459   3.878   6.948   9.196  0.3969 -1.7040 -1.1683
   41CHL1  H15B 5460   3.981   7.097   9.224 -0.1185 -0.3729 -1.0554
   41CHL1   C16 5461   4.056   6.959   9.085  0.0306  0.0669  0.0492
   41CHL1  H16A 5462   3.988   6.926   9.003  1.0842  0.5328 -1.0373
   41CHL1  H16B 5463   4.103   7.050   9.043 -2.3485  1.6398  0.5896
   41CHL1   C17 5464   4.173   6.865   9.121 -0.9574 -0.9683  0.0277
   41CHL1   H17 5465   4.262   6.923   9.153  0.6299 -2.4635 -1.4567
   41CHL1   C13 5466   4.128   6.792   9.248 -0.4950 -0.1455 -0.0500
   41CHL1   C18 5467   4.013   6.690   9.212 -0.6861  0.3480 -0.4961
   41CHL1  H18A 5468   4.069   6.604   9.169  0.0245  0.4033  0.2871
   41CHL1  H18B 5469   3.954   6.646   9.295  0.3091 -0.9483 -0.4313
   41CHL1  H18C 5470   3.935   6.728   9.143 -1.0721 -2.3655 -1.7004
   41CHL1   C12 5471   4.234   6.737   9.339 -0.2618 -0.1052 -0.4256
   41CHL1  H12A 5472   4.300   6.659   9.297 -1.3313 -0.6931 -1.0569
   41CHL1  H12B 5473   4.304   6.820   9.365 -1.4570  0.7350  0.2367
   41CHL1   C11 5474   4.171   6.679   9.471 -0.1242  0.5689 -0.2359
   41CHL1  H11A 5475   4.112   6.589   9.443 -0.1947  0.4281  0.3531
   41CHL1  H11B 5476   4.259   6.640   9.527  0.4044 -0.4922 -1.7235
   41CHL1    C9 5477   4.084   6.785   9.540 -0.5074  0.1534  0.3345
   41CHL1    H9 5478   4.156   6.865   9.569  0.0514  0.7463 -2.4055
   41CHL1   C10 5479   4.026   6.747   9.682 -0.8824  0.2057  0.2727
   41CHL1   C19 5480   3.935   6.626   9.659 -0.3260  0.0171 -0.1684
   41CHL1  H19A 5481   3.889   6.580   9.749  0.7010  0.1266  0.4366
   41CHL1  H19B 5482   3.844   6.650   9.600 -0.0221  0.2349 -0.5569
   41CHL1  H19C 5483   3.990   6.544   9.609  0.4587  0.4564 -0.0451
   41CHL1    C1 5484   4.150   6.701   9.771  0.2409 -0.2858 -0.6508
   41CHL1   H1A 5485   4.193   6.602   9.746  1.0749  0.4583 -2.3252
   41CHL1   H1B 5486   4.236   6.767   9.748 -1.0294  0.7830 -2.5826
   41CHL1    C2 5487   4.121   6.708   9.924  0.3687 -0.0604 -0.4118
   41CHL1   H2A 5488   4.214   6.695   9.985  0.2473  0.6776 -0.0625
   41CHL1   H2B 5489   4.052   6.624   9.949  1.6183 -0.7834  0.8466
   41CHL1   C20 5490   4.209   6.778   8.995 -0.2522  0.9179 -0.1969
   41CHL1   H20 5491   4.124   6.714   8.961 -1.0645  1.8238  0.0770
   41CHL1   C21 5492   4.320   6.681   9.031  0.5572 -1.0223  0.4258
   41CHL1  H21A 5493   4.276   6.597   9.089  0.8238 -1.1710  0.4149
   41CHL1  H21B 5494   4.398   6.743   9.081  0.4208  1.5417 -2.2972
   41CHL1  H21C 5495   4.372   6.634   8.945  0.2935 -0.0549 -0.2783
   41CHL1   C22 5496   4.243   6.866   8.864  0.6663 -0.4016 -0.0627
   41CHL1  H22A 5497   4.166   6.944   8.848  1.0040 -0.2320 -0.9781
   41CHL1  H22B 5498   4.337   6.922   8.884  1.1428 -0.4025 -2.0181
   41CHL1   C23 5499   4.258   6.787   8.734 -0.6619 -0.3556  0.3258
   41CHL1  H23A 5500   4.340   6.713   8.745 -0.8439 -0.7889 -1.0650
   41CHL1  H23B 5501   4.165   6.725   8.732  0.0856 -1.6410  2.2908
   41CHL1   C24 5502   4.277   6.880   8.613 -0.6671 -0.5307 -0.6622
   41CHL1  H24A 5503   4.261   6.823   8.519 -1.8260 -1.2264 -0.0666
   41CHL1  H24B 5504   4.199   6.959   8.621 -0.1868 -0.1474  0.4467
   41CHL1   C25 5505   4.415   6.951   8.611  0.3631  0.4346  0.1472
   41CHL1   H25 5506   4.433   7.001   8.708  1.6045  1.3297 -0.5134
   41CHL1   C26 5507   4.527   6.859   8.579 -0.1578  0.2353 -0.5948
   41CHL1  H26A 5508   4.516   6.824   8.474  0.8687 -1.5868 -0.1351
   41CHL1  H26B 5509   4.622   6.916   8.590  0.2220 -0.3144 -1.0271
   41CHL1  H26C 5510   4.532   6.775   8.652  0.2184  4.2434  4.6514
   41CHL1   C27 5511   4.417   7.069   8.510  0.1826  0.2499 -0.6993
   41CHL1  H27A 5512   4.328   7.131   8.531  1.4327  1.6047  0.8830
   41CHL1  H27B 5513   4.511   7.128   8.501  2.2588 -2.5127  1.2231
   41CHL1  H27C 5514   4.400   7.013   8.416  1.1024 -0.9804 -0.1592
   42CHL1    C3 5515   3.739   6.331   9.841 -0.0359 -0.2014 -0.1191
   42CHL1    H3 5516   3.810   6.416   9.838 -1.4901  1.0129 -1.9728
   42CHL1    O3 5517   3.721   6.279   9.971 -0.2797 -0.2637  0.2257
   42CHL1   H3' 5518   3.809   6.247   9.991  0.0095  0.6150  0.4079
   42CHL1    C4 5519   3.603   6.383   9.780 -0.5660  0.5712  0.7625
   42CHL1   H4A 5520   3.533   6.297   9.791 -0.6649  0.8462  2.6808
   42CHL1   H4B 5521   3.566   6.471   9.838 -3.2741  0.5573 -0.7884
   42CHL1    C5 5522   3.611   6.416   9.633  0.4255  0.0741 -0.2454
   42CHL1    C6 5523   3.577   6.540   9.593 -0.6121 -0.0530 -0.4772
   42CHL1    H6 5524   3.543   6.617   9.665 -1.8126  0.0334 -1.1099
   42CHL1    C7 5525   3.566   6.573   9.446 -0.6215 -0.0715  0.8878
   42CHL1   H7A 5526   3.470   6.625   9.429 -0.0154  1.0444  0.8104
   42CHL1   H7B 5527   3.654   6.627   9.406 -1.3912  0.1167 -0.6215
   42CHL1    C8 5528   3.562   6.447   9.354  0.0449  0.0738 -0.0728
   42CHL1    H8 5529   3.459   6.407   9.367 -1.1328  2.2794 -1.9602
   42CHL1   C14 5530   3.578   6.495   9.209  0.1743 -0.0336 -0.7567
   42CHL1   H14 5531   3.675   6.548   9.210  1.4600 -2.2380  1.0019
   42CHL1   C15 5532   3.477   6.600   9.153  0.4181  0.4071  0.3259
   42CHL1  H15A 5533   3.379   6.548   9.150 -0.4310  1.7687  2.3934
   42CHL1  H15B 5534   3.471   6.697   9.206  4.1241  0.0676  1.6534
   42CHL1   C16 5535   3.515   6.603   8.996 -0.1196 -0.2184 -0.6049
   42CHL1  H16A 5536   3.429   6.600   8.926  0.0980  0.5776 -0.9247
   42CHL1  H16B 5537   3.577   6.695   8.983  2.2379 -1.7736 -1.0070
   42CHL1   C17 5538   3.608   6.483   8.969 -0.4622 -0.5957 -0.9213
   42CHL1   H17 5539   3.709   6.527   8.982 -0.8805  0.1229  0.0831
   42CHL1   C13 5540   3.595   6.387   9.098 -0.8972 -0.4039  0.2389
   42CHL1   C18 5541   3.468   6.306   9.076  0.1273 -0.7763  0.4283
   42CHL1  H18A 5542   3.433   6.247   9.164  0.3456 -2.0796 -0.3223
   42CHL1  H18B 5543   3.387   6.375   9.046  0.7010 -0.6337 -0.8390
   42CHL1  H18C 5544   3.483   6.222   9.004 -0.7427 -0.1169 -0.5492
   42CHL1   C12 5545   3.710   6.303   9.140  0.5224 -0.3336  0.0800
   42CHL1  H12A 5546   3.707   6.215   9.072 -0.8700 -1.4094  1.4451
   42CHL1  H12B 5547   3.804   6.361   9.131  1.1987 -1.4907 -0.3892
   42CHL1   C11 5548   3.685   6.246   9.278  0.2295 -0.4614 -0.3665
   42CHL1  H11A 5549   3.595   6.184   9.295  0.6591 -0.6818  1.1997
   42CHL1  H11B 5550   3.768   6.181   9.315 -2.3982 -3.1110  1.2881
   42CHL1    C9 5551   3.673   6.354   9.392 -0.0243  0.2558 -0.5622
   42CHL1    H9 5552   3.770   6.407   9.383 -0.1421  1.2663  2.8489
   42CHL1   C10 5553   3.666   6.306   9.541 -0.1033  0.1216 -0.6674
   42CHL1   C19 5554   3.568   6.185   9.552  0.6141 -0.3450 -0.3242
   42CHL1  H19A 5555   3.483   6.203   9.483  0.6472 -1.3089 -0.6323
   42CHL1  H19B 5556   3.625   6.097   9.517  1.3586  0.6903 -1.8010
   42CHL1  H19C 5557   3.540   6.149   9.654 -0.2402  0.4846 -0.2470
   42CHL1    C1 5558   3.810   6.281   9.605 -0.0599  0.5810  0.1596
   42CHL1   H1A 5559   3.861   6.224   9.524 -0.1845  1.9395 -0.9016
   42CHL1   H1B 5560   3.857   6.382   9.610  0.8943  0.1026  1.3364
   42CHL1    C2 5561   3.798   6.223   9.749  0.2043 -0.3524 -1.0321
   42CHL1   H2A 5562   3.895   6.189   9.791  0.3269  0.8444 -0.2874
   42CHL1   H2B 5563   3.727   6.138   9.757 -0.9515  0.6306 -0.3200
   42CHL1   C20 5564   3.590   6.424   8.825 -0.5783 -0.2197 -0.0901
   42CHL1   H20 5565   3.481   6.403   8.826 -0.5713 -0.3029  1.4287
   42CHL1   C21 5566   3.685   6.303   8.807  0.8360 -0.3166 -0.0176
   42CHL1  H21A 5567   3.784   6.316   8.857 -0.0919 -2.9359  2.8749
   42CHL1  H21B 5568   3.700   6.275   8.701 -2.7210 -0.1865 -0.6562
   42CHL1  H21C 5569   3.643   6.211   8.853 -1.5600  1.2183  1.0679
   42CHL1   C22 5570   3.610   6.536   8.723 -0.7419 -0.0672 -0.1106
   42CHL1  H22A 5571   3.615   6.483   8.625 -2.5504  3.7558 -2.5102
   42CHL1  H22B 5572   3.522   6.601   8.703 -0.6617  0.6247  1.6053
   42CHL1   C23 5573   3.746   6.621   8.740  0.5186  0.1578 -0.1131
   42CHL1  H23A 5574   3.749   6.672   8.839 -2.7823 -1.8263  1.1824
   42CHL1  H23B 5575   3.836   6.555   8.734 -0.5909 -1.3043 -1.3747
   42CHL1   C24 5576   3.761   6.731   8.636  0.2611 -0.0800  0.5536
   42CHL1  H24A 5577   3.769   6.681   8.537 -0.0671  0.9282 -0.0065
   42CHL1  H24B 5578   3.664   6.783   8.616  1.1098  1.5637  0.5186
   42CHL1   C25 5579   3.882   6.824   8.639  0.3618  0.6630 -0.1246
   42CHL1   H25 5580   3.970   6.759   8.660  0.5789  0.5578 -1.3199
   42CHL1   C26 5581   3.909   6.887   8.503  0.6225 -0.7929  0.4215
   42CHL1  H26A 5582   3.995   6.957   8.508 -0.4374  0.4558  2.3778
   42CHL1  H26B 5583   3.927   6.805   8.430  2.8399  0.1500 -0.1567
   42CHL1  H26C 5584   3.819   6.940   8.466  2.4586  1.1590 -1.4871
   42CHL1   C27 5585   3.865   6.940   8.743  0.5370 -0.2934  0.5643
   42CHL1  H27A 5586   3.774   6.998   8.716  0.3272 -0.7375  0.2995
   42CHL1  H27B 5587   3.865   6.904   8.849  0.1339  1.1053  1.0567
   42CHL1  H27C 5588   3.944   7.016   8.728  0.2943 -0.3760 -1.3284
   43CHL1    C3 5589   3.791   5.641   9.874 -0.4171  0.1757 -0.4071
   43CHL1    H3 5590   3.681   5.629   9.868 -0.6692  1.7390  0.5079
   43CHL1    O3 5591   3.838   5.634  10.010 -0.2076  0.5558 -0.4176
   43CHL1   H3' 5592   3.768   5.662  10.069 -1.1822  0.4556 -1.4992
   43CHL1    C4 5593   3.874   5.547   9.789 -0.5412  0.3369  1.0001
   43CHL1   H4A 5594   3.978   5.567   9.821  0.0808  0.0805 -0.7628
   43CHL1   H4B 5595   3.844   5.449   9.831 -1.2734  0.0375 -0.1531
   43CHL1    C5 5596   3.844   5.572   9.639 -0.5437 -0.4027  0.2319
   43CHL1    C6 5597   3.805   5.469   9.563 -0.5260 -0.0311  0.8774
   43CHL1    H6 5598   3.819   5.367   9.601  0.0449 -0.1536  0.3501
   43CHL1    C7 5599   3.768   5.478   9.420  0.5802 -0.2303  0.4362
   43CHL1   H7A 5600   3.818   5.394   9.367 -0.1991 -1.4662  1.5800
   43CHL1   H7B 5601   3.657   5.468   9.412  0.6505 -0.3940 -0.4572
   43CHL1    C8 5602   3.818   5.615   9.366 -0.1745  0.0807  0.0071
   43CHL1    H8 5603   3.925   5.588   9.356 -0.1103  0.1705  0.4232
   43CHL1   C14 5604   3.761   5.640   9.231 -0.4647 -0.2199 -0.2702
   43CHL1   H14 5605   3.653   5.661   9.243 -0.1433  0.4315  1.8201
   43CHL1   C15 5606   3.779   5.525   9.129 -0.2266 -0.4667 -0.0927
   43CHL1  H15A 5607   3.888   5.505   9.134 -0.1562 -1.0421 -2.5445
   43CHL1  H15B 5608   3.732   5.429   9.161  2.5416 -1.3781  1.6837
   43CHL1   C16 5609   3.736   5.584   8.991  0.9256  0.8896 -0.4940
   43CHL1  H16A 5610   3.801   5.562   8.904  0.0588 -1.8967 -0.5217
   43CHL1  H16B 5611   3.635   5.545   8.965  0.6452  1.4683 -0.2899
   43CHL1   C17 5612   3.720   5.742   9.010 -0.7783 -0.2019  0.6532
   43CHL1   H17 5613   3.612   5.767   9.024 -0.2891  2.5987 -0.0439
   43CHL1   C13 5614   3.787   5.770   9.148  0.0920 -0.0203  0.3016
   43CHL1   C18 5615   3.948   5.783   9.130  0.4851 -0.0289  0.7855
   43CHL1  H18A 5616   4.002   5.737   9.216 -1.6325 -0.9072  1.6991
   43CHL1  H18B 5617   3.988   5.732   9.039 -0.5991 -2.0620  1.3838
   43CHL1  H18C 5618   3.973   5.890   9.115  1.0788 -0.4729 -2.2355
   43CHL1   C12 5619   3.741   5.887   9.245 -0.5745 -0.0603  0.1204
   43CHL1  H12A 5620   3.760   5.989   9.206 -0.5817 -0.1859 -0.2092
   43CHL1  H12B 5621   3.630   5.886   9.255 -0.4331  0.7477  2.3095
   43CHL1   C11 5622   3.800   5.877   9.381  0.1556 -0.5029  0.0736
   43CHL1  H11A 5623   3.911   5.884   9.378  0.2223 -1.5721 -0.5122
   43CHL1  H11B 5624   3.758   5.962   9.439  0.7152  0.3452 -0.7342
   43CHL1    C9 5625   3.776   5.739   9.450  0.1584  0.4032 -0.5156
   43CHL1    H9 5626   3.666   5.733   9.456  0.2117 -0.7561 -0.4341
   43CHL1   C10 5627   3.839   5.725   9.591  0.2364  0.0648 -0.0810
   43CHL1   C19 5628   3.988   5.765   9.594 -0.0421  0.1096 -0.5668
   43CHL1  H19A 5629   4.006   5.870   9.565  4.1483 -0.6940 -1.5498
   43CHL1  H19B 5630   4.036   5.749   9.693 -0.9939  0.7883  0.0164
   43CHL1  H19C 5631   4.042   5.701   9.520  0.2163  1.0436 -1.1960
   43CHL1    C1 5632   3.757   5.817   9.689  0.3106  0.1536  0.5037
   43CHL1   H1A 5633   3.765   5.925   9.666 -0.3688  0.8420  3.1268
   43CHL1   H1B 5634   3.649   5.789   9.681  0.2104  0.1015  1.8063
   43CHL1    C2 5635   3.805   5.789   9.833  0.4596  0.0190  0.4149
   43CHL1   H2A 5636   3.737   5.855   9.892 -0.4545 -1.3286  0.9225
   43CHL1   H2B 5637   3.905   5.835   9.845  1.1229 -1.4071  0.4438
   43CHL1   C20 5638   3.780   5.811   8.890 -0.4662  0.4083  0.3765
   43CHL1   H20 5639   3.884   5.774   8.879 -1.8677 -3.5231 -1.6167
   43CHL1   C21 5640   3.763   5.961   8.908 -0.1202  0.3523  0.5320
   43CHL1  H21A 5641   3.805   5.988   9.007  0.2167 -4.6892  2.0690
   43CHL1  H21B 5642   3.656   5.987   8.896  0.3989  1.8734 -1.4416
   43CHL1  H21C 5643   3.820   6.017   8.831  0.3123  0.4536  0.9215
   43CHL1   C22 5644   3.708   5.761   8.757 -0.2542 -0.3121 -0.0961
   43CHL1  H22A 5645   3.730   5.654   8.739  0.0937 -0.5105  1.3740
   43CHL1  H22B 5646   3.598   5.772   8.767 -0.2909  0.0188 -0.8284
   43CHL1   C23 5647   3.747   5.834   8.627 -0.0715  0.1145  1.0156
   43CHL1  H23A 5648   3.723   5.943   8.635  0.0671  0.1718  0.6503
   43CHL1  H23B 5649   3.852   5.807   8.604 -0.1064 -0.2936  1.3235
   43CHL1   C24 5650   3.667   5.775   8.504  0.2768 -0.0145  0.1341
   43CHL1  H24A 5651   3.699   5.669   8.507  2.9499  0.6836 -0.7740
   43CHL1  H24B 5652   3.559   5.770   8.526  0.2169  2.3954  0.6631
   43CHL1   C25 5653   3.705   5.840   8.371 -0.1319 -0.5790 -0.0802
   43CHL1   H25 5654   3.686   5.950   8.379 -1.8328 -0.6999 -1.6028
   43CHL1   C26 5655   3.848   5.803   8.321  0.8286 -0.5501 -0.3516
   43CHL1  H26A 5656   3.918   5.850   8.394  0.8039 -0.3701 -0.4439
   43CHL1  H26B 5657   3.861   5.693   8.312 -0.1817 -0.7410  0.2420
   43CHL1  H26C 5658   3.866   5.850   8.222 -1.0095  1.3313  0.1350
   43CHL1   C27 5659   3.611   5.805   8.256 -0.4314 -0.2508 -0.0769
   43CHL1  H27A 5660   3.510   5.837   8.289 -0.2454  0.2311  0.0232
   43CHL1  H27B 5661   3.646   5.850   8.161  0.3790  1.7878  1.1255
   43CHL1  H27C 5662   3.589   5.698   8.232  0.5030 -0.5688  0.4436
   44CHL1    C3 5663   3.402   0.954  10.006 -0.0195 -0.1897  0.5394
   44CHL1    H3 5664   3.292   0.957   9.992  0.2366  1.2535 -1.7689
   44CHL1    O3 5665   3.445   0.942  10.138  0.2214  0.1629  0.2142
   44CHL1   H3' 5666   3.489   1.025  10.156  0.9434  0.2963 -1.9275
   44CHL1    C4 5667   3.433   0.825   9.930  0.1056 -0.0520  0.0165
   44CHL1   H4A 5668   3.537   0.801   9.959  0.3693  1.1294  0.0978
   44CHL1   H4B 5669   3.369   0.742   9.968 -2.5258  1.2572 -1.2803
   44CHL1    C5 5670   3.427   0.829   9.776 -0.1747 -0.3026 -0.0014
   44CHL1    C6 5671   3.366   0.728   9.709  0.7604 -0.8771 -0.1674
   44CHL1    H6 5672   3.324   0.643   9.764 -2.5988  0.7088 -0.0460
   44CHL1    C7 5673   3.348   0.732   9.555 -0.3216  0.3482  0.0365
   44CHL1   H7A 5674   3.374   0.636   9.506 -2.3115 -0.1097 -0.2039
   44CHL1   H7B 5675   3.246   0.759   9.520  0.5007  2.8227 -0.6830
   44CHL1    C8 5676   3.440   0.839   9.488 -0.4899 -0.2059  0.6468
   44CHL1    H8 5677   3.544   0.799   9.489 -0.3440  0.1178  2.8197
   44CHL1   C14 5678   3.399   0.860   9.343  0.2430 -0.4806 -0.0598
   44CHL1   H14 5679   3.297   0.903   9.349  0.4848 -0.0658  2.3013
   44CHL1   C15 5680   3.377   0.745   9.250  0.2355  0.6886  0.1315
   44CHL1  H15A 5681   3.465   0.680   9.268 -0.8837 -0.5877  1.1956
   44CHL1  H15B 5682   3.279   0.696   9.261 -0.0806  1.7856  2.9259
   44CHL1   C16 5683   3.385   0.802   9.109  0.3487 -0.3775  0.4905
   44CHL1  H16A 5684   3.467   0.747   9.058  0.5830  1.9584 -1.9153
   44CHL1  H16B 5685   3.293   0.805   9.047  0.0036  0.2589  1.0231
   44CHL1   C17 5686   3.423   0.952   9.115 -0.6171 -0.6700  0.7323
   44CHL1   H17 5687   3.332   1.013   9.135  0.3204  0.3605  2.0776
   44CHL1   C13 5688   3.487   0.961   9.262  0.2968  1.2267  0.2005
   44CHL1   C18 5689   3.640   0.912   9.259  0.3780 -0.6171  0.7624
   44CHL1  H18A 5690   3.649   0.804   9.235  2.1666 -0.0569 -1.3997
   44CHL1  H18B 5691   3.695   0.955   9.172 -1.1062 -3.1660 -1.5772
   44CHL1  H18C 5692   3.693   0.943   9.353  1.8711 -0.2672 -0.1558
   44CHL1   C12 5693   3.468   1.097   9.329 -0.3740  0.3830 -0.1163
   44CHL1  H12A 5694   3.539   1.163   9.275  2.7078 -2.5821 -0.0693
   44CHL1  H12B 5695   3.361   1.123   9.315 -1.0049 -1.4253  1.0013
   44CHL1   C11 5696   3.493   1.089   9.482 -0.1048  0.6533 -0.1891
   44CHL1  H11A 5697   3.603   1.081   9.495 -0.3615 -0.2167  1.9496
   44CHL1  H11B 5698   3.478   1.187   9.532  2.8729  0.7473  0.6866
   44CHL1    C9 5699   3.429   0.971   9.559 -0.0453  0.5241 -0.7770
   44CHL1    H9 5700   3.320   0.987   9.570 -0.2245 -0.9854 -0.0707
   44CHL1   C10 5701   3.480   0.954   9.705  0.0374  0.7146  0.3036
   44CHL1   C19 5702   3.634   0.943   9.700  0.0636  0.3709 -0.1518
   44CHL1  H19A 5703   3.675   0.870   9.627  1.8026 -0.5857  1.6804
   44CHL1  H19B 5704   3.682   1.038   9.669 -1.6529  1.5946  0.7301
   44CHL1  H19C 5705   3.669   0.915   9.802  1.2848  0.8128 -0.4354
   44CHL1    C1 5706   3.441   1.074   9.790 -0.0572 -0.5973  0.3113
   44CHL1   H1A 5707   3.467   1.167   9.735 -1.0613 -0.9531 -0.8026
   44CHL1   H1B 5708   3.331   1.087   9.781  0.0518  0.1515  0.0538
   44CHL1    C2 5709   3.468   1.076   9.940  0.0827  1.0206  0.3731
   44CHL1   H2A 5710   3.431   1.172   9.982 -1.1118  0.8972 -0.3548
   44CHL1   H2B 5711   3.578   1.063   9.950 -0.0769 -0.4917  0.4761
   44CHL1   C20 5712   3.507   0.990   8.991  0.4704  0.4802 -0.0689
   44CHL1   H20 5713   3.601   0.931   8.995  0.6658  0.8231  0.6373
   44CHL1   C21 5714   3.534   1.140   8.989 -0.5017 -1.1580  0.6680
   44CHL1  H21A 5715   3.583   1.186   9.077 -1.0214 -1.1358  0.9478
   44CHL1  H21B 5716   3.449   1.206   8.963 -0.3424 -1.5669 -0.9909
   44CHL1  H21C 5717   3.606   1.157   8.906 -0.9347  1.7169  0.7882
   44CHL1   C22 5718   3.446   0.946   8.855 -0.3338 -0.2919 -0.3335
   44CHL1  H22A 5719   3.385   0.853   8.865  1.6119 -1.6506 -0.6976
   44CHL1  H22B 5720   3.380   1.032   8.830  0.5553  0.5102  0.0324
   44CHL1   C23 5721   3.544   0.908   8.748  0.1822  0.2766  0.0618
   44CHL1  H23A 5722   3.619   0.990   8.741  1.5186 -0.7769  1.5713
   44CHL1  H23B 5723   3.604   0.818   8.771 -0.1049 -0.1228 -0.6969
   44CHL1   C24 5724   3.466   0.880   8.606 -0.5656  0.4578  0.1308
   44CHL1  H24A 5725   3.529   0.805   8.553 -0.2505  0.5025  0.4354
   44CHL1  H24B 5726   3.375   0.825   8.636 -0.7556  0.9208  0.4140
   44CHL1   C25 5727   3.423   0.996   8.525 -0.2836  0.5444 -0.0585
   44CHL1   H25 5728   3.332   1.042   8.568  0.6142  1.5023  0.8751
   44CHL1   C26 5729   3.531   1.096   8.501 -0.2428  0.5670  0.3570
   44CHL1  H26A 5730   3.542   1.164   8.588  1.9779  0.9761 -0.1631
   44CHL1  H26B 5731   3.623   1.041   8.470 -1.4342 -0.4445 -1.6415
   44CHL1  H26C 5732   3.498   1.168   8.422  0.6624 -0.0178 -0.5930
   44CHL1   C27 5733   3.380   0.943   8.391  0.1367 -1.0000  0.2708
   44CHL1  H27A 5734   3.471   0.896   8.349  1.7174 -1.2551  3.6769
   44CHL1  H27B 5735   3.311   0.856   8.401 -0.4239 -0.6189 -0.1701
   44CHL1  H27C 5736   3.334   1.019   8.324 -1.7323 -1.1524  1.3049
   45CHL1    C3 5737   2.458   5.572  10.139 -0.2910 -0.1085  0.6599
   45CHL1    H3 5738   2.546   5.507  10.122 -0.3118  0.3717 -1.6713
   45CHL1    O3 5739   2.460   5.635  10.268  0.2666 -0.5288  0.2690
   45CHL1   H3' 5740   2.370   5.665  10.280  0.2983  0.1092 -0.9801
   45CHL1    C4 5741   2.462   5.689  10.031  0.5666  0.4978 -0.7854
   45CHL1   H4A 5742   2.398   5.777  10.052 -1.2071 -0.4648 -1.9175
   45CHL1   H4B 5743   2.567   5.725  10.041  0.0341  1.4458  2.5164
   45CHL1    C5 5744   2.440   5.640   9.893 -0.4357 -0.5122  0.4242
   45CHL1    C6 5745   2.516   5.684   9.788 -0.7645 -0.0980  0.0872
   45CHL1    H6 5746   2.597   5.752   9.819 -0.5589 -1.4304  2.7763
   45CHL1    C7 5747   2.498   5.661   9.642 -0.0608 -0.0824 -0.0253
   45CHL1   H7A 5748   2.498   5.755   9.582  0.9419  0.6014  1.0082
   45CHL1   H7B 5749   2.589   5.611   9.601  0.8225  1.1115  0.3888
   45CHL1    C8 5750   2.376   5.563   9.605 -0.7339 -0.0700 -0.2454
   45CHL1    H8 5751   2.412   5.499   9.522  0.5382  0.2387  0.0460
   45CHL1   C14 5752   2.256   5.635   9.537  0.6292 -0.5309  0.6799
   45CHL1   H14 5753   2.233   5.716   9.610 -1.2456 -2.1233  1.9801
   45CHL1   C15 5754   2.287   5.699   9.397 -0.0811 -0.0889 -0.2557
   45CHL1  H15A 5755   2.218   5.785   9.384  0.4864  0.3753 -0.2494
   45CHL1  H15B 5756   2.392   5.731   9.380 -1.0582  2.7238 -1.7541
   45CHL1   C16 5757   2.256   5.588   9.294  0.4907  0.1542  0.1986
   45CHL1  H16A 5758   2.209   5.641   9.208 -0.0929  1.5909  1.3686
   45CHL1  H16B 5759   2.353   5.549   9.257  0.1360 -0.1534 -0.4178
   45CHL1   C17 5760   2.173   5.482   9.371 -0.6163  0.1995  0.2542
   45CHL1   H17 5761   2.251   5.405   9.388  0.1327  0.7723 -0.5268
   45CHL1   C13 5762   2.132   5.544   9.504  0.1385  0.4742  0.1781
   45CHL1   C18 5763   2.008   5.634   9.485 -0.8821 -0.3215  0.1084
   45CHL1  H18A 5764   1.986   5.686   9.581  1.3251  0.4908  0.2230
   45CHL1  H18B 5765   2.007   5.703   9.397 -0.5159  0.9042  1.0376
   45CHL1  H18C 5766   1.923   5.567   9.457 -0.6526  0.3262 -2.4323
   45CHL1   C12 5767   2.100   5.450   9.623 -0.1248 -0.1468 -0.3645
   45CHL1  H12A 5768   2.037   5.499   9.700  3.0261  1.2187  1.4934
   45CHL1  H12B 5769   2.041   5.361   9.590 -1.9305  0.3472  1.3370
   45CHL1   C11 5770   2.220   5.379   9.681 -0.4644  1.2097  0.5878
   45CHL1  H11A 5771   2.191   5.294   9.747  1.6783 -1.6964 -1.9124
   45CHL1  H11B 5772   2.264   5.319   9.598 -0.8682 -0.0846  1.2712
   45CHL1    C9 5773   2.332   5.472   9.726  0.3324  0.5483  0.3942
   45CHL1    H9 5774   2.422   5.408   9.736  0.6166  0.6869 -1.0889
   45CHL1   C10 5775   2.325   5.538   9.866 -0.1956  0.1964  0.1443
   45CHL1   C19 5776   2.188   5.612   9.879 -0.5146 -0.3158 -0.0455
   45CHL1  H19A 5777   2.099   5.545   9.881 -0.8414  0.1264  0.2764
   45CHL1  H19B 5778   2.191   5.679   9.968  1.8863  1.2343 -1.2068
   45CHL1  H19C 5779   2.172   5.683   9.796 -2.4328 -1.2075 -0.4949
   45CHL1    C1 5780   2.345   5.423   9.969  0.2576 -0.7062  0.6171
   45CHL1   H1A 5781   2.252   5.363   9.955  1.7903 -2.6716 -1.8750
   45CHL1   H1B 5782   2.427   5.350   9.954 -0.5593 -1.2586 -1.5362
   45CHL1    C2 5783   2.339   5.478  10.117  0.2761 -0.2616  0.6253
   45CHL1   H2A 5784   2.368   5.396  10.186  0.0582 -1.4786 -0.6854
   45CHL1   H2B 5785   2.244   5.520  10.155  1.2219  3.8098 -0.9906
   45CHL1   C20 5786   2.061   5.424   9.280  0.2257  0.1217  0.1672
   45CHL1   H20 5787   1.997   5.508   9.247  0.6037 -0.3089 -1.7696
   45CHL1   C21 5788   1.974   5.318   9.355  0.1024  0.3685  0.5822
   45CHL1  H21A 5789   2.028   5.228   9.390 -0.6512 -0.2084  0.2925
   45CHL1  H21B 5790   1.905   5.274   9.280  1.4162  1.4406 -1.3821
   45CHL1  H21C 5791   1.919   5.365   9.439  0.8015  0.0459  1.2352
   45CHL1   C22 5792   2.126   5.350   9.155 -0.2617 -0.3604 -0.6071
   45CHL1  H22A 5793   2.222   5.401   9.130  0.6361 -1.8561 -0.3183
   45CHL1  H22B 5794   2.142   5.246   9.191 -0.2305  0.2844  1.3538
   45CHL1   C23 5795   2.036   5.361   9.032 -0.1776  1.1055  0.3946
   45CHL1  H23A 5796   1.957   5.285   9.048 -0.0703  0.4376 -1.9300
   45CHL1  H23B 5797   1.999   5.465   9.028 -0.2329  1.0343 -2.0951
   45CHL1   C24 5798   2.102   5.338   8.895  0.1170 -0.6479  0.5324
   45CHL1  H24A 5799   2.189   5.407   8.883 -0.3024  0.0024  1.1081
   45CHL1  H24B 5800   2.150   5.238   8.898  2.6264  0.5019  0.9387
   45CHL1   C25 5801   2.016   5.357   8.776 -0.0139  0.0506 -0.4430
   45CHL1   H25 5802   1.944   5.440   8.793  0.1107 -0.2259  1.7191
   45CHL1   C26 5803   2.083   5.385   8.648 -0.0859 -0.3340 -0.8860
   45CHL1  H26A 5804   2.156   5.307   8.617 -1.0208 -1.1656 -1.0387
   45CHL1  H26B 5805   2.013   5.403   8.564 -0.4816  0.8289 -0.3285
   45CHL1  H26C 5806   2.142   5.479   8.658  0.8934 -0.8903 -1.2437
   45CHL1   C27 5807   1.926   5.235   8.767  0.2056  0.1183 -0.0597
   45CHL1  H27A 5808   1.994   5.150   8.743  0.8790  0.5105  0.4287
   45CHL1  H27B 5809   1.876   5.215   8.864  0.0680  2.0279  0.2904
   45CHL1  H27C 5810   1.856   5.233   8.681  0.1791  2.9215 -0.1772
   46CHL1    C3 5811   2.111   1.685  10.023 -0.3986  0.0553  0.0613
   46CHL1    H3 5812   2.199   1.618  10.013  1.2574  2.0786  0.4717
   46CHL1    O3 5813   2.060   1.690  10.155 -0.2745  0.1383 -0.3032
   46CHL1   H3' 5814   2.136   1.706  10.211  1.2923 -1.5363 -1.8296
   46CHL1    C4 5815   2.172   1.823   9.985  0.1574  0.2373  0.3838
   46CHL1   H4A 5816   2.103   1.906  10.011 -1.1697 -1.0946  1.2684
   46CHL1   H4B 5817   2.259   1.838  10.053  0.1290 -0.0062  0.4733
   46CHL1    C5 5818   2.200   1.825   9.836 -0.0483 -0.0340  0.6736
   46CHL1    C6 5819   2.318   1.856   9.790 -0.7158 -0.9049  0.0762
   46CHL1    H6 5820   2.398   1.877   9.862 -0.5457 -2.7612  0.4606
   46CHL1    C7 5821   2.360   1.871   9.647 -0.1015 -0.1991  0.4049
   46CHL1   H7A 5822   2.421   1.961   9.625  0.7251 -0.6050  1.0089
   46CHL1   H7B 5823   2.419   1.782   9.618 -0.7384  0.2432 -2.5929
   46CHL1    C8 5824   2.242   1.878   9.550 -0.0641 -0.1639 -0.0821
   46CHL1    H8 5825   2.191   1.977   9.558 -0.0004 -0.1696  0.4187
   46CHL1   C14 5826   2.285   1.851   9.410 -0.2631 -0.3181 -0.8552
   46CHL1   H14 5827   2.320   1.745   9.410 -0.7792 -0.5142 -2.4270
   46CHL1   C15 5828   2.409   1.939   9.365 -0.3061 -0.3952 -0.5523
   46CHL1  H15A 5829   2.407   2.039   9.414  1.6070 -1.4735  1.9759
   46CHL1  H15B 5830   2.503   1.887   9.393  0.8079  1.6238 -0.3596
   46CHL1   C16 5831   2.398   1.944   9.210  0.3118 -0.3485 -0.7561
   46CHL1  H16A 5832   2.386   2.043   9.161  1.1121 -0.1295 -0.5283
   46CHL1  H16B 5833   2.488   1.906   9.156 -0.4570 -2.2463 -0.7866
   46CHL1   C17 5834   2.281   1.849   9.173 -0.0487 -0.0115  0.1650
   46CHL1   H17 5835   2.320   1.745   9.175 -1.1192 -0.4108  1.1787
   46CHL1   C13 5836   2.186   1.852   9.296  0.0671 -0.7913  0.0849
   46CHL1   C18 5837   2.115   1.995   9.291 -0.5433 -0.1730 -0.1751
   46CHL1  H18A 5838   2.029   1.982   9.222 -0.0432 -0.6440 -0.7225
   46CHL1  H18B 5839   2.075   2.018   9.392 -1.0776 -2.2170  0.1193
   46CHL1  H18C 5840   2.176   2.081   9.255  0.2808 -0.1879  1.1138
   46CHL1   C12 5841   2.072   1.752   9.329 -0.5946 -0.7901 -0.3348
   46CHL1  H12A 5842   1.985   1.754   9.258  0.5647 -0.8256 -1.8100
   46CHL1  H12B 5843   2.120   1.653   9.316  2.0879  0.7755 -3.8776
   46CHL1   C11 5844   2.020   1.768   9.475 -0.3546 -0.3635  0.1311
   46CHL1  H11A 5845   1.953   1.856   9.476  0.5390  0.3396 -0.1258
   46CHL1  H11B 5846   1.962   1.676   9.496  1.0430 -1.5976 -1.1162
   46CHL1    C9 5847   2.134   1.773   9.589  0.0295 -0.0466  0.4470
   46CHL1    H9 5848   2.185   1.675   9.581  1.7949  0.5381  3.2550
   46CHL1   C10 5849   2.086   1.785   9.737  0.4787  0.2966  0.1979
   46CHL1   C19 5850   1.971   1.893   9.745  0.2875  1.3483  0.7038
   46CHL1  H19A 5851   1.970   1.935   9.848 -2.1488  2.4411  0.3000
   46CHL1  H19B 5852   1.981   1.979   9.675  0.8403  2.0019  1.5712
   46CHL1  H19C 5853   1.875   1.842   9.721  1.9105 -1.5701 -0.1942
   46CHL1    C1 5854   2.033   1.647   9.791  0.0992 -0.0306  0.6042
   46CHL1   H1A 5855   1.953   1.615   9.720 -0.0768  1.1726  0.2491
   46CHL1   H1B 5856   2.116   1.574   9.781  1.1332  1.1329  0.6478
   46CHL1    C2 5857   1.992   1.639   9.933 -0.4346  0.5502  0.1261
   46CHL1   H2A 5858   1.959   1.540   9.970  0.0748 -0.1720 -1.2436
   46CHL1   H2B 5859   1.907   1.709   9.947  0.1824  1.0174  1.7482
   46CHL1   C20 5860   2.224   1.874   9.033  0.1358  0.4759  0.1669
   46CHL1   H20 5861   2.169   1.970   9.024  1.8039  1.4513 -0.1932
   46CHL1   C21 5862   2.116   1.763   9.000  0.4478 -0.5596  0.1011
   46CHL1  H21A 5863   2.134   1.661   9.040  0.5349 -0.4233  0.4175
   46CHL1  H21B 5864   2.100   1.761   8.890 -0.3372  1.0636  0.1413
   46CHL1  H21C 5865   2.020   1.790   9.050  1.8788  1.7932  1.8274
   46CHL1   C22 5866   2.336   1.891   8.925  0.0133 -0.6152  0.1103
   46CHL1  H22A 5867   2.399   1.981   8.943 -1.4752  0.2675  1.1162
   46CHL1  H22B 5868   2.406   1.807   8.941  0.8536 -0.0362 -0.4031
   46CHL1   C23 5869   2.286   1.898   8.782  0.3421  0.6739  0.0027
   46CHL1  H23A 5870   2.367   1.901   8.706  0.7441  0.2617  0.4102
   46CHL1  H23B 5871   2.239   1.802   8.753  0.9656  0.2531  0.3694
   46CHL1   C24 5872   2.182   2.016   8.757 -0.4943 -0.3529 -0.3485
   46CHL1  H24A 5873   2.163   2.028   8.648 -0.1877 -0.5548 -0.4268
   46CHL1  H24B 5874   2.094   1.989   8.819 -0.0025 -2.6143 -0.5415
   46CHL1   C25 5875   2.248   2.157   8.780 -0.7377  0.4212 -1.1559
   46CHL1   H25 5876   2.289   2.144   8.882 -3.8935  1.3666  0.3536
   46CHL1   C26 5877   2.364   2.189   8.686 -0.4259 -0.1744  0.2935
   46CHL1  H26A 5878   2.443   2.111   8.693 -0.0175  0.0414 -1.4930
   46CHL1  H26B 5879   2.322   2.186   8.583  0.0167  2.3411 -0.0249
   46CHL1  H26C 5880   2.403   2.293   8.681 -0.5505 -0.1748 -2.9492
   46CHL1   C27 5881   2.141   2.263   8.774 -0.0043  0.6269 -0.8142
   46CHL1  H27A 5882   2.126   2.290   8.668 -2.8407  0.2004 -0.6091
   46CHL1  H27B 5883   2.041   2.220   8.796  0.7287 -1.8521 -1.9525
   46CHL1  H27C 5884   2.152   2.361   8.824 -2.4336 -0.3983  2.0633
   47CHL1    C3 5885   4.317   6.032   9.874  0.3375 -0.1052  0.2911
   47CHL1    H3 5886   4.217   5.984   9.878  0.4640 -0.4096 -0.0627
   47CHL1    O3 5887   4.372   6.029  10.005 -0.2786 -0.0329  0.4055
   47CHL1   H3' 5888   4.458   6.071   9.994 -0.3934 -0.3260 -2.5652
   47CHL1    C4 5889   4.413   5.962   9.777 -0.6501 -0.6526  0.1320
   47CHL1   H4A 5890   4.515   6.002   9.795 -1.0621 -0.1538  1.5104
   47CHL1   H4B 5891   4.415   5.856   9.811 -0.9619 -0.6212  0.2470
   47CHL1    C5 5892   4.366   5.976   9.631  0.7437  0.4580 -0.5616
   47CHL1    C6 5893   4.352   5.866   9.551  0.2772 -0.1170 -0.8252
   47CHL1    H6 5894   4.390   5.767   9.582  0.2205  0.1094 -0.0035
   47CHL1    C7 5895   4.302   5.871   9.409 -0.0574  0.2778  0.4628
   47CHL1   H7A 5896   4.374   5.805   9.357 -3.1469 -2.2512 -0.9630
   47CHL1   H7B 5897   4.203   5.827   9.384  0.1155  0.8343 -1.2893
   47CHL1    C8 5898   4.315   6.013   9.351 -0.2901 -0.8328  0.5998
   47CHL1    H8 5899   4.421   6.046   9.343 -1.1378  2.4455  1.4274
   47CHL1   C14 5900   4.236   6.028   9.217 -0.7303 -0.0499 -0.0380
   47CHL1   H14 5901   4.137   5.982   9.235 -0.0410 -1.0856  1.3661
   47CHL1   C15 5902   4.288   5.946   9.091 -0.0136  0.0931 -0.4280
   47CHL1  H15A 5903   4.399   5.955   9.092  0.0071 -0.1261  1.0776
   47CHL1  H15B 5904   4.258   5.839   9.087  0.4231 -0.0005 -1.5300
   47CHL1   C16 5905   4.230   6.014   8.971  0.6134  0.0140 -0.1266
   47CHL1  H16A 5906   4.307   6.049   8.899 -0.0776 -1.6623 -1.7584
   47CHL1  H16B 5907   4.161   5.942   8.922 -1.1888  1.1417  0.6439
   47CHL1   C17 5908   4.154   6.139   9.027  0.8135 -1.1244  0.0499
   47CHL1   H17 5909   4.048   6.111   9.045  0.1822  1.3663  0.6740
   47CHL1   C13 5910   4.214   6.164   9.163  0.3744 -0.7035 -0.0099
   47CHL1   C18 5911   4.346   6.226   9.146 -0.9056  0.1654  0.5680
   47CHL1  H18A 5912   4.343   6.335   9.125  1.9080  0.2986  0.4796
   47CHL1  H18B 5913   4.417   6.211   9.231 -0.0575 -2.8194 -0.5282
   47CHL1  H18C 5914   4.407   6.189   9.060  0.9652  1.5236  1.2448
   47CHL1   C12 5915   4.137   6.253   9.270  0.2665  0.3902 -0.2450
   47CHL1  H12A 5916   4.123   6.361   9.249  1.7744  0.4447 -1.1259
   47CHL1  H12B 5917   4.034   6.212   9.278 -0.4004  2.0502  0.1969
   47CHL1   C11 5918   4.207   6.251   9.408 -0.4405  0.6701 -0.6906
   47CHL1  H11A 5919   4.293   6.320   9.410 -1.4028  1.9445 -1.6955
   47CHL1  H11B 5920   4.140   6.294   9.486 -1.0899 -1.8175  0.2240
   47CHL1    C9 5921   4.250   6.109   9.456 -0.4447 -0.3179 -0.7281
   47CHL1    H9 5922   4.152   6.066   9.486 -0.9428  1.0704 -0.3181
   47CHL1   C10 5923   4.329   6.115   9.587 -0.1273  0.5439 -0.8480
   47CHL1   C19 5924   4.462   6.197   9.566 -0.3163  0.0056  0.2951
   47CHL1  H19A 5925   4.431   6.302   9.545  1.3337  0.1587 -1.6895
   47CHL1  H19B 5926   4.523   6.201   9.659 -0.7518  1.3251  0.5566
   47CHL1  H19C 5927   4.529   6.158   9.487 -1.9473 -0.5432 -0.8611
   47CHL1    C1 5928   4.240   6.190   9.697  0.2775 -0.3202  1.4903
   47CHL1   H1A 5929   4.220   6.294   9.665  2.3043 -0.3598 -0.2022
   47CHL1   H1B 5930   4.144   6.135   9.698  0.7863 -1.2823  0.4591
   47CHL1    C2 5931   4.301   6.179   9.837  0.8170  0.0897 -0.5052
   47CHL1   H2A 5932   4.225   6.217   9.908  0.6899 -0.1849 -0.4943
   47CHL1   H2B 5933   4.399   6.232   9.846  1.5576 -1.3020 -0.0118
   47CHL1   C20 5934   4.153   6.255   8.919 -0.0876  0.3976  0.0005
   47CHL1   H20 5935   4.256   6.295   8.912  0.6621 -1.0593  2.0337
   47CHL1   C21 5936   4.064   6.370   8.969 -0.7126  0.1021  0.2843
   47CHL1  H21A 5937   4.135   6.437   9.023  0.1965 -1.7551  1.4614
   47CHL1  H21B 5938   3.982   6.337   9.036 -2.2705  0.0803 -1.5245
   47CHL1  H21C 5939   4.024   6.418   8.877  0.6723  0.0280 -0.3885
   47CHL1   C22 5940   4.108   6.190   8.782  0.2600 -0.2936  0.5776
   47CHL1  H22A 5941   4.187   6.119   8.750 -0.6625 -0.6046 -1.1211
   47CHL1  H22B 5942   4.004   6.152   8.791 -0.2836  1.3773  1.9186
   47CHL1   C23 5943   4.112   6.289   8.662  0.2292  0.2289  0.3532
   47CHL1  H23A 5944   4.046   6.377   8.674 -0.7059 -0.0840 -1.8835
   47CHL1  H23B 5945   4.216   6.326   8.656 -0.1418  1.2054 -0.3084
   47CHL1   C24 5946   4.059   6.224   8.535 -0.0616 -0.5729  0.7731
   47CHL1  H24A 5947   4.106   6.123   8.531 -1.6847 -1.3115 -1.7241
   47CHL1  H24B 5948   3.949   6.215   8.545 -0.1808  0.4160  0.4605
   47CHL1   C25 5949   4.109   6.305   8.414  0.3286 -0.4088 -0.0484
   47CHL1   H25 5950   4.220   6.308   8.411  0.3427  0.4371  0.7537
   47CHL1   C26 5951   4.051   6.244   8.283  0.7622  0.1515 -0.1900
   47CHL1  H26A 5952   4.081   6.138   8.294  0.3929 -0.0323 -0.9097
   47CHL1  H26B 5953   4.089   6.298   8.193 -1.1501 -0.2552 -1.2916
   47CHL1  H26C 5954   3.940   6.250   8.288  0.7332 -0.7148  0.4712
   47CHL1   C27 5955   4.090   6.459   8.427  0.2868 -0.0765  0.2507
   47CHL1  H27A 5956   4.123   6.520   8.341  2.2765  2.1643  2.4440
   47CHL1  H27B 5957   3.983   6.487   8.440  0.1869  0.3497 -1.2944
   47CHL1  H27C 5958   4.144   6.502   8.514 -0.5219  4.2239 -1.1135
   48CHL1    C3 5959   5.459   0.094  10.124  0.7530 -0.1278  0.9865
   48CHL1    H3 5960   5.459   0.197  10.167  1.4735 -0.5020  1.9254
   48CHL1    O3 5961   5.469   0.008  10.234  0.5062  0.0007 -0.1641
   48CHL1   H3' 5962   5.559  -0.025  10.226  1.1586  1.5668  0.2080
   48CHL1    C4 5963   5.324   0.076  10.049  0.2436 -0.8490  0.0059
   48CHL1   H4A 5964   5.324  -0.034  10.035 -1.8066 -1.1748  1.9514
   48CHL1   H4B 5965   5.242   0.100  10.120 -1.9142 -2.8373 -1.6299
   48CHL1    C5 5966   5.318   0.154   9.914  0.3178  0.2556 -0.0400
   48CHL1    C6 5967   5.230   0.251   9.899  0.2941 -0.2183  0.2968
   48CHL1    H6 5968   5.158   0.264   9.981  1.3274 -0.1719  1.2259
   48CHL1    C7 5969   5.219   0.338   9.771 -0.1192  0.3551 -0.2425
   48CHL1   H7A 5970   5.117   0.316   9.733 -0.6389 -0.3478  1.4494
   48CHL1   H7B 5971   5.227   0.446   9.794  0.6492  0.0616  1.0315
   48CHL1    C8 5972   5.316   0.287   9.662 -0.3959 -0.2781 -0.9496
   48CHL1    H8 5973   5.272   0.197   9.615  1.9808 -0.6416 -2.6626
   48CHL1   C14 5974   5.328   0.405   9.570 -0.1500  0.0958  0.4976
   48CHL1   H14 5975   5.355   0.489   9.637 -0.9784  0.4247  0.4268
   48CHL1   C15 5976   5.195   0.454   9.512 -0.3968  0.1001 -0.5132
   48CHL1  H15A 5977   5.135   0.367   9.476  1.2764 -2.3432  2.1762
   48CHL1  H15B 5978   5.137   0.517   9.582 -3.3956 -1.1824 -1.6704
   48CHL1   C16 5979   5.244   0.543   9.394 -0.4790 -0.4853 -0.2994
   48CHL1  H16A 5980   5.190   0.523   9.298  1.2709  0.6998 -1.5961
   48CHL1  H16B 5981   5.222   0.649   9.420 -2.4776 -1.3556  1.9148
   48CHL1   C17 5982   5.394   0.533   9.381 -0.1421 -0.3378  0.1923
   48CHL1   H17 5983   5.439   0.613   9.443 -1.3719 -0.2355  0.9913
   48CHL1   C13 5984   5.429   0.402   9.457  0.4165 -0.6164 -0.7478
   48CHL1   C18 5985   5.389   0.274   9.368 -0.0501 -0.9056 -0.5981
   48CHL1  H18A 5986   5.378   0.187   9.436 -0.1623 -0.2192  0.2670
   48CHL1  H18B 5987   5.292   0.290   9.318 -0.4098 -1.3742 -0.0601
   48CHL1  H18C 5988   5.469   0.245   9.296  1.0806 -0.5817  0.4990
   48CHL1   C12 5989   5.569   0.394   9.529 -0.0883  0.0933 -0.3496
   48CHL1  H12A 5990   5.648   0.401   9.451 -2.2400  1.0365 -2.5580
   48CHL1  H12B 5991   5.573   0.481   9.598 -0.9120 -0.8604  0.9422
   48CHL1   C11 5992   5.569   0.264   9.618 -0.1064  0.2627  0.2209
   48CHL1  H11A 5993   5.574   0.171   9.558 -1.0244  0.6918 -0.5443
   48CHL1  H11B 5994   5.665   0.259   9.674  0.7161  0.8039 -1.0965
   48CHL1    C9 5995   5.450   0.257   9.725 -0.6506  0.9578  0.0391
   48CHL1    H9 5996   5.478   0.347   9.784  3.8439  0.8128 -1.4962
   48CHL1   C10 5997   5.441   0.138   9.819  0.0717  0.1254 -0.2651
   48CHL1   C19 5998   5.446   0.005   9.734  0.3600 -0.1609 -0.2873
   48CHL1  H19A 5999   5.527   0.013   9.658  1.3907  0.6941  0.8640
   48CHL1  H19B 6000   5.477  -0.084   9.793 -1.5547 -0.2849  0.6031
   48CHL1  H19C 6001   5.346  -0.018   9.692 -0.0794 -2.1278  1.6239
   48CHL1    C1 6002   5.575   0.155   9.909  0.2340 -0.0206 -0.1689
   48CHL1   H1A 6003   5.663   0.138   9.843  0.0167 -0.1644 -0.4271
   48CHL1   H1B 6004   5.577   0.259   9.947  0.0887  0.2055 -0.7644
   48CHL1    C2 6005   5.574   0.068  10.031  0.4617  0.4683  0.4436
   48CHL1   H2A 6006   5.669   0.086  10.085  0.8203  1.0093 -0.3686
   48CHL1   H2B 6007   5.568  -0.035   9.989 -3.8774  0.4773  0.5747
   48CHL1   C20 6008   5.446   0.555   9.232  0.0927 -0.5621  0.5069
   48CHL1   H20 6009   5.418   0.473   9.163  0.4276  1.0468 -1.6494
   48CHL1   C21 6010   5.602   0.572   9.238  0.0845 -0.1990 -0.0885
   48CHL1  H21A 6011   5.619   0.659   9.305  1.2299 -0.9566  0.6379
   48CHL1  H21B 6012   5.643   0.598   9.138 -0.7432 -0.1390 -0.4184
   48CHL1  H21C 6013   5.656   0.483   9.277 -1.6466 -1.7774 -1.1017
   48CHL1   C22 6014   5.381   0.684   9.163 -0.8153  0.5770  0.4367
   48CHL1  H22A 6015   5.272   0.665   9.168 -0.7073 -0.2071  0.0269
   48CHL1  H22B 6016   5.394   0.775   9.225 -0.9629  0.6594  0.3476
   48CHL1   C23 6017   5.430   0.721   9.023 -0.0301  0.5009  0.6157
   48CHL1  H23A 6018   5.537   0.749   9.022  0.0787  0.1220 -1.2488
   48CHL1  H23B 6019   5.418   0.628   8.964  2.0193  0.0761  0.7839
   48CHL1   C24 6020   5.347   0.835   8.971  0.8821 -0.3230  0.0159
   48CHL1  H24A 6021   5.239   0.811   8.982  1.2369 -2.6060 -0.8651
   48CHL1  H24B 6022   5.352   0.922   9.040 -1.0379 -0.6076  0.5749
   48CHL1   C25 6023   5.369   0.871   8.825 -0.6111  0.3947  0.3677
   48CHL1   H25 6024   5.345   0.781   8.765  0.2549  1.0875 -1.0889
   48CHL1   C26 6025   5.282   0.993   8.780  0.3879  0.3192 -0.1799
   48CHL1  H26A 6026   5.285   1.093   8.827  0.0852 -0.3563  1.3386
   48CHL1  H26B 6027   5.293   0.994   8.669 -1.2622 -1.1060 -0.3998
   48CHL1  H26C 6028   5.179   0.956   8.797  0.5244  1.4133  4.0313
   48CHL1   C27 6029   5.521   0.899   8.808  0.1621  0.7862 -0.5130
   48CHL1  H27A 6030   5.541   0.927   8.702 -1.4220  0.2890 -0.9664
   48CHL1  H27B 6031   5.544   0.981   8.880 -0.7805 -1.2373  2.2657
   48CHL1  H27C 6032   5.588   0.812   8.827 -0.6410  0.6583  2.0738
   49CHL1    C3 6033   2.303   1.159   9.869 -0.0530 -1.2769  0.1067
   49CHL1    H3 6034   2.260   1.067   9.823  1.0024  0.3707 -4.7980
   49CHL1    O3 6035   2.302   1.136  10.005  0.2681 -0.0892 -0.0904
   49CHL1   H3' 6036   2.368   1.194  10.043 -0.5986  0.8942 -0.0394
   49CHL1    C4 6037   2.449   1.188   9.821 -0.8004  0.1127  0.3705
   49CHL1   H4A 6038   2.496   1.273   9.874 -0.1146  0.6687 -1.0803
   49CHL1   H4B 6039   2.513   1.103   9.854 -1.3203 -0.5049 -0.1772
   49CHL1    C5 6040   2.471   1.204   9.667 -0.2171  0.7287 -0.0716
   49CHL1    C6 6041   2.561   1.132   9.590  0.4755 -0.5701 -0.4517
   49CHL1    H6 6042   2.625   1.055   9.638  2.2831 -0.2290 -2.1976
   49CHL1    C7 6043   2.592   1.150   9.447  0.1784 -0.5272  0.2493
   49CHL1   H7A 6044   2.702   1.163   9.435 -0.2226  1.6018 -1.9150
   49CHL1   H7B 6045   2.558   1.057   9.396  0.7100 -0.6885  0.1783
   49CHL1    C8 6046   2.520   1.274   9.386  0.0834 -0.0411  0.4665
   49CHL1    H8 6047   2.579   1.361   9.422 -0.2938  1.4443 -2.2752
   49CHL1   C14 6048   2.511   1.262   9.236  0.1105 -0.0693 -0.8783
   49CHL1   H14 6049   2.450   1.170   9.223 -1.6322  0.9986 -0.5837
   49CHL1   C15 6050   2.643   1.251   9.159  0.7051 -0.8014  0.3217
   49CHL1  H15A 6051   2.716   1.326   9.198  0.0411 -0.4452  0.9081
   49CHL1  H15B 6052   2.681   1.147   9.170  3.2428 -0.0857 -0.9031
   49CHL1   C16 6053   2.607   1.289   9.017  0.0593  0.4296  1.0406
   49CHL1  H16A 6054   2.678   1.372   8.994  0.6067  0.1311  1.6401
   49CHL1  H16B 6055   2.634   1.214   8.940  0.1155  0.5280  0.9630
   49CHL1   C17 6056   2.458   1.337   9.013  0.3157  0.1663 -0.7204
   49CHL1   H17 6057   2.409   1.237   9.003 -0.4815  0.4039  0.6783
   49CHL1   C13 6058   2.432   1.375   9.168  0.2161 -0.6650  0.5505
   49CHL1   C18 6059   2.505   1.512   9.199 -0.3793  0.0764 -0.4255
   49CHL1  H18A 6060   2.615   1.497   9.199 -0.0734  1.8473  1.8909
   49CHL1  H18B 6061   2.476   1.592   9.127 -0.0194 -0.5393 -1.2670
   49CHL1  H18C 6062   2.481   1.550   9.301 -1.9536 -1.8921 -0.0102
   49CHL1   C12 6063   2.278   1.366   9.217 -0.5000 -0.1586  0.6943
   49CHL1  H12A 6064   2.227   1.448   9.162  2.0708 -0.3089 -2.2374
   49CHL1  H12B 6065   2.243   1.264   9.194  0.9587 -0.5622  0.1210
   49CHL1   C11 6066   2.271   1.377   9.370 -0.3191 -0.3597  0.1150
   49CHL1  H11A 6067   2.306   1.478   9.400  0.1522 -0.2114 -0.8744
   49CHL1  H11B 6068   2.166   1.358   9.400 -0.0762 -0.1082  1.1603
   49CHL1    C9 6069   2.376   1.287   9.445  0.1829 -0.0698 -0.8024
   49CHL1    H9 6070   2.332   1.186   9.429  1.1235 -0.5235 -0.5660
   49CHL1   C10 6071   2.371   1.306   9.606 -0.3404  0.6727  0.0907
   49CHL1   C19 6072   2.413   1.446   9.646 -0.2782 -0.5246  0.4901
   49CHL1  H19A 6073   2.439   1.462   9.753  0.1655  3.1928 -0.0323
   49CHL1  H19B 6074   2.509   1.472   9.596 -0.5159 -0.8684 -0.1529
   49CHL1  H19C 6075   2.335   1.513   9.605 -0.9801 -0.5213  1.7879
   49CHL1    C1 6076   2.224   1.292   9.668  0.4967  0.3307 -0.3746
   49CHL1   H1A 6077   2.172   1.379   9.623  1.9033  1.5721  0.3103
   49CHL1   H1B 6078   2.182   1.197   9.628  0.3281 -0.3180  1.2984
   49CHL1    C2 6079   2.215   1.278   9.826  0.3544  0.0893 -0.1462
   49CHL1   H2A 6080   2.112   1.253   9.860  0.3197 -0.7143 -0.8090
   49CHL1   H2B 6081   2.243   1.377   9.868 -1.2149  2.0339 -3.2655
   49CHL1   C20 6082   2.413   1.444   8.908 -0.1482 -0.5591  0.1768
   49CHL1   H20 6083   2.433   1.545   8.949 -0.8519 -0.2524 -0.2154
   49CHL1   C21 6084   2.261   1.429   8.883 -0.3673 -0.1517  0.0429
   49CHL1  H21A 6085   2.226   1.518   8.826 -2.2158 -1.1276 -0.4289
   49CHL1  H21B 6086   2.203   1.440   8.978  1.4576  0.1268  1.1749
   49CHL1  H21C 6087   2.240   1.334   8.830  1.7635  0.4662 -2.0483
   49CHL1   C22 6088   2.504   1.442   8.781 -0.1799  0.4028  0.1357
   49CHL1  H22A 6089   2.612   1.440   8.807 -0.8558  0.5995  3.4876
   49CHL1  H22B 6090   2.477   1.350   8.725  0.6222  0.2281  0.0271
   49CHL1   C23 6091   2.478   1.559   8.683 -0.2569 -0.2998  0.2592
   49CHL1  H23A 6092   2.380   1.536   8.637  0.8144  1.3434 -3.1357
   49CHL1  H23B 6093   2.467   1.648   8.749  1.9473  0.3471 -0.1826
   49CHL1   C24 6094   2.592   1.591   8.586  0.0486  0.1682 -0.2657
   49CHL1  H24A 6095   2.695   1.599   8.627 -0.5780 -0.8775  1.6335
   49CHL1  H24B 6096   2.590   1.503   8.519  1.7956 -1.0888  1.2445
   49CHL1   C25 6097   2.570   1.727   8.516  0.7244 -0.2136 -0.7500
   49CHL1   H25 6098   2.560   1.799   8.600  1.1558  1.1918 -1.8489
   49CHL1   C26 6099   2.687   1.777   8.433 -0.2556  0.4296  0.3425
   49CHL1  H26A 6100   2.696   1.719   8.339 -1.8545  1.1366 -0.2991
   49CHL1  H26B 6101   2.678   1.886   8.413  0.9910  0.7741  1.5133
   49CHL1  H26C 6102   2.779   1.771   8.495  0.4204 -1.1731 -0.7438
   49CHL1   C27 6103   2.436   1.725   8.433 -0.0805 -0.0656 -0.1261
   49CHL1  H27A 6104   2.416   1.828   8.396  0.0814  0.0182  0.0167
   49CHL1  H27B 6105   2.444   1.647   8.354 -2.2379 -2.2671  1.6485
   49CHL1  H27C 6106   2.345   1.703   8.494  0.2870 -0.1831  0.3838
   50CHL1    C3 6107   5.440   3.664   9.990 -0.3633 -0.1385  0.8294
   50CHL1    H3 6108   5.412   3.566   9.947  0.1299 -0.0571  0.3096
   50CHL1    O3 6109   5.386   3.681  10.119  0.3073 -0.3047  0.1647
   50CHL1   H3' 6110   5.421   3.764  10.152 -0.1218  0.5417 -1.4227
   50CHL1    C4 6111   5.602   3.672   9.986  1.2613  0.4985  0.6243
   50CHL1   H4A 6112   5.624   3.774  10.025  4.0361  0.1812  0.0845
   50CHL1   H4B 6113   5.629   3.591  10.057 -0.3958  0.0419  0.7794
   50CHL1    C5 6114   5.661   3.660   9.850 -0.3405 -0.5558 -0.2080
   50CHL1    C6 6115   5.741   3.556   9.829 -0.2336  0.0913 -0.0204
   50CHL1    H6 6116   5.767   3.495   9.916  0.7938 -0.9361 -1.0101
   50CHL1    C7 6117   5.793   3.516   9.691  0.0459  0.0248 -0.4667
   50CHL1   H7A 6118   5.902   3.502   9.699 -0.0708 -0.1826  1.0362
   50CHL1   H7B 6119   5.743   3.418   9.671  1.0093 -1.1833  2.4925
   50CHL1    C8 6120   5.751   3.620   9.582 -0.6041  0.5321  0.3336
   50CHL1    H8 6121   5.822   3.705   9.591  0.4867 -0.3073 -0.1122
   50CHL1   C14 6122   5.768   3.552   9.439  0.4694 -0.6975  0.6808
   50CHL1   H14 6123   5.698   3.466   9.437 -0.1774 -0.1667  0.4399
   50CHL1   C15 6124   5.900   3.478   9.406  0.4765  0.0363 -0.3222
   50CHL1  H15A 6125   5.977   3.557   9.419 -0.4620  1.2483 -1.8939
   50CHL1  H15B 6126   5.913   3.383   9.464  0.3529  0.1166 -0.1602
   50CHL1   C16 6127   5.883   3.454   9.260  0.6702  0.5875 -0.0087
   50CHL1  H16A 6128   5.970   3.497   9.206  1.1996 -0.1713  0.2320
   50CHL1  H16B 6129   5.868   3.346   9.236  1.1896  0.5181 -0.0181
   50CHL1   C17 6130   5.755   3.530   9.210 -0.3519  0.0320  0.8095
   50CHL1   H17 6131   5.678   3.450   9.204 -0.5658  0.0346  2.7322
   50CHL1   C13 6132   5.721   3.640   9.316 -0.4760  0.4704  0.0010
   50CHL1   C18 6133   5.817   3.760   9.306 -0.2409 -0.3307 -0.1111
   50CHL1  H18A 6134   5.816   3.831   9.392 -0.0109  0.7862 -1.0036
   50CHL1  H18B 6135   5.923   3.730   9.289 -0.1808 -0.5312  0.5818
   50CHL1  H18C 6136   5.777   3.813   9.217 -0.4638 -0.8413 -0.3202
   50CHL1   C12 6137   5.571   3.676   9.332  0.9753  0.6104  0.1604
   50CHL1  H12A 6138   5.548   3.750   9.253 -0.8046 -0.1096 -0.0385
   50CHL1  H12B 6139   5.515   3.582   9.310  1.7291  0.0703  0.4962
   50CHL1   C11 6140   5.556   3.741   9.473 -0.4683  0.2177 -0.8524
   50CHL1  H11A 6141   5.608   3.839   9.476  1.3770 -0.7401  0.7760
   50CHL1  H11B 6142   5.451   3.751   9.508 -0.4763 -3.7398  0.8101
   50CHL1    C9 6143   5.608   3.664   9.597 -0.4502 -0.0403  0.3749
   50CHL1    H9 6144   5.543   3.574   9.587 -0.3542 -0.2176  1.2724
   50CHL1   C10 6145   5.590   3.732   9.737  0.8974  0.3289 -0.0551
   50CHL1   C19 6146   5.642   3.873   9.731 -0.2924 -0.3849  0.5598
   50CHL1  H19A 6147   5.644   3.929   9.826 -1.6246 -1.4080  1.2281
   50CHL1  H19B 6148   5.746   3.870   9.694  0.6695 -1.5332  3.1589
   50CHL1  H19C 6149   5.578   3.931   9.661 -0.0766 -0.6159  0.1672
   50CHL1    C1 6150   5.435   3.746   9.765  0.0101  0.0640  0.2060
   50CHL1   H1A 6151   5.393   3.821   9.695  0.0169  0.7999  0.9680
   50CHL1   H1B 6152   5.395   3.643   9.752 -1.3516  0.6805 -0.7517
   50CHL1    C2 6153   5.388   3.777   9.904 -0.4945  0.9817  0.0846
   50CHL1   H2A 6154   5.277   3.779   9.905 -0.5001  2.8823  1.5408
   50CHL1   H2B 6155   5.432   3.869   9.949  3.3043 -1.9547  2.9672
   50CHL1   C20 6156   5.779   3.577   9.061 -0.5832  0.6067  0.0841
   50CHL1   H20 6157   5.872   3.637   9.072 -0.2261  0.2149 -0.7367
   50CHL1   C21 6158   5.659   3.658   9.015 -0.0493 -0.6574  0.2175
   50CHL1  H21A 6159   5.648   3.750   9.076 -1.7327  0.1615 -1.2174
   50CHL1  H21B 6160   5.567   3.596   9.024  0.6474 -1.4209  3.5049
   50CHL1  H21C 6161   5.676   3.697   8.912 -1.7895 -1.7435 -0.5350
   50CHL1   C22 6162   5.784   3.456   8.966 -0.2166  0.4030  0.6012
   50CHL1  H22A 6163   5.847   3.374   9.006  1.0119  0.8101 -0.4469
   50CHL1  H22B 6164   5.682   3.421   8.942  0.2080 -0.2121 -0.3506
   50CHL1   C23 6165   5.841   3.494   8.831 -0.7299  0.3717  0.1700
   50CHL1  H23A 6166   5.766   3.549   8.771 -0.8337 -0.2854 -0.3028
   50CHL1  H23B 6167   5.936   3.552   8.838  0.9646 -1.9813 -1.7987
   50CHL1   C24 6168   5.874   3.370   8.748 -0.5263  0.4035  0.3569
   50CHL1  H24A 6169   5.940   3.305   8.810  0.9052  2.6288  1.2992
   50CHL1  H24B 6170   5.780   3.313   8.738  1.0527 -2.7539  2.0904
   50CHL1   C25 6171   5.921   3.380   8.606 -0.5783  0.0407  0.3240
   50CHL1   H25 6172   5.948   3.282   8.563  1.4576  1.2809 -1.4431
   50CHL1   C26 6173   5.814   3.457   8.521 -0.1303 -0.6785 -0.0575
   50CHL1  H26A 6174   5.716   3.405   8.528 -1.2191  1.3854  1.2576
   50CHL1  H26B 6175   5.797   3.562   8.553 -0.2257 -0.2454 -1.4606
   50CHL1  H26C 6176   5.850   3.470   8.416  1.8468 -2.3272  0.3584
   50CHL1   C27 6177   6.054   3.464   8.596  0.7709  0.1791 -0.6885
   50CHL1  H27A 6178   6.034   3.558   8.653  1.7371 -0.4125  0.6911
   50CHL1  H27B 6179   6.133   3.406   8.650  0.7830  0.8648  0.0641
   50CHL1  H27C 6180   6.087   3.476   8.491  0.0326 -1.6399 -1.1530
   51CHL1    C3 6181   0.820   6.105  10.196  0.3212  0.2657  0.1374
   51CHL1    H3 6182   0.866   6.028  10.130 -3.8990 -1.5078 -1.0270
   51CHL1    O3 6183   0.801   6.067  10.331 -0.1077  0.0623 -0.3746
   51CHL1   H3' 6184   0.801   6.146  10.386 -1.5477 -0.9380  1.1856
   51CHL1    C4 6185   0.903   6.236  10.181 -0.1960  0.0575 -0.0243
   51CHL1   H4A 6186   0.868   6.313  10.252 -1.7037  0.1867 -0.8657
   51CHL1   H4B 6187   1.007   6.204  10.202 -0.5095 -0.8007  0.2861
   51CHL1    C5 6188   0.892   6.301  10.045  0.3869 -0.1049 -0.1130
   51CHL1    C6 6189   1.004   6.313   9.973 -0.2056 -0.0484 -0.6211
   51CHL1    H6 6190   1.100   6.299  10.023  1.5220  0.7284 -3.4926
   51CHL1    C7 6191   1.017   6.372   9.833  0.1803  0.4043 -0.2853
   51CHL1   H7A 6192   1.099   6.446   9.829  0.9894 -0.4752 -0.3184
   51CHL1   H7B 6193   1.045   6.284   9.772 -1.2772  0.3610 -0.9279
   51CHL1    C8 6194   0.883   6.423   9.779  0.2345 -0.1349  0.2891
   51CHL1    H8 6195   0.861   6.528   9.808 -2.8539 -0.5469 -0.1459
   51CHL1   C14 6196   0.881   6.432   9.628 -0.6290 -0.6110  0.7759
   51CHL1   H14 6197   0.899   6.329   9.590 -1.6055 -0.5245  0.0456
   51CHL1   C15 6198   0.985   6.521   9.572 -0.6144  0.0463 -0.0456
   51CHL1  H15A 6199   0.983   6.619   9.624 -0.4732  0.5618 -0.9963
   51CHL1  H15B 6200   1.089   6.486   9.584 -0.0764  1.8806  1.0692
   51CHL1   C16 6201   0.945   6.514   9.429  0.1389 -0.4293  0.2178
   51CHL1  H16A 6202   0.949   6.616   9.385  1.3683  1.0267  3.3786
   51CHL1  H16B 6203   0.999   6.434   9.374 -1.1353 -1.3795  0.2851
   51CHL1   C17 6204   0.800   6.461   9.413  0.0102  0.5692  0.1382
   51CHL1   H17 6205   0.800   6.350   9.402 -4.1321  0.4212  0.0928
   51CHL1   C13 6206   0.751   6.478   9.561  0.8385  0.3965 -0.5930
   51CHL1   C18 6207   0.712   6.621   9.594 -0.5547  0.3686  0.3636
   51CHL1  H18A 6208   0.685   6.631   9.702  0.3498  1.6608  0.4953
   51CHL1  H18B 6209   0.798   6.691   9.582 -0.1714  0.2501  2.1535
   51CHL1  H18C 6210   0.616   6.656   9.551 -1.4083 -1.6079  0.5351
   51CHL1   C12 6211   0.645   6.377   9.609  0.1221 -1.6401 -0.8883
   51CHL1  H12A 6212   0.547   6.402   9.564  0.3194  0.4677 -0.2216
   51CHL1  H12B 6213   0.668   6.271   9.581 -1.2033 -1.8643 -1.1804
   51CHL1   C11 6214   0.622   6.376   9.765 -0.4470 -0.4178  0.0936
   51CHL1  H11A 6215   0.595   6.481   9.789  0.1957 -0.1628 -0.2684
   51CHL1  H11B 6216   0.543   6.315   9.814  0.3941 -1.1808  0.5365
   51CHL1    C9 6217   0.763   6.333   9.830  0.2555  0.2001  0.3365
   51CHL1    H9 6218   0.784   6.239   9.774 -0.4410  0.3307 -0.1666
   51CHL1   C10 6219   0.752   6.313   9.976  0.7165  1.0410 -0.0629
   51CHL1   C19 6220   0.692   6.437  10.035  0.8147  0.4213 -0.1933
   51CHL1  H19A 6221   0.746   6.530  10.010  1.4002  0.1207 -0.0588
   51CHL1  H19B 6222   0.588   6.454  10.000  0.7081 -0.2742 -0.2317
   51CHL1  H19C 6223   0.683   6.431  10.146  0.9749  0.3366 -0.1858
   51CHL1    C1 6224   0.673   6.181  10.004  0.3729  0.5901 -0.1547
   51CHL1   H1A 6225   0.572   6.195   9.960  0.5761 -0.2508 -0.8990
   51CHL1   H1B 6226   0.723   6.109   9.937  2.5942  1.1302  0.8483
   51CHL1    C2 6227   0.673   6.127  10.143  0.3924  0.2383 -0.2948
   51CHL1   H2A 6228   0.617   6.032  10.150  0.4237  0.3442  2.6116
   51CHL1   H2B 6229   0.614   6.196  10.207 -0.7407 -0.5677 -0.4346
   51CHL1   C20 6230   0.722   6.524   9.309 -0.8487  0.2466  0.7292
   51CHL1   H20 6231   0.706   6.633   9.322  1.4012  1.4687 -4.2693
   51CHL1   C21 6232   0.586   6.459   9.300 -0.0866  0.5315  0.2006
   51CHL1  H21A 6233   0.529   6.480   9.394  2.4200  0.9710  1.7040
   51CHL1  H21B 6234   0.595   6.348   9.295  0.2381  0.5874 -0.4581
   51CHL1  H21C 6235   0.526   6.492   9.213  0.6172  3.0985  0.6119
   51CHL1   C22 6236   0.793   6.519   9.165 -0.4580 -0.5865  0.2898
   51CHL1  H22A 6237   0.897   6.553   9.183 -0.9501 -0.3836  3.3200
   51CHL1  H22B 6238   0.795   6.411   9.140  1.1116 -0.3810 -0.6229
   51CHL1   C23 6239   0.725   6.612   9.065  1.3064  0.2595  0.3357
   51CHL1  H23A 6240   0.617   6.588   9.058  1.4755 -0.0280 -2.2506
   51CHL1  H23B 6241   0.742   6.719   9.092 -1.6095  0.8930  0.0062
   51CHL1   C24 6242   0.778   6.587   8.922  0.3460  0.2481 -0.3067
   51CHL1  H24A 6243   0.888   6.600   8.922  0.6071 -1.4961 -1.5081
   51CHL1  H24B 6244   0.763   6.481   8.891  0.5838  0.4735 -1.2218
   51CHL1   C25 6245   0.721   6.667   8.808 -0.4383 -0.3816 -0.0435
   51CHL1   H25 6246   0.611   6.660   8.804 -0.5682  1.5993 -2.1554
   51CHL1   C26 6247   0.788   6.813   8.811  0.4322  0.1805 -0.0761
   51CHL1  H26A 6248   0.747   6.885   8.737 -2.9529 -1.3555  0.1286
   51CHL1  H26B 6249   0.780   6.865   8.909 -1.6708  4.5599 -2.2797
   51CHL1  H26C 6250   0.896   6.796   8.791 -0.1480 -2.0987 -1.5531
   51CHL1   C27 6251   0.764   6.611   8.670  0.6443  0.7477 -0.7967
   51CHL1  H27A 6252   0.704   6.662   8.591 -2.9127 -3.3576 -1.1405
   51CHL1  H27B 6253   0.873   6.614   8.648  1.0823  0.9925  1.2604
   51CHL1  H27C 6254   0.731   6.505   8.666 -1.4184  1.3775 -1.9090
   52CHL1    C3 6255   5.042   5.166   9.868 -0.1574  0.0263  0.1415
   52CHL1    H3 6256   5.105   5.252   9.838 -0.5786 -0.0107 -0.8835
   52CHL1    O3 6257   5.027   5.161  10.006  0.3625  0.4072 -0.0802
   52CHL1   H3' 6258   4.952   5.105  10.027 -0.4953  1.8444  0.8833
   52CHL1    C4 6259   4.903   5.178   9.812  0.4538 -0.0496  0.1061
   52CHL1   H4A 6260   4.834   5.098   9.847 -1.3430  1.0600 -0.7810
   52CHL1   H4B 6261   4.855   5.273   9.844 -2.9718 -0.9274 -1.8951
   52CHL1    C5 6262   4.897   5.160   9.660 -0.1388 -0.2203  0.4444
   52CHL1    C6 6263   4.825   5.243   9.584  0.5218  0.3402 -0.7660
   52CHL1    H6 6264   4.766   5.321   9.634  0.5437 -0.9011  1.2734
   52CHL1    C7 6265   4.809   5.227   9.436  0.3462  1.0147 -0.3645
   52CHL1   H7A 6266   4.705   5.240   9.398 -1.4679 -2.5985  2.6638
   52CHL1   H7B 6267   4.875   5.301   9.386  0.4570  0.1330 -1.5959
   52CHL1    C8 6268   4.873   5.101   9.372 -0.0089 -0.3183  0.0093
   52CHL1    H8 6269   4.799   5.020   9.390 -0.7029  0.5478  1.1341
   52CHL1   C14 6270   4.909   5.123   9.225  0.2965 -0.3262  0.3461
   52CHL1   H14 6271   4.999   5.187   9.232 -0.7132  1.1241  0.6967
   52CHL1   C15 6272   4.791   5.191   9.143  0.2457  1.0062 -0.3241
   52CHL1  H15A 6273   4.696   5.133   9.148 -0.0529  1.5589  0.7720
   52CHL1  H15B 6274   4.768   5.295   9.174 -1.3472  0.7930 -0.6909
   52CHL1   C16 6275   4.831   5.170   8.998  0.3082  0.2722  0.8357
   52CHL1  H16A 6276   4.737   5.125   8.960 -0.1038  0.9965  0.9723
   52CHL1  H16B 6277   4.863   5.260   8.941 -2.2294  1.7046  1.4978
   52CHL1   C17 6278   4.950   5.068   9.004 -0.2702  0.3719  0.0698
   52CHL1   H17 6279   5.040   5.132   8.993  0.1653 -0.0421  1.0372
   52CHL1   C13 6280   4.952   4.998   9.147  0.3287 -0.2496 -0.2130
   52CHL1   C18 6281   4.847   4.895   9.158  0.2930  0.4911  0.4257
   52CHL1  H18A 6282   4.758   4.927   9.100  0.3244 -3.8771 -2.4971
   52CHL1  H18B 6283   4.888   4.805   9.107 -0.4241 -0.2414  1.0946
   52CHL1  H18C 6284   4.828   4.863   9.263  0.5912  0.7164  0.5484
   52CHL1   C12 6285   5.084   4.966   9.213  0.5755 -0.3204 -0.7117
   52CHL1  H12A 6286   5.133   4.879   9.164 -1.6742 -2.4404  0.5738
   52CHL1  H12B 6287   5.149   5.051   9.185 -1.4328  2.0430  1.3105
   52CHL1   C11 6288   5.079   4.953   9.365 -0.4112  0.2644 -0.2010
   52CHL1  H11A 6289   5.021   4.860   9.385  0.1858 -0.3035 -1.0010
   52CHL1  H11B 6290   5.183   4.948   9.403 -0.1403  0.1193 -0.9332
   52CHL1    C9 6291   5.001   5.066   9.448 -0.0936  0.5408  0.9451
   52CHL1    H9 6292   5.065   5.157   9.442  0.3698  0.1669 -0.2295
   52CHL1   C10 6293   4.981   5.042   9.600  0.1588 -0.5695  0.8012
   52CHL1   C19 6294   4.906   4.908   9.621 -0.8789  0.4518 -0.0005
   52CHL1  H19A 6295   4.803   4.905   9.578 -1.5118  2.8363  1.2137
   52CHL1  H19B 6296   4.966   4.818   9.596 -1.0895  0.1763  0.4615
   52CHL1  H19C 6297   4.891   4.900   9.731  0.2240 -2.3800  0.0318
   52CHL1    C1 6298   5.121   5.042   9.658 -0.3153 -0.0334 -0.4462
   52CHL1   H1A 6299   5.180   4.953   9.626  0.2196 -0.2954  1.1773
   52CHL1   H1B 6300   5.176   5.127   9.612 -0.0741  0.2030  0.2665
   52CHL1    C2 6301   5.121   5.041   9.813  0.3022 -0.2958  0.4915
   52CHL1   H2A 6302   5.221   5.033   9.861  1.1676  4.3481 -0.0691
   52CHL1   H2B 6303   5.064   4.947   9.829 -0.6274  0.0237 -0.7521
   52CHL1   C20 6304   4.950   4.971   8.887 -0.7120  0.0252 -0.0195
   52CHL1   H20 6305   4.859   4.908   8.888 -0.2147 -0.7043  0.8118
   52CHL1   C21 6306   5.067   4.866   8.892  0.1792 -0.0308  0.2885
   52CHL1  H21A 6307   5.074   4.795   8.806  1.4545 -0.0209  0.3611
   52CHL1  H21B 6308   5.062   4.809   8.987 -0.9863  1.2923  1.0594
   52CHL1  H21C 6309   5.163   4.922   8.884 -0.2560  0.5222 -1.4904
   52CHL1   C22 6310   4.952   5.035   8.748  0.2386  0.2222  0.3979
   52CHL1  H22A 6311   4.870   5.110   8.751  1.7407  1.9434  3.0875
   52CHL1  H22B 6312   5.041   5.096   8.721  0.9309 -0.7047  0.5437
   52CHL1   C23 6313   4.916   4.948   8.632 -0.0968  0.1274  0.8439
   52CHL1  H23A 6314   4.974   4.853   8.633 -1.7846 -1.0380 -1.5762
   52CHL1  H23B 6315   4.813   4.905   8.639 -0.1570  0.3645  1.5182
   52CHL1   C24 6316   4.925   5.023   8.499 -0.3873 -0.0198  0.4470
   52CHL1  H24A 6317   4.838   5.093   8.495 -1.3678 -1.1829  0.7549
   52CHL1  H24B 6318   5.007   5.095   8.481 -0.7950 -0.2771 -3.0431
   52CHL1   C25 6319   4.937   4.929   8.374  0.6180 -0.4718 -0.3832
   52CHL1   H25 6320   4.937   4.990   8.281  0.1087 -2.1697 -1.5570
   52CHL1   C26 6321   5.078   4.866   8.382  0.5957  0.1325  0.0234
   52CHL1  H26A 6322   5.092   4.801   8.293  2.5776  0.4610  0.0499
   52CHL1  H26B 6323   5.165   4.934   8.371  0.5875  0.1902  0.2909
   52CHL1  H26C 6324   5.075   4.797   8.469 -0.1615 -0.2716 -0.3174
   52CHL1   C27 6325   4.820   4.833   8.364 -0.2471  0.0122  0.1435
   52CHL1  H27A 6326   4.828   4.766   8.276 -0.4392 -0.1912  0.2808
   52CHL1  H27B 6327   4.822   4.770   8.455 -0.5690 -1.0030 -0.5299
   52CHL1  H27C 6328   4.728   4.895   8.356  0.5403  1.0807 -1.1560
   53CHL1    C3 6329   4.966   4.641   9.878 -0.0384 -0.2340  0.4730
   53CHL1    H3 6330   4.996   4.740   9.837  1.2405 -0.1545  1.5409
   53CHL1    O3 6331   4.972   4.650  10.023  0.1776  0.4512 -0.2730
   53CHL1   H3' 6332   4.927   4.571  10.053  0.4852 -0.0598 -1.1321
   53CHL1    C4 6333   4.819   4.614   9.847  0.0530  0.2783  0.0238
   53CHL1   H4A 6334   4.780   4.524   9.898  1.3369  0.4275  1.3515
   53CHL1   H4B 6335   4.748   4.688   9.889 -2.4526 -0.5453 -2.4415
   53CHL1    C5 6336   4.802   4.586   9.701  0.5216 -0.0773 -0.3084
   53CHL1    C6 6337   4.712   4.655   9.631 -0.6065  1.1263 -0.5666
   53CHL1    H6 6338   4.641   4.719   9.686  0.1890  1.5110  0.0318
   53CHL1    C7 6339   4.694   4.640   9.487  0.5121  0.1314  1.3096
   53CHL1   H7A 6340   4.586   4.630   9.463  0.9617  1.3022 -1.7969
   53CHL1   H7B 6341   4.734   4.735   9.444  1.8504 -1.2218 -0.6627
   53CHL1    C8 6342   4.750   4.507   9.421 -0.6405  0.1090 -0.7097
   53CHL1    H8 6343   4.682   4.426   9.454 -1.9062  0.7651 -1.6172
   53CHL1   C14 6344   4.744   4.518   9.276 -0.2943  0.4820 -0.5729
   53CHL1   H14 6345   4.813   4.603   9.257  0.3672  1.3049  4.3001
   53CHL1   C15 6346   4.611   4.549   9.196  0.2615  0.0675  0.1812
   53CHL1  H15A 6347   4.534   4.475   9.226  1.1882 -0.4917  1.2745
   53CHL1  H15B 6348   4.582   4.655   9.215 -0.4531  0.1502 -1.2636
   53CHL1   C16 6349   4.663   4.540   9.050  0.5319  0.2070 -0.2693
   53CHL1  H16A 6350   4.591   4.482   8.988  1.4437 -0.1544 -1.0190
   53CHL1  H16B 6351   4.682   4.634   8.995 -2.2537  0.5648 -0.7369
   53CHL1   C17 6352   4.797   4.459   9.052  0.1107 -0.5421 -0.1307
   53CHL1   H17 6353   4.875   4.538   9.050  0.8966 -1.2924  0.1928
   53CHL1   C13 6354   4.811   4.405   9.198 -0.1433  0.1414  0.1629
   53CHL1   C18 6355   4.724   4.272   9.211 -0.4054 -0.2096  0.1109
   53CHL1  H18A 6356   4.624   4.277   9.161 -0.1522  0.6470 -0.3227
   53CHL1  H18B 6357   4.778   4.184   9.169 -3.2626 -1.5576 -1.0600
   53CHL1  H18C 6358   4.699   4.246   9.316  0.3260  1.1766  0.6546
   53CHL1   C12 6359   4.950   4.378   9.255 -0.0317 -0.0065  0.5875
   53CHL1  H12A 6360   4.999   4.294   9.201 -0.3553  0.2445 -0.1174
   53CHL1  H12B 6361   5.029   4.453   9.234 -0.4051 -0.0451 -1.1842
   53CHL1   C11 6362   4.951   4.359   9.408 -0.0872 -1.5713 -0.1574
   53CHL1  H11A 6363   4.893   4.269   9.436 -0.0901 -1.8115 -0.9114
   53CHL1  H11B 6364   5.053   4.335   9.447  1.0514  2.4915 -0.1672
   53CHL1    C9 6365   4.895   4.486   9.473  0.2490 -0.0303  0.6857
   53CHL1    H9 6366   4.950   4.577   9.439 -0.9687  0.4131 -0.1583
   53CHL1   C10 6367   4.901   4.484   9.632  0.0815  0.4028  0.6012
   53CHL1   C19 6368   4.863   4.336   9.678  0.3064  0.3448 -0.1038
   53CHL1  H19A 6369   4.851   4.330   9.788  2.7934 -1.0224  0.1678
   53CHL1  H19B 6370   4.775   4.302   9.619  1.7727 -2.7755 -0.6554
   53CHL1  H19C 6371   4.941   4.264   9.647  0.7668  0.8442 -0.1265
   53CHL1    C1 6372   5.043   4.522   9.674  1.1029  0.3175  0.2832
   53CHL1   H1A 6373   5.119   4.451   9.635  0.0157  0.1171 -1.6079
   53CHL1   H1B 6374   5.059   4.621   9.626  0.7881  0.0507 -0.3937
   53CHL1    C2 6375   5.060   4.530   9.824 -0.0162  0.4335 -0.2908
   53CHL1   H2A 6376   5.161   4.570   9.849  0.8254 -0.4824 -2.0518
   53CHL1   H2B 6377   5.045   4.437   9.882 -1.0164  0.4335 -0.5429
   53CHL1   C20 6378   4.834   4.360   8.941 -0.8532 -0.5574  0.2366
   53CHL1   H20 6379   4.880   4.273   8.992  0.5114  0.2804  0.5020
   53CHL1   C21 6380   4.950   4.411   8.855 -0.4261 -0.2101 -0.1139
   53CHL1  H21A 6381   4.914   4.489   8.785 -0.0962  0.4778  0.4753
   53CHL1  H21B 6382   4.986   4.330   8.788  1.3872  2.1693 -2.2353
   53CHL1  H21C 6383   5.024   4.435   8.935 -0.5138 -0.0704 -0.0735
   53CHL1   C22 6384   4.710   4.299   8.865  0.4470 -0.0088  0.5122
   53CHL1  H22A 6385   4.645   4.251   8.942  1.5257  1.9657  2.7873
   53CHL1  H22B 6386   4.655   4.388   8.831  1.5972  0.7567  0.6001
   53CHL1   C23 6387   4.737   4.211   8.743  0.6057 -0.3436  0.6880
   53CHL1  H23A 6388   4.789   4.284   8.677  0.3568 -0.6646  0.1294
   53CHL1  H23B 6389   4.807   4.134   8.782  0.2590 -0.1165  1.7752
   53CHL1   C24 6390   4.618   4.137   8.680 -0.2181 -0.0492  0.4342
   53CHL1  H24A 6391   4.573   4.056   8.742  1.0941 -0.8862  0.3125
   53CHL1  H24B 6392   4.539   4.215   8.673  0.2346  0.3297 -0.5219
   53CHL1   C25 6393   4.645   4.078   8.542 -0.1949 -0.4724  0.5669
   53CHL1   H25 6394   4.553   4.018   8.521  0.8019 -1.6252 -0.7297
   53CHL1   C26 6395   4.661   4.181   8.428  0.1767 -1.0174  0.3671
   53CHL1  H26A 6396   4.638   4.132   8.331  0.7372  0.2263 -0.4037
   53CHL1  H26B 6397   4.588   4.264   8.443 -0.1649 -1.1148 -0.6442
   53CHL1  H26C 6398   4.768   4.210   8.428  0.3121 -1.4435 -1.0680
   53CHL1   C27 6399   4.751   3.971   8.536  0.1230  0.1268  0.5048
   53CHL1  H27A 6400   4.729   3.890   8.608 -1.6141 -0.3158 -0.4677
   53CHL1  H27B 6401   4.756   3.929   8.433  1.6304  0.2055  0.5103
   53CHL1  H27C 6402   4.853   4.014   8.553  0.0310  0.5569  0.0261
   54CHL1    C3 6403   5.407   5.908   9.904 -0.3641 -0.1576 -0.3432
   54CHL1    H3 6404   5.304   5.944   9.885 -0.8656  0.7355  3.2524
   54CHL1    O3 6405   5.454   5.961  10.030 -0.1713 -0.2526  0.2635
   54CHL1   H3' 6406   5.473   5.887  10.088 -0.6371 -2.4026 -2.1202
   54CHL1    C4 6407   5.407   5.757   9.911  0.6428  0.3134  0.3683
   54CHL1   H4A 6408   5.515   5.735   9.918  0.6616  0.8975  2.2700
   54CHL1   H4B 6409   5.364   5.706  10.000 -0.2759  1.0622  0.3724
   54CHL1    C5 6410   5.363   5.698   9.776 -0.3772  0.0481  0.3083
   54CHL1    C6 6411   5.258   5.609   9.767 -0.4063  0.7397 -0.5421
   54CHL1    H6 6412   5.212   5.575   9.861  0.1275  0.2428 -0.4491
   54CHL1    C7 6413   5.224   5.528   9.641 -0.4276 -0.3333  0.0089
   54CHL1   H7A 6414   5.235   5.419   9.663 -0.8254  0.0948  2.6180
   54CHL1   H7B 6415   5.116   5.532   9.616 -0.9330 -2.4351  1.6326
   54CHL1    C8 6416   5.297   5.571   9.516 -0.0424 -0.0508  0.1535
   54CHL1    H8 6417   5.392   5.514   9.509 -0.2008 -0.4409  1.0663
   54CHL1   C14 6418   5.217   5.543   9.389 -0.1419  0.0697 -0.5037
   54CHL1   H14 6419   5.127   5.606   9.408  0.1672  0.7243 -1.1989
   54CHL1   C15 6420   5.156   5.405   9.351  0.0198  0.5087 -0.3438
   54CHL1  H15A 6421   5.231   5.325   9.366  0.6854  1.1191 -0.3501
   54CHL1  H15B 6422   5.084   5.379   9.432  0.0902 -0.1047 -0.4799
   54CHL1   C16 6423   5.104   5.425   9.205 -0.1581  0.1968 -0.0025
   54CHL1  H16A 6424   5.133   5.332   9.153  1.3956 -0.0460  1.2198
   54CHL1  H16B 6425   4.996   5.443   9.224  0.3437  1.8347  1.6450
   54CHL1   C17 6426   5.176   5.553   9.152  0.1276  0.0152 -0.7031
   54CHL1   H17 6427   5.099   5.633   9.148 -2.3644 -2.2301 -0.4596
   54CHL1   C13 6428   5.277   5.598   9.260  0.3786  0.4741  0.4066
   54CHL1   C18 6429   5.402   5.519   9.242  0.1149 -0.3454 -0.5015
   54CHL1  H18A 6430   5.466   5.513   9.332 -1.6847  2.0858  1.0873
   54CHL1  H18B 6431   5.385   5.417   9.200 -0.5011 -1.3064  1.8860
   54CHL1  H18C 6432   5.464   5.579   9.173 -2.1640  0.3533 -2.0751
   54CHL1   C12 6433   5.295   5.745   9.280  0.3988 -0.4583  0.4841
   54CHL1  H12A 6434   5.338   5.784   9.185  0.4666  1.0622  1.1101
   54CHL1  H12B 6435   5.199   5.800   9.293 -0.0350 -1.4354  1.6850
   54CHL1   C11 6436   5.385   5.789   9.394 -0.5895  0.3096  0.0859
   54CHL1  H11A 6437   5.491   5.761   9.375 -0.0786  1.6752  0.7932
   54CHL1  H11B 6438   5.381   5.900   9.397 -3.2921  0.3445 -1.8040
   54CHL1    C9 6439   5.336   5.721   9.524 -0.8354  0.3706 -0.2471
   54CHL1    H9 6440   5.238   5.772   9.536  0.0460  2.4654 -1.5307
   54CHL1   C10 6441   5.432   5.752   9.645 -0.0955  0.3932 -0.4786
   54CHL1   C19 6442   5.574   5.683   9.634  0.4220  0.3212 -0.1581
   54CHL1  H19A 6443   5.620   5.703   9.534  1.0098 -2.6764 -0.5776
   54CHL1  H19B 6444   5.640   5.706   9.720  1.2659  0.4939 -0.8322
   54CHL1  H19C 6445   5.555   5.574   9.636  1.2251  0.1198 -1.5391
   54CHL1    C1 6446   5.451   5.908   9.659  0.4257  1.1682 -0.0611
   54CHL1   H1A 6447   5.527   5.942   9.585 -0.2297 -0.1054 -1.3847
   54CHL1   H1B 6448   5.355   5.956   9.630 -0.3051 -0.3533 -0.2496
   54CHL1    C2 6449   5.501   5.957   9.793 -0.2829 -0.2069 -0.6140
   54CHL1   H2A 6450   5.519   6.067   9.784 -3.3279  0.2573 -2.6088
   54CHL1   H2B 6451   5.601   5.922   9.827 -0.3620 -0.0539 -0.2123
   54CHL1   C20 6452   5.215   5.535   9.007  0.4865  0.6747  0.4095
   54CHL1   H20 6453   5.294   5.457   8.999  1.2497  1.5795 -1.9455
   54CHL1   C21 6454   5.284   5.658   8.944  0.5272 -0.0555 -0.2306
   54CHL1  H21A 6455   5.371   5.691   9.004  0.1685 -0.9098  0.7987
   54CHL1  H21B 6456   5.208   5.739   8.937 -0.1409 -0.7045 -0.6938
   54CHL1  H21C 6457   5.335   5.643   8.847  1.6590  0.5445  0.2495
   54CHL1   C22 6458   5.102   5.481   8.919  0.2147 -0.3321 -0.7380
   54CHL1  H22A 6459   5.027   5.412   8.963 -1.6848 -0.3672 -3.7460
   54CHL1  H22B 6460   5.040   5.567   8.887  0.2939 -0.5659 -1.5414
   54CHL1   C23 6461   5.138   5.422   8.786  0.2251 -0.2828 -0.2216
   54CHL1  H23A 6462   5.212   5.491   8.739 -0.7433  1.8251  1.1935
   54CHL1  H23B 6463   5.176   5.321   8.810 -3.2073 -1.4133  0.9422
   54CHL1   C24 6464   5.022   5.385   8.692  0.0841 -0.5762  0.1749
   54CHL1  H24A 6465   5.073   5.354   8.599  1.6788 -0.8114  1.1018
   54CHL1  H24B 6466   4.962   5.301   8.734  2.9349 -2.6668  0.3800
   54CHL1   C25 6467   4.925   5.507   8.652  0.0222 -0.4095  0.0957
   54CHL1   H25 6468   4.863   5.532   8.740  0.6063  0.9077  0.1560
   54CHL1   C26 6469   5.008   5.622   8.588  0.0458 -0.3190 -0.3708
   54CHL1  H26A 6470   5.079   5.649   8.669  0.1996  0.7392 -0.8389
   54CHL1  H26B 6471   5.071   5.590   8.503 -0.3676 -1.4373 -0.2679
   54CHL1  H26C 6472   4.939   5.702   8.554  0.8179  0.7596  0.5259
   54CHL1   C27 6473   4.837   5.444   8.547 -0.0871  0.0219  0.2103
   54CHL1  H27A 6474   4.804   5.341   8.574 -1.4932  0.0907 -1.0956
   54CHL1  H27B 6475   4.744   5.504   8.545 -1.4501 -1.9563  0.8452
   54CHL1  H27C 6476   4.884   5.434   8.447  0.4795 -1.2581  0.5876
   55CHL1    C3 6477   4.958   3.773   9.803 -0.0219  0.6823  0.0049
   55CHL1    H3 6478   4.965   3.663   9.818  2.2017  0.8489  0.6207
   55CHL1    O3 6479   4.975   3.829   9.931  0.0560  0.5129 -0.3032
   55CHL1   H3' 6480   4.905   3.891   9.950  0.8109  1.3918 -0.3057
   55CHL1    C4 6481   5.059   3.828   9.703 -0.3072  0.4157  0.1103
   55CHL1   H4A 6482   5.057   3.939   9.703 -1.1991  0.6047 -4.2025
   55CHL1   H4B 6483   5.153   3.800   9.754  0.3098  0.9075 -0.7101
   55CHL1    C5 6484   5.041   3.780   9.562 -0.6247  0.3475  0.1064
   55CHL1    C6 6485   5.143   3.721   9.488 -0.2721  0.1106  0.0180
   55CHL1    H6 6486   5.241   3.708   9.538 -0.6324 -0.9302  0.4692
   55CHL1    C7 6487   5.122   3.675   9.352  0.1526 -0.8685  0.0297
   55CHL1   H7A 6488   5.218   3.694   9.300 -0.9417 -0.7847 -2.0789
   55CHL1   H7B 6489   5.107   3.565   9.363  0.6437 -0.8327  1.1807
   55CHL1    C8 6490   4.996   3.734   9.281  0.0059 -0.6322  0.1113
   55CHL1    H8 6491   5.026   3.840   9.262  0.1466 -0.8865 -1.1687
   55CHL1   C14 6492   4.962   3.661   9.158 -0.2521 -0.1572  0.1304
   55CHL1   H14 6493   4.914   3.565   9.187 -1.1945  0.6892  1.4705
   55CHL1   C15 6494   5.076   3.640   9.070  0.3678 -1.0937  0.3704
   55CHL1  H15A 6495   5.150   3.723   9.072  0.6699 -1.3266 -0.5344
   55CHL1  H15B 6496   5.137   3.555   9.107  0.0907 -2.0592 -1.2867
   55CHL1   C16 6497   5.023   3.618   8.926 -0.2900  0.5108 -0.3233
   55CHL1  H16A 6498   5.061   3.690   8.851 -0.6724 -1.5364 -2.6161
   55CHL1  H16B 6499   5.053   3.521   8.882  1.3300  1.3730 -1.2152
   55CHL1   C17 6500   4.864   3.640   8.943 -0.1721 -0.1977  0.4145
   55CHL1   H17 6501   4.826   3.540   8.972  1.4205 -0.5574  1.3525
   55CHL1   C13 6502   4.850   3.726   9.070 -0.3827  0.2161 -0.0389
   55CHL1   C18 6503   4.881   3.871   9.027 -0.6083 -0.3108 -0.1262
   55CHL1  H18A 6504   4.966   3.887   8.958 -0.5553  1.6436  0.3231
   55CHL1  H18B 6505   4.790   3.914   8.980 -0.8358 -1.8188 -1.1320
   55CHL1  H18C 6506   4.901   3.924   9.123  0.2104  0.4209 -0.6880
   55CHL1   C12 6507   4.718   3.712   9.151  0.0027 -0.0138  0.6190
   55CHL1  H12A 6508   4.638   3.771   9.102  2.0805  1.4580 -1.2108
   55CHL1  H12B 6509   4.696   3.604   9.159 -1.0052  0.0769 -0.6715
   55CHL1   C11 6510   4.739   3.779   9.293 -0.4346 -0.3130  0.6794
   55CHL1  H11A 6511   4.723   3.888   9.278 -2.5264 -0.6938 -0.1880
   55CHL1  H11B 6512   4.645   3.758   9.348  0.2868 -0.8501  1.7680
   55CHL1    C9 6513   4.875   3.741   9.366 -0.1151  0.8913 -0.0611
   55CHL1    H9 6514   4.851   3.637   9.395  0.4051  0.8530  0.2292
   55CHL1   C10 6515   4.900   3.811   9.499  0.5572  0.1203  0.6595
   55CHL1   C19 6516   4.883   3.957   9.473 -0.5366  0.1124 -0.5257
   55CHL1  H19A 6517   4.913   4.025   9.556 -0.9148  1.2748 -1.3110
   55CHL1  H19B 6518   4.950   3.985   9.388  2.1262 -1.2155  0.9833
   55CHL1  H19C 6519   4.781   3.992   9.447 -1.3453 -0.0770  2.0897
   55CHL1    C1 6520   4.797   3.767   9.608  0.3690  0.1852  0.7263
   55CHL1   H1A 6521   4.698   3.797   9.568  1.3362  0.7208 -1.4298
   55CHL1   H1B 6522   4.798   3.656   9.608 -1.6540  0.1385  0.1730
   55CHL1    C2 6523   4.820   3.807   9.751  0.6906 -0.6798  0.1718
   55CHL1   H2A 6524   4.746   3.777   9.828  0.1590 -0.8516 -0.3980
   55CHL1   H2B 6525   4.809   3.918   9.752 -1.3686 -0.8156 -1.4496
   55CHL1   C20 6526   4.786   3.684   8.821 -0.5897  0.1201 -0.2289
   55CHL1   H20 6527   4.775   3.791   8.793 -1.2776 -0.0050 -0.4708
   55CHL1   C21 6528   4.630   3.653   8.830 -0.0131 -0.0532  0.1306
   55CHL1  H21A 6529   4.578   3.673   8.733  0.1827 -0.4081 -0.0485
   55CHL1  H21B 6530   4.587   3.711   8.915  1.9441 -0.3246  1.3744
   55CHL1  H21C 6531   4.618   3.548   8.864 -2.0351  0.3475  0.7863
   55CHL1   C22 6532   4.846   3.621   8.691  0.0928 -0.6379  0.9162
   55CHL1  H22A 6533   4.784   3.660   8.607  0.4060 -1.6311  0.1949
   55CHL1  H22B 6534   4.949   3.661   8.687  0.2585 -1.1232 -1.8575
   55CHL1   C23 6535   4.843   3.470   8.680  0.8382 -0.1849  0.0735
   55CHL1  H23A 6536   4.858   3.419   8.777 -0.6539  0.9008  0.9356
   55CHL1  H23B 6537   4.741   3.438   8.648  0.5563 -0.5081  1.2640
   55CHL1   C24 6538   4.939   3.423   8.574  0.6692 -0.3089 -0.1348
   55CHL1  H24A 6539   4.905   3.443   8.470 -2.5314  0.0111  0.8676
   55CHL1  H24B 6540   5.029   3.485   8.589 -0.3670  1.4275 -0.8633
   55CHL1   C25 6541   4.978   3.271   8.605 -0.1263  0.7737  0.5741
   55CHL1   H25 6542   4.993   3.265   8.715 -0.5441  0.4278  0.6178
   55CHL1   C26 6543   4.868   3.177   8.568 -0.4880 -0.1270  0.1229
   55CHL1  H26A 6544   4.767   3.200   8.607 -2.0522 -2.1474 -2.3461
   55CHL1  H26B 6545   4.860   3.175   8.457 -0.8109 -1.4085  0.1502
   55CHL1  H26C 6546   4.881   3.072   8.603 -3.7901 -0.6664  0.0469
   55CHL1   C27 6547   5.109   3.227   8.530 -0.4615  0.6209  0.6222
   55CHL1  H27A 6548   5.133   3.123   8.558  1.8042  1.2903  1.3455
   55CHL1  H27B 6549   5.102   3.234   8.419 -1.3282  0.6456  0.6705
   55CHL1  H27C 6550   5.202   3.278   8.563  0.2521 -0.3248  0.1308
   56CHL1    C3 6551   3.719   2.202  10.239 -0.2116 -0.4897  0.9482
   56CHL1    H3 6552   3.699   2.306  10.272 -1.2138 -0.9089  1.6899
   56CHL1    O3 6553   3.714   2.131  10.357 -0.0948 -0.3265 -0.0220
   56CHL1   H3' 6554   3.750   2.046  10.329  1.2243  0.3463 -0.4742
   56CHL1    C4 6555   3.597   2.161  10.149 -0.2428 -0.1267  0.4244
   56CHL1   H4A 6556   3.625   2.054  10.136  1.1575  0.2455  0.1995
   56CHL1   H4B 6557   3.508   2.142  10.211 -0.9764  0.3795 -0.4512
   56CHL1    C5 6558   3.596   2.221  10.018  0.1994  0.4133  0.7837
   56CHL1    C6 6559   3.485   2.274   9.962  0.0070 -0.0548  0.4843
   56CHL1    H6 6560   3.393   2.279  10.022  0.5596  2.0282  1.2819
   56CHL1    C7 6561   3.477   2.335   9.824  0.2707 -0.1971 -0.3319
   56CHL1   H7A 6562   3.380   2.304   9.781 -0.5446 -1.0937  1.9590
   56CHL1   H7B 6563   3.484   2.444   9.841  3.1930 -0.5120  1.2252
   56CHL1    C8 6564   3.592   2.298   9.740  0.6411 -0.0121 -0.4866
   56CHL1    H8 6565   3.584   2.189   9.717 -1.6129  0.1988 -0.9111
   56CHL1   C14 6566   3.588   2.388   9.612 -0.7815  0.7376  0.3813
   56CHL1   H14 6567   3.623   2.483   9.658  0.8579 -0.2973  1.3286
   56CHL1   C15 6568   3.452   2.417   9.538  0.4700 -0.2185  0.8509
   56CHL1  H15A 6569   3.378   2.334   9.540  0.1427  0.0332 -0.1289
   56CHL1  H15B 6570   3.414   2.509   9.588  1.5925 -0.1939  1.7028
   56CHL1   C16 6571   3.489   2.446   9.390  0.1332 -1.0220 -0.0048
   56CHL1  H16A 6572   3.446   2.365   9.328 -1.1309 -0.2734 -0.1280
   56CHL1  H16B 6573   3.443   2.543   9.363  0.7632 -0.9116 -0.7248
   56CHL1   C17 6574   3.650   2.448   9.394 -0.4913 -0.1980 -0.5460
   56CHL1   H17 6575   3.674   2.549   9.435  0.1544 -0.1000 -1.1340
   56CHL1   C13 6576   3.700   2.348   9.507 -0.1470  0.1855  0.5345
   56CHL1   C18 6577   3.688   2.200   9.453  0.1331  0.1279 -0.4039
   56CHL1  H18A 6578   3.582   2.180   9.425 -0.8328  1.3697  2.0538
   56CHL1  H18B 6579   3.748   2.181   9.362 -0.1084  0.2257 -0.5860
   56CHL1  H18C 6580   3.725   2.129   9.530  1.2752  0.2581 -0.8138
   56CHL1   C12 6581   3.836   2.359   9.576  0.0726 -0.1809 -0.3647
   56CHL1  H12A 6582   3.916   2.330   9.504 -0.2973  0.7038 -1.1591
   56CHL1  H12B 6583   3.850   2.467   9.598 -3.4727 -0.3018  3.8959
   56CHL1   C11 6584   3.841   2.282   9.716 -0.3037 -1.3461 -0.0943
   56CHL1  H11A 6585   3.844   2.175   9.686 -0.4205 -1.3521 -0.0838
   56CHL1  H11B 6586   3.941   2.314   9.754  0.5462 -2.8241 -0.9587
   56CHL1    C9 6587   3.725   2.310   9.812 -0.3534  0.4819 -0.6849
   56CHL1    H9 6588   3.724   2.419   9.836  1.7374  0.6731 -1.2547
   56CHL1   C10 6589   3.730   2.216   9.937 -0.0608  0.7210 -0.2639
   56CHL1   C19 6590   3.759   2.065   9.893  0.8836 -0.0317 -0.3886
   56CHL1  H19A 6591   3.774   1.998   9.980 -0.5651 -0.1620 -0.2167
   56CHL1  H19B 6592   3.677   2.028   9.827 -2.0723  0.8268  2.5092
   56CHL1  H19C 6593   3.859   2.060   9.844 -0.1263  1.7722 -2.8565
   56CHL1    C1 6594   3.851   2.257  10.026 -0.1272  0.2510 -0.1906
   56CHL1   H1A 6595   3.939   2.222   9.967 -1.0604 -4.2508  0.7015
   56CHL1   H1B 6596   3.842   2.367  10.017 -1.5054  0.1137 -0.7205
   56CHL1    C2 6597   3.855   2.194  10.161  0.1957  0.0889 -0.7356
   56CHL1   H2A 6598   3.938   2.239  10.219 -1.6025  0.6654  1.5232
   56CHL1   H2B 6599   3.882   2.088  10.142 -2.3332 -0.5000 -1.4330
   56CHL1   C20 6600   3.701   2.442   9.253 -0.8945 -0.1712 -0.3103
   56CHL1   H20 6601   3.691   2.339   9.212 -0.0019 -0.1470 -0.6092
   56CHL1   C21 6602   3.856   2.474   9.258  0.6513 -0.0415  0.0259
   56CHL1  H21A 6603   3.918   2.419   9.332  1.3426 -0.1637 -0.6303
   56CHL1  H21B 6604   3.862   2.581   9.287 -1.0271 -0.1799  1.0300
   56CHL1  H21C 6605   3.907   2.452   9.162  2.1240  2.0245  0.2565
   56CHL1   C22 6606   3.627   2.541   9.154  0.1466  0.0956  0.8899
   56CHL1  H22A 6607   3.519   2.521   9.138  0.3034 -0.0816  0.0011
   56CHL1  H22B 6608   3.626   2.645   9.195 -0.8843  1.4766 -2.3648
   56CHL1   C23 6609   3.695   2.559   9.018  0.4110  0.5770 -0.5768
   56CHL1  H23A 6610   3.795   2.605   9.029  1.5336 -1.2318 -2.5248
   56CHL1  H23B 6611   3.712   2.458   8.977 -0.5230 -0.0771  0.5899
   56CHL1   C24 6612   3.616   2.643   8.924 -0.6759  0.2760  0.6946
   56CHL1  H24A 6613   3.508   2.618   8.930 -0.7841  0.2048 -0.9994
   56CHL1  H24B 6614   3.631   2.747   8.959 -0.4942  0.2324  0.7500
   56CHL1   C25 6615   3.665   2.618   8.781 -0.4671  0.1708  0.2210
   56CHL1   H25 6616   3.690   2.510   8.775 -2.1352 -0.2975  1.2255
   56CHL1   C26 6617   3.556   2.636   8.673  0.3984 -0.1210 -0.3476
   56CHL1  H26A 6618   3.524   2.742   8.685  2.8455  0.7028 -0.5464
   56CHL1  H26B 6619   3.582   2.630   8.565  2.2268  0.4390  0.0230
   56CHL1  H26C 6620   3.470   2.570   8.694  1.6479 -1.5435  0.5215
   56CHL1   C27 6621   3.785   2.711   8.747 -0.0886 -0.0469 -0.4272
   56CHL1  H27A 6622   3.752   2.816   8.764  2.2970  0.8237 -0.9221
   56CHL1  H27B 6623   3.865   2.681   8.818 -0.3059 -0.2542 -0.2682
   56CHL1  H27C 6624   3.828   2.704   8.645  4.7446  1.1615  1.2801
   57CHL1    C3 6625   6.136   4.554  10.222  0.0276 -0.0267  0.2467
   57CHL1    H3 6626   6.243   4.532  10.202 -0.0753 -0.3327  0.0161
   57CHL1    O3 6627   6.102   4.489  10.344 -0.8978 -0.5144  0.1736
   57CHL1   H3' 6628   6.073   4.399  10.327 -1.4475 -0.5467  1.2275
   57CHL1    C4 6629   6.099   4.708  10.224 -0.1855  0.1321  0.3074
   57CHL1   H4A 6630   6.003   4.701  10.280 -0.4830 -4.9216 -0.3515
   57CHL1   H4B 6631   6.166   4.769  10.287  0.7371  1.2429 -1.6377
   57CHL1    C5 6632   6.089   4.772  10.087 -0.2864 -0.1199  0.0426
   57CHL1    C6 6633   6.140   4.899  10.073  0.9880 -0.3158  0.7314
   57CHL1    H6 6634   6.167   4.959  10.161  2.5507 -0.7074  0.5465
   57CHL1    C7 6635   6.137   4.981   9.946  0.1948 -0.0226  0.2048
   57CHL1   H7A 6636   6.114   5.087   9.971 -1.5228 -0.6879  1.6637
   57CHL1   H7B 6637   6.242   4.970   9.909 -0.6015  0.7043 -2.4567
   57CHL1    C8 6638   6.052   4.917   9.838 -1.1060 -0.2965  0.3194
   57CHL1    H8 6639   5.945   4.945   9.853 -1.7011 -1.5532 -1.2130
   57CHL1   C14 6640   6.089   4.979   9.701 -1.2075 -0.4708 -0.0403
   57CHL1   H14 6641   6.196   4.948   9.691 -0.4028  1.7918  0.8172
   57CHL1   C15 6642   6.094   5.130   9.686  0.1946 -0.1849 -0.7263
   57CHL1  H15A 6643   6.008   5.178   9.736  1.1387 -1.9496  2.8887
   57CHL1  H15B 6644   6.187   5.174   9.728  1.0063 -1.2213 -1.3732
   57CHL1   C16 6645   6.098   5.153   9.531 -0.7729 -0.0829 -0.8325
   57CHL1  H16A 6646   6.014   5.219   9.502  1.0003  1.8541 -1.8209
   57CHL1  H16B 6647   6.193   5.205   9.506  1.0774 -2.4238  0.8030
   57CHL1   C17 6648   6.077   5.018   9.462  0.7229  0.4459  0.2998
   57CHL1   H17 6649   6.175   4.974   9.436  0.1851 -1.2176  0.9663
   57CHL1   C13 6650   6.020   4.923   9.579 -0.0259  0.6786  0.3638
   57CHL1   C18 6651   5.866   4.931   9.583 -0.1245  0.5947  0.2575
   57CHL1  H18A 6652   5.818   4.879   9.669 -0.5409  0.0650 -0.2943
   57CHL1  H18B 6653   5.842   5.040   9.590  0.6635  0.7007  1.9507
   57CHL1  H18C 6654   5.825   4.885   9.491 -1.2562  0.9922  0.5493
   57CHL1   C12 6655   6.057   4.772   9.576  0.0823  0.8680  0.6577
   57CHL1  H12A 6656   6.003   4.717   9.497 -0.8697  1.7397  0.6821
   57CHL1  H12B 6657   6.166   4.767   9.554  0.0695 -1.9394  0.7907
   57CHL1   C11 6658   6.019   4.694   9.704 -0.8861 -0.2798  0.2212
   57CHL1  H11A 6659   5.908   4.696   9.707 -0.8665  0.0545  1.2915
   57CHL1  H11B 6660   6.043   4.586   9.694 -1.0715 -0.5616  2.2961
   57CHL1    C9 6661   6.066   4.763   9.837 -0.3767 -0.6589 -0.3258
   57CHL1    H9 6662   6.177   4.752   9.831 -0.1548  1.6625 -3.0876
   57CHL1   C10 6663   6.033   4.688   9.972 -0.3174 -0.1535  1.0013
   57CHL1   C19 6664   5.878   4.685   9.999 -0.5419  0.4370 -0.4286
   57CHL1  H19A 6665   5.843   4.636  10.093 -0.9776  0.1024 -0.7537
   57CHL1  H19B 6666   5.836   4.787   9.998 -1.2363  0.2563  2.1885
   57CHL1  H19C 6667   5.827   4.618   9.926  0.2448 -0.8974  0.1894
   57CHL1    C1 6668   6.095   4.549   9.971 -0.0489  0.6769  0.0284
   57CHL1   H1A 6669   6.048   4.482   9.895 -0.0026 -1.1565  1.5448
   57CHL1   H1B 6670   6.202   4.558   9.943 -0.1734  0.8097 -0.4079
   57CHL1    C2 6671   6.072   4.474  10.102  0.0093  0.0980 -0.1317
   57CHL1   H2A 6672   6.110   4.371  10.089 -0.9738 -0.4292  1.0162
   57CHL1   H2B 6673   5.963   4.468  10.123 -0.2391 -1.8990 -1.7142
   57CHL1   C20 6674   6.001   5.036   9.323  0.2082 -0.2177 -0.2078
   57CHL1   H20 6675   5.897   5.067   9.344  0.4889  2.0085 -1.7883
   57CHL1   C21 6676   6.003   4.900   9.252 -0.1208  0.4381  0.2679
   57CHL1  H21A 6677   5.960   4.820   9.316  3.1926  0.5382  2.9226
   57CHL1  H21B 6678   6.109   4.874   9.232 -0.8764 -1.7565 -1.3119
   57CHL1  H21C 6679   5.939   4.902   9.162  0.1112  2.9888  0.0835
   57CHL1   C22 6680   6.055   5.146   9.234  0.0001 -0.4063  0.7507
   57CHL1  H22A 6681   6.046   5.246   9.281 -2.5544 -0.0178 -0.4063
   57CHL1  H22B 6682   6.163   5.130   9.213  0.4877  0.8379  2.1422
   57CHL1   C23 6683   5.995   5.161   9.097  0.3323 -0.7376  0.1842
   57CHL1  H23A 6684   6.018   5.064   9.048 -0.2633 -0.2833 -1.0313
   57CHL1  H23B 6685   5.885   5.176   9.097  0.2502 -1.2273  1.2224
   57CHL1   C24 6686   6.060   5.266   8.998 -0.4773 -0.1092  0.3976
   57CHL1  H24A 6687   6.057   5.362   9.054 -2.3395  0.2347 -0.2275
   57CHL1  H24B 6688   6.165   5.236   8.977  0.4928  2.3445  1.3193
   57CHL1   C25 6689   5.984   5.293   8.871  0.0692 -0.5596  0.2961
   57CHL1   H25 6690   5.880   5.319   8.900  0.0619  0.6467 -0.6971
   57CHL1   C26 6691   6.047   5.412   8.790 -0.2349 -0.0237  0.0799
   57CHL1  H26A 6692   6.051   5.505   8.851  1.5099  0.1648 -0.2672
   57CHL1  H26B 6693   6.149   5.385   8.755  0.0867  1.6417 -0.3435
   57CHL1  H26C 6694   5.978   5.441   8.708  0.3469  0.0783 -0.3774
   57CHL1   C27 6695   5.976   5.166   8.787  0.0742  0.0956 -0.3199
   57CHL1  H27A 6696   5.925   5.082   8.838  2.5806 -1.3370 -0.0343
   57CHL1  H27B 6697   5.917   5.192   8.696 -1.8917  0.5965  1.0167
   57CHL1  H27C 6698   6.082   5.143   8.763  1.1256  2.8283  1.2234
   58CHL1    C3 6699   1.451   4.172  10.165 -0.2789  0.0558 -0.2369
   58CHL1    H3 6700   1.359   4.218  10.124  0.8549  0.9453 -1.8785
   58CHL1    O3 6701   1.444   4.161  10.311  0.0960 -0.0913 -0.0526
   58CHL1   H3' 6702   1.529   4.125  10.339  0.9828  1.4280 -0.6642
   58CHL1    C4 6703   1.448   4.027  10.099  0.0280 -0.0323 -0.3029
   58CHL1   H4A 6704   1.533   3.962  10.128  1.9138  2.3504 -0.2344
   58CHL1   H4B 6705   1.351   3.985  10.134 -1.1769  2.3791 -0.5319
   58CHL1    C5 6706   1.465   4.035   9.953 -1.0302 -0.5173 -0.1914
   58CHL1    C6 6707   1.374   3.990   9.867  0.3095  0.7106 -0.6444
   58CHL1    H6 6708   1.282   3.944   9.907  1.6056 -0.8178  0.7477
   58CHL1    C7 6709   1.397   3.973   9.720  0.3953 -0.5035 -0.1919
   58CHL1   H7A 6710   1.365   3.871   9.689 -0.0949 -0.2004 -0.6969
   58CHL1   H7B 6711   1.349   4.050   9.656  0.8142 -0.7193 -0.7770
   58CHL1    C8 6712   1.543   3.995   9.681 -0.3468 -0.0490 -0.5011
   58CHL1    H8 6713   1.596   3.904   9.716 -0.3196 -0.3493 -1.3066
   58CHL1   C14 6714   1.551   4.003   9.531  0.3152  0.1153  0.1863
   58CHL1   H14 6715   1.489   4.091   9.504 -1.5768 -1.4188 -0.7032
   58CHL1   C15 6716   1.492   3.893   9.450 -0.2239 -1.0620  0.1832
   58CHL1  H15A 6717   1.528   3.793   9.483 -0.1037 -1.0434  0.1104
   58CHL1  H15B 6718   1.381   3.896   9.457 -0.2115 -0.8417  0.2879
   58CHL1   C16 6719   1.540   3.929   9.306 -0.4859  0.6257  1.1217
   58CHL1  H16A 6720   1.583   3.838   9.260  1.0243  1.5733  0.5582
   58CHL1  H16B 6721   1.457   3.976   9.249 -1.4796 -1.6584  0.5805
   58CHL1   C17 6722   1.655   4.030   9.318  0.1320  0.1908 -0.5507
   58CHL1   H17 6723   1.600   4.127   9.313 -0.3963 -0.0714 -0.0131
   58CHL1   C13 6724   1.689   4.022   9.472  0.4278 -0.7326  0.6406
   58CHL1   C18 6725   1.792   3.908   9.502 -0.2272 -0.7284 -0.4724
   58CHL1  H18A 6726   1.785   3.821   9.434 -0.6236 -1.0910  0.0308
   58CHL1  H18B 6727   1.897   3.942   9.487 -1.3441  2.3995 -2.1901
   58CHL1  H18C 6728   1.777   3.865   9.603  0.4697  0.7353  0.2880
   58CHL1   C12 6729   1.737   4.163   9.528 -0.7562  0.4996 -0.1754
   58CHL1  H12A 6730   1.841   4.182   9.495 -0.1697 -0.7767  0.8774
   58CHL1  H12B 6731   1.673   4.247   9.492 -0.5674 -0.2997 -2.5150
   58CHL1   C11 6732   1.742   4.162   9.681 -0.0845  0.0280  0.2294
   58CHL1  H11A 6733   1.824   4.093   9.712 -0.0364  0.6017  1.4615
   58CHL1  H11B 6734   1.773   4.264   9.714 -1.1231 -0.2737  2.2963
   58CHL1    C9 6735   1.604   4.127   9.750  0.8419 -0.1960  0.3506
   58CHL1    H9 6736   1.539   4.214   9.727  1.0926  0.2180  1.1737
   58CHL1   C10 6737   1.601   4.105   9.900 -0.0204 -0.3366 -0.1308
   58CHL1   C19 6738   1.727   4.020   9.942  0.5599 -0.3012 -0.4761
   58CHL1  H19A 6739   1.735   3.928   9.880 -0.5767 -0.3429 -0.5780
   58CHL1  H19B 6740   1.817   4.083   9.921  0.4462 -0.5771 -1.8719
   58CHL1  H19C 6741   1.723   3.998  10.051  2.1234 -1.2927 -0.5867
   58CHL1    C1 6742   1.595   4.245   9.968  0.1786  0.5833  0.5900
   58CHL1   H1A 6743   1.682   4.309   9.945 -0.5146  0.9507 -1.1242
   58CHL1   H1B 6744   1.511   4.302   9.924 -1.3619 -0.5767  1.8913
   58CHL1    C2 6745   1.585   4.240  10.121 -0.5976  0.3978  0.2326
   58CHL1   H2A 6746   1.577   4.341  10.167 -0.1255  0.4373  0.2288
   58CHL1   H2B 6747   1.668   4.184  10.170 -1.9298 -0.4689  1.6034
   58CHL1   C20 6748   1.763   4.018   9.211 -0.1763 -0.3626  0.1380
   58CHL1   H20 6749   1.819   3.926   9.235 -0.7047 -1.3467 -2.1729
   58CHL1   C21 6750   1.866   4.134   9.222 -0.8900  0.0707  0.0476
   58CHL1  H21A 6751   1.927   4.140   9.129  0.0691 -0.7460  0.6018
   58CHL1  H21B 6752   1.945   4.121   9.299  1.9243  3.0198 -2.0924
   58CHL1  H21C 6753   1.810   4.229   9.232 -1.8949 -0.6090  1.1709
   58CHL1   C22 6754   1.705   4.002   9.067  0.0704 -1.0156  0.7846
   58CHL1  H22A 6755   1.791   3.979   9.001  0.1295 -0.1175  0.5351
   58CHL1  H22B 6756   1.633   3.919   9.051 -0.5128 -0.7712  2.0203
   58CHL1   C23 6757   1.645   4.131   9.004  0.0069  0.4969 -0.3769
   58CHL1  H23A 6758   1.553   4.163   9.057  0.8911  0.3612  1.2862
   58CHL1  H23B 6759   1.709   4.222   9.011 -0.4076  0.8153 -0.6350
   58CHL1   C24 6760   1.611   4.109   8.854  0.2065 -1.1508 -0.8669
   58CHL1  H24A 6761   1.557   4.013   8.838 -2.0613 -0.2429  0.8350
   58CHL1  H24B 6762   1.543   4.189   8.818  1.1106  0.0244 -0.0614
   58CHL1   C25 6763   1.732   4.117   8.761  0.8712  0.9865  0.1208
   58CHL1   H25 6764   1.811   4.043   8.787 -1.2836 -0.9487  1.6003
   58CHL1   C26 6765   1.694   4.085   8.616 -0.0371 -0.2811  0.5147
   58CHL1  H26A 6766   1.783   4.094   8.550  0.3124  1.3137  1.1548
   58CHL1  H26B 6767   1.668   3.978   8.613  0.1426 -0.3973  2.2055
   58CHL1  H26C 6768   1.615   4.156   8.583  0.7369  0.7237  0.7552
   58CHL1   C27 6769   1.803   4.254   8.750 -0.0002  0.0613 -0.2459
   58CHL1  H27A 6770   1.833   4.293   8.849 -4.1301 -0.5322  1.4241
   58CHL1  H27B 6771   1.880   4.247   8.669  1.5043 -0.1876  1.1613
   58CHL1  H27C 6772   1.722   4.323   8.717  0.1751  0.1936 -0.4024
   59CHL1    C3 6773   6.821   2.400  10.261  0.3212  0.3048  0.5772
   59CHL1    H3 6774   6.783   2.296  10.256  0.9529  0.1152 -0.8109
   59CHL1    O3 6775   6.809   2.441  10.398 -0.1871  0.0174  0.2475
   59CHL1   H3' 6776   6.870   2.514  10.413 -0.4026  0.0376  1.0503
   59CHL1    C4 6777   6.966   2.415  10.206 -0.3229  0.2645 -0.1793
   59CHL1   H4A 6778   7.000   2.519  10.224 -1.4417  0.9533 -1.8172
   59CHL1   H4B 6779   7.034   2.346  10.260  1.0084  0.0218 -2.0412
   59CHL1    C5 6780   6.967   2.387  10.058 -0.9693 -0.5643  0.4040
   59CHL1    C6 6781   7.051   2.294  10.012  0.4593  0.0199  0.0817
   59CHL1    H6 6782   7.109   2.227  10.077  1.8021 -1.1587 -2.2174
   59CHL1    C7 6783   7.065   2.270   9.863 -0.3369  0.2747  0.0953
   59CHL1   H7A 6784   7.174   2.255   9.844 -0.8816  0.3013 -3.7952
   59CHL1   H7B 6785   7.021   2.171   9.837  0.1362  0.3477 -1.0286
   59CHL1    C8 6786   7.003   2.383   9.778  0.0169 -0.1825 -0.0148
   59CHL1    H8 6787   7.079   2.464   9.774  2.1468 -2.0517  0.2438
   59CHL1   C14 6788   6.997   2.332   9.637 -0.1795 -0.0593 -0.5650
   59CHL1   H14 6789   6.937   2.240   9.656  0.7421 -0.4996  0.3670
   59CHL1   C15 6790   7.122   2.287   9.560  0.4498  0.9329 -0.0799
   59CHL1  H15A 6791   7.212   2.350   9.576  1.6221 -0.3690 -1.2607
   59CHL1  H15B 6792   7.140   2.182   9.593 -0.2938  1.0642  0.7952
   59CHL1   C16 6793   7.075   2.281   9.412  0.3218 -0.4875  0.2805
   59CHL1  H16A 6794   7.155   2.332   9.355 -0.0720  0.1529  0.3000
   59CHL1  H16B 6795   7.068   2.174   9.383 -1.5988 -0.7367  1.4982
   59CHL1   C17 6796   6.938   2.344   9.413  0.7390  0.2149  0.1461
   59CHL1   H17 6797   6.870   2.258   9.432 -0.0215  0.6225 -0.6939
   59CHL1   C13 6798   6.922   2.424   9.536 -0.7677 -0.2391 -0.6220
   59CHL1   C18 6799   6.982   2.562   9.524  0.3238 -0.1840  0.2569
   59CHL1  H18A 6800   7.082   2.547   9.480 -0.1693  1.4156 -1.5433
   59CHL1  H18B 6801   6.918   2.632   9.466  0.9167  1.4330  1.4851
   59CHL1  H18C 6802   7.006   2.604   9.624  0.3827 -0.7869  0.4990
   59CHL1   C12 6803   6.775   2.446   9.588 -0.1758  0.7018  0.7890
   59CHL1  H12A 6804   6.713   2.501   9.515 -1.4834 -1.7593 -0.0533
   59CHL1  H12B 6805   6.733   2.343   9.594  1.3990  0.0462  1.1181
   59CHL1   C11 6806   6.776   2.498   9.726 -0.4141  0.0553 -0.1153
   59CHL1  H11A 6807   6.795   2.607   9.719 -1.2692  0.1119 -2.4276
   59CHL1  H11B 6808   6.672   2.493   9.764 -0.5024  0.6736 -0.2594
   59CHL1    C9 6809   6.870   2.425   9.829  0.1024  0.1712  0.1900
   59CHL1    H9 6810   6.816   2.329   9.839 -2.5755  1.1080 -3.2827
   59CHL1   C10 6811   6.862   2.472   9.974  0.0675  0.0487 -0.4636
   59CHL1   C19 6812   6.895   2.624   9.976  0.4321 -0.3885 -0.1508
   59CHL1  H19A 6813   6.920   2.648  10.081  2.8966 -1.2965 -0.4532
   59CHL1  H19B 6814   6.984   2.652   9.915  0.6671 -0.3193  0.2207
   59CHL1  H19C 6815   6.825   2.687   9.916  1.0677  1.0170  0.5363
   59CHL1    C1 6816   6.717   2.448  10.037 -0.3627 -0.2520  0.2224
   59CHL1   H1A 6817   6.645   2.519   9.990  0.2150  0.0705 -0.1915
   59CHL1   H1B 6818   6.673   2.348  10.018 -1.9022  0.2433  1.0650
   59CHL1    C2 6819   6.711   2.472  10.186 -0.0206  0.1920  0.6189
   59CHL1   H2A 6820   6.618   2.425  10.224  2.6915 -3.8244  3.0946
   59CHL1   H2B 6821   6.714   2.582  10.195 -1.7366  0.2100  1.2731
   59CHL1   C20 6822   6.872   2.394   9.282  0.4407 -0.2455 -0.1311
   59CHL1   H20 6823   6.786   2.461   9.305  2.0851  2.7977 -2.0806
   59CHL1   C21 6824   6.813   2.271   9.212 -0.6073 -0.1459 -0.3697
   59CHL1  H21A 6825   6.894   2.197   9.195 -2.5659 -1.9958 -2.3976
   59CHL1  H21B 6826   6.756   2.296   9.120 -0.5657 -0.5112 -0.4943
   59CHL1  H21C 6827   6.749   2.207   9.275 -2.3638  1.3978 -0.5130
   59CHL1   C22 6828   6.958   2.498   9.196  0.1112 -0.4252 -0.6754
   59CHL1  H22A 6829   6.973   2.596   9.246  0.8815 -1.6846  1.7074
   59CHL1  H22B 6830   7.063   2.462   9.195  0.0817 -0.5292 -2.0752
   59CHL1   C23 6831   6.911   2.506   9.052  0.0054  0.0441  0.0257
   59CHL1  H23A 6832   6.917   2.408   9.000 -1.0149  0.6843 -1.3448
   59CHL1  H23B 6833   6.802   2.523   9.048 -0.5785 -2.3933  2.4356
   59CHL1   C24 6834   6.992   2.606   8.967 -0.6356  0.2818  0.5718
   59CHL1  H24A 6835   6.983   2.707   9.013  0.8026  1.1328 -0.8728
   59CHL1  H24B 6836   7.097   2.571   8.957 -0.7212  0.5842 -2.1064
   59CHL1   C25 6837   6.924   2.619   8.828 -0.0308 -0.1660 -0.1358
   59CHL1   H25 6838   6.813   2.615   8.838 -0.1001 -0.1652 -0.8495
   59CHL1   C26 6839   6.967   2.751   8.761  0.9217  0.7912  0.1630
   59CHL1  H26A 6840   6.936   2.828   8.835 -0.0556 -0.5629  1.2090
   59CHL1  H26B 6841   7.077   2.746   8.745  1.1929 -2.7909  2.0616
   59CHL1  H26C 6842   6.910   2.768   8.667 -1.4408  0.5983  1.4876
   59CHL1   C27 6843   6.964   2.497   8.737 -0.4375 -0.2288 -0.9724
   59CHL1  H27A 6844   7.072   2.502   8.714  0.5346 -1.3160  2.6017
   59CHL1  H27B 6845   6.935   2.407   8.796 -3.6866 -0.6812 -3.0115
   59CHL1  H27C 6846   6.892   2.490   8.652 -1.1763  2.4145 -0.6384
   60CHL1    C3 6847   0.039   0.606  10.213 -0.3945 -0.3804 -0.2566
   60CHL1    H3 6848  -0.067   0.581  10.193 -0.2984 -0.9087 -0.1246
   60CHL1    O3 6849   0.052   0.657  10.348 -0.0767 -0.5616 -0.0417
   60CHL1   H3' 6850   0.144   0.637  10.368  0.5844 -0.1849 -2.3567
   60CHL1    C4 6851   0.112   0.467  10.190  0.0519  0.7481 -0.2356
   60CHL1   H4A 6852   0.221   0.463  10.210  0.0132 -3.1395 -0.0046
   60CHL1   H4B 6853   0.064   0.396  10.260  0.7249 -1.7381 -2.1542
   60CHL1    C5 6854   0.081   0.414  10.058  0.8812  0.2979  0.7547
   60CHL1    C6 6855   0.017   0.301  10.033 -0.3296  0.6704 -0.7126
   60CHL1    H6 6856  -0.015   0.234  10.114  1.3953  1.6445  0.8736
   60CHL1    C7 6857  -0.012   0.249   9.891  0.2604  0.1985  0.2470
   60CHL1   H7A 6858   0.014   0.141   9.882  0.1070  0.3318 -3.1391
   60CHL1   H7B 6859  -0.119   0.236   9.866  0.7909  0.0229 -2.1923
   60CHL1    C8 6860   0.075   0.316   9.781 -0.3977 -0.4021 -0.1046
   60CHL1    H8 6861   0.182   0.292   9.796  0.1819  2.2705  0.6123
   60CHL1   C14 6862   0.019   0.275   9.645 -0.0823  0.6067 -0.0218
   60CHL1   H14 6863  -0.081   0.324   9.643 -0.9943 -1.1644  0.3599
   60CHL1   C15 6864  -0.013   0.124   9.628 -0.8219  0.3897  0.2197
   60CHL1  H15A 6865   0.076   0.065   9.659 -0.9325  0.2351  0.2415
   60CHL1  H15B 6866  -0.104   0.107   9.689 -1.5738  2.5727 -0.1942
   60CHL1   C16 6867  -0.029   0.111   9.477 -0.1417  0.1000 -0.3143
   60CHL1  H16A 6868   0.045   0.035   9.443 -0.5774 -0.7550  0.6030
   60CHL1  H16B 6869  -0.132   0.085   9.447 -0.0284  0.4189 -1.0104
   60CHL1   C17 6870   0.023   0.252   9.414  0.6472  0.3165  0.3104
   60CHL1   H17 6871  -0.068   0.315   9.407  1.1479  1.1709  1.1229
   60CHL1   C13 6872   0.098   0.328   9.530 -0.1235 -0.3460  0.4373
   60CHL1   C18 6873   0.243   0.274   9.535 -0.1865 -0.4215  0.7171
   60CHL1  H18A 6874   0.284   0.299   9.435 -1.0814  2.2390  0.9174
   60CHL1  H18B 6875   0.298   0.322   9.619  2.5429  0.3293 -1.3504
   60CHL1  H18C 6876   0.248   0.164   9.550  1.5533 -0.0518  3.6733
   60CHL1   C12 6877   0.100   0.487   9.534  0.8082  0.4621 -0.4652
   60CHL1  H12A 6878   0.170   0.533   9.461  1.6084 -0.7601 -0.4938
   60CHL1  H12B 6879  -0.004   0.524   9.523  0.3157 -1.1374 -1.6938
   60CHL1   C11 6880   0.148   0.535   9.676 -0.1020  0.0580  0.5323
   60CHL1  H11A 6881   0.257   0.515   9.678 -0.1485 -0.7253 -1.8507
   60CHL1  H11B 6882   0.134   0.644   9.693 -1.6439 -0.2965  1.7207
   60CHL1    C9 6883   0.082   0.465   9.796  0.5761 -0.9229 -0.2666
   60CHL1    H9 6884  -0.024   0.497   9.786 -0.5137 -4.6620 -2.5184
   60CHL1   C10 6885   0.126   0.506   9.941 -0.4286  0.8037  0.1445
   60CHL1   C19 6886   0.282   0.519   9.930 -0.3633 -0.4543  0.4599
   60CHL1  H19A 6887   0.326   0.594   9.861 -0.1099 -1.1090 -0.0970
   60CHL1  H19B 6888   0.325   0.552  10.027  2.7577 -2.0769 -0.2398
   60CHL1  H19C 6889   0.319   0.417   9.908  2.5265  0.8171 -1.0900
   60CHL1    C1 6890   0.060   0.646   9.967  0.1817 -0.3947  0.4902
   60CHL1   H1A 6891   0.097   0.722   9.895  1.4278 -1.8832 -0.5114
   60CHL1   H1B 6892  -0.051   0.638   9.973  0.1069  0.7569  0.9341
   60CHL1    C2 6893   0.090   0.712  10.108  0.1448 -0.3517 -1.1420
   60CHL1   H2A 6894   0.038   0.808  10.130  0.3802 -0.4445 -0.1204
   60CHL1   H2B 6895   0.200   0.726  10.109  0.9793 -5.2391  0.2318
   60CHL1   C20 6896   0.086   0.248   9.277 -0.4301 -0.3775  0.0584
   60CHL1   H20 6897   0.186   0.202   9.291  0.4167  1.2607 -0.3867
   60CHL1   C21 6898   0.118   0.390   9.226  0.2270 -0.3700  0.5913
   60CHL1  H21A 6899   0.128   0.383   9.116 -2.2855 -3.8695  0.4208
   60CHL1  H21B 6900   0.199   0.448   9.275 -1.4940  2.4042  0.3773
   60CHL1  H21C 6901   0.030   0.454   9.245  0.6787  0.4140  0.1108
   60CHL1   C22 6902   0.006   0.179   9.171  0.0498  0.3271 -0.6437
   60CHL1  H22A 6903  -0.028   0.082   9.212 -0.0255 -0.2524 -2.0406
   60CHL1  H22B 6904  -0.086   0.241   9.166  0.1455  0.6163  0.6507
   60CHL1   C23 6905   0.076   0.157   9.034  0.9855  0.0051  0.0137
   60CHL1  H23A 6906   0.078   0.247   8.969  0.8474 -1.1411 -1.6607
   60CHL1  H23B 6907   0.185   0.135   9.040  0.4601 -2.7750  1.0232
   60CHL1   C24 6908   0.001   0.044   8.963  0.2497 -0.5347  0.7300
   60CHL1  H24A 6909   0.080   0.009   8.893 -0.9503  0.4476 -1.2053
   60CHL1  H24B 6910  -0.026  -0.044   9.025  2.0183 -1.7211 -0.0874
   60CHL1   C25 6911  -0.108   0.092   8.855 -0.5124  0.5037 -0.5250
   60CHL1   H25 6912  -0.080   0.194   8.823  2.6180  0.1602  0.7501
   60CHL1   C26 6913  -0.120  -0.000   8.733  0.1778  0.7423 -0.0535
   60CHL1  H26A 6914  -0.016  -0.032   8.708  0.3607  0.9299  0.4634
   60CHL1  H26B 6915  -0.177  -0.094   8.751  0.9180  0.2546 -0.1830
   60CHL1  H26C 6916  -0.159   0.052   8.643 -0.5364 -0.3369 -0.3991
   60CHL1   C27 6917  -0.247   0.129   8.911 -0.4710 -1.0722  0.2676
   60CHL1  H27A 6918  -0.274   0.047   8.980 -2.5464  0.4904  1.4116
   60CHL1  H27B 6919  -0.242   0.220   8.974  0.0606 -0.8691 -0.0513
   60CHL1  H27C 6920  -0.315   0.153   8.827  0.8434  1.8416 -0.0833
   61CHL1    C3 6921   4.863   2.672  10.184  0.1114  0.0930  0.7205
   61CHL1    H3 6922   4.965   2.628  10.189 -0.0117 -1.2868 -4.2123
   61CHL1    O3 6923   4.823   2.671  10.322  0.4158 -0.6428 -0.2070
   61CHL1   H3' 6924   4.727   2.667  10.324  0.3678  0.2623  1.4764
   61CHL1    C4 6925   4.862   2.818  10.134  0.4683 -0.2724 -0.4383
   61CHL1   H4A 6926   4.764   2.870  10.131  1.2065  1.1724 -0.3179
   61CHL1   H4B 6927   4.922   2.883  10.200  0.4434  0.6471 -1.2980
   61CHL1    C5 6928   4.918   2.807   9.995  0.5421 -0.1094 -1.0395
   61CHL1    C6 6929   5.030   2.869   9.962 -0.0795  0.3008 -0.0352
   61CHL1    H6 6930   5.080   2.936  10.034 -0.7636  1.1840 -0.3518
   61CHL1    C7 6931   5.075   2.877   9.827 -0.2808 -0.2905  1.0240
   61CHL1   H7A 6932   5.086   2.984   9.801 -2.0341 -0.1661  0.6354
   61CHL1   H7B 6933   5.166   2.814   9.819 -1.3146 -1.5847 -2.7179
   61CHL1    C8 6934   4.975   2.818   9.720  0.0769  0.8267  0.1146
   61CHL1    H8 6935   4.902   2.892   9.681 -2.5120 -2.1281 -0.9943
   61CHL1   C14 6936   5.068   2.782   9.599  0.5683 -0.1308  0.3957
   61CHL1   H14 6937   5.136   2.705   9.642 -0.1046 -0.1340  1.4676
   61CHL1   C15 6938   5.152   2.894   9.530 -0.1086  0.7770 -0.5445
   61CHL1  H15A 6939   5.082   2.978   9.516 -2.0040 -0.6238  0.0869
   61CHL1  H15B 6940   5.241   2.922   9.591  0.6987  0.7435 -1.6576
   61CHL1   C16 6941   5.187   2.837   9.394 -0.1815  0.2781  0.2583
   61CHL1  H16A 6942   5.158   2.906   9.312 -2.6766  1.5510  2.0948
   61CHL1  H16B 6943   5.299   2.836   9.396 -0.1263 -0.7383  4.0275
   61CHL1   C17 6944   5.116   2.696   9.381  0.1445  0.2480 -0.5278
   61CHL1   H17 6945   5.178   2.616   9.426  0.2446  2.2950  3.4196
   61CHL1   C13 6946   5.002   2.710   9.485  0.3540 -0.0290 -0.0572
   61CHL1   C18 6947   4.893   2.807   9.429  1.1618 -0.0661  0.2265
   61CHL1  H18A 6948   4.925   2.883   9.355 -0.9772  0.9094  0.2434
   61CHL1  H18B 6949   4.834   2.735   9.369  0.7152 -1.3120  2.0695
   61CHL1  H18C 6950   4.821   2.848   9.503 -0.6395 -0.5526 -1.2070
   61CHL1   C12 6951   4.936   2.583   9.535  0.4496 -0.9011 -0.4084
   61CHL1  H12A 6952   4.876   2.535   9.455 -1.5309 -1.2590  1.2164
   61CHL1  H12B 6953   5.021   2.517   9.567  2.2228 -0.0373 -3.0594
   61CHL1   C11 6954   4.843   2.623   9.652  0.0087  0.0582  0.0537
   61CHL1  H11A 6955   4.762   2.690   9.618  0.8180  0.6821 -0.7293
   61CHL1  H11B 6956   4.785   2.533   9.683  1.7264 -0.6270  1.4667
   61CHL1    C9 6957   4.917   2.690   9.766  0.3369 -0.0899 -0.4089
   61CHL1    H9 6958   4.997   2.619   9.798 -1.5441 -0.8504  3.1737
   61CHL1   C10 6959   4.835   2.713   9.896 -0.2762 -0.0923  0.2767
   61CHL1   C19 6960   4.701   2.783   9.866 -0.6430  0.7840  0.3379
   61CHL1  H19A 6961   4.658   2.787   9.968  0.7887  3.3227  0.9353
   61CHL1  H19B 6962   4.720   2.886   9.830 -0.7423  1.1975  1.4330
   61CHL1  H19C 6963   4.630   2.728   9.801 -1.3386  0.6607  1.1958
   61CHL1    C1 6964   4.821   2.566   9.955 -0.5386 -0.1307  1.1416
   61CHL1   H1A 6965   4.747   2.517   9.888 -0.2686  0.4105  0.4257
   61CHL1   H1B 6966   4.917   2.511   9.949  1.3968  3.0941  0.1477
   61CHL1    C2 6967   4.780   2.573  10.102 -0.0661  0.6578 -0.3009
   61CHL1   H2A 6968   4.781   2.471  10.148  0.0811  1.1144  0.7389
   61CHL1   H2B 6969   4.675   2.606  10.112 -0.3114  0.0133 -0.6648
   61CHL1   C20 6970   5.088   2.660   9.237  0.0830 -0.3920 -0.3975
   61CHL1   H20 6971   5.011   2.735   9.208 -1.0802 -0.7581  1.5000
   61CHL1   C21 6972   5.016   2.520   9.233 -0.1419 -0.0275  0.0784
   61CHL1  H21A 6973   5.022   2.466   9.136 -1.3383 -1.4759  0.7689
   61CHL1  H21B 6974   4.909   2.537   9.258 -0.1787  0.5651 -0.4435
   61CHL1  H21C 6975   5.058   2.460   9.317  0.4314  0.2354 -0.0185
   61CHL1   C22 6976   5.206   2.657   9.131 -0.0176  0.1327  0.0834
   61CHL1  H22A 6977   5.276   2.736   9.164  3.1273 -1.7308 -1.6799
   61CHL1  H22B 6978   5.259   2.559   9.133  0.5834  0.4175 -1.3554
   61CHL1   C23 6979   5.170   2.697   8.987  0.2219 -0.0893 -0.2880
   61CHL1  H23A 6980   5.129   2.612   8.927  3.0231 -1.2700 -0.7158
   61CHL1  H23B 6981   5.100   2.783   8.987 -0.3400 -0.4168  3.1591
   61CHL1   C24 6982   5.295   2.739   8.909  0.3188 -0.1859 -0.3304
   61CHL1  H24A 6983   5.324   2.828   8.970 -0.9776 -0.8221  1.3014
   61CHL1  H24B 6984   5.382   2.670   8.914  0.0401 -0.5745 -0.8003
   61CHL1   C25 6985   5.265   2.780   8.766 -0.0867 -0.2116  0.2042
   61CHL1   H25 6986   5.221   2.696   8.708 -1.0040  0.4089 -0.0301
   61CHL1   C26 6987   5.175   2.907   8.748  0.2248  0.1648  0.1198
   61CHL1  H26A 6988   5.232   2.996   8.782  0.9912 -0.0368 -0.5833
   61CHL1  H26B 6989   5.152   2.918   8.639 -0.0347 -1.7657 -0.0625
   61CHL1  H26C 6990   5.076   2.902   8.797  0.9107 -2.1063  1.4076
   61CHL1   C27 6991   5.399   2.810   8.696  0.3914 -0.3813  0.1597
   61CHL1  H27A 6992   5.473   2.730   8.715  0.4546 -0.3776 -0.0664
   61CHL1  H27B 6993   5.379   2.803   8.587  2.0749  0.1473 -0.2111
   61CHL1  H27C 6994   5.443   2.907   8.725 -2.9672  0.4241  3.2989
   62CHL1    C3 6995   1.253   4.625  10.040 -0.0198  0.1274  0.6362
   62CHL1    H3 6996   1.273   4.722   9.989  0.4079  0.7647  1.9770
   62CHL1    O3 6997   1.289   4.642  10.178 -0.1827 -0.6505 -0.3008
   62CHL1   H3' 6998   1.307   4.561  10.225  0.8992  0.6797  1.7665
   62CHL1    C4 6999   1.102   4.583  10.026  0.1781  0.0955  0.2837
   62CHL1   H4A 7000   1.087   4.505  10.103 -0.7280  0.3605  0.3973
   62CHL1   H4B 7001   1.031   4.657  10.069 -0.7303  0.5375 -1.8247
   62CHL1    C5 7002   1.071   4.553   9.884  0.4149 -0.2626  0.0775
   62CHL1    C6 7003   0.987   4.628   9.808 -0.3332 -0.2933 -0.8313
   62CHL1    H6 7004   0.939   4.716   9.854  0.7725 -0.2669  0.3305
   62CHL1    C7 7005   0.953   4.612   9.659 -0.0889  0.2663  0.2552
   62CHL1   H7A 7006   0.843   4.605   9.658 -0.1555  0.9502  1.1059
   62CHL1   H7B 7007   0.971   4.704   9.599  0.5986  0.6249  0.9929
   62CHL1    C8 7008   1.011   4.469   9.611 -0.3955  0.4354  0.0735
   62CHL1    H8 7009   0.935   4.396   9.647  0.1602 -0.7141 -1.0126
   62CHL1   C14 7010   1.013   4.466   9.459  0.2350 -0.9054 -0.1395
   62CHL1   H14 7011   1.088   4.544   9.431  2.0204 -1.2368  3.1319
   62CHL1   C15 7012   0.872   4.487   9.385 -0.7210 -0.5231 -0.3667
   62CHL1  H15A 7013   0.792   4.436   9.442  0.3307  0.6882  2.3747
   62CHL1  H15B 7014   0.843   4.594   9.379 -1.2108 -0.6660 -0.6333
   62CHL1   C16 7015   0.902   4.421   9.250  0.3094  0.0191  0.3615
   62CHL1  H16A 7016   0.830   4.339   9.233 -0.8215  1.2083 -0.8788
   62CHL1  H16B 7017   0.902   4.493   9.165  0.3101 -0.0364  0.3155
   62CHL1   C17 7018   1.048   4.353   9.250 -0.0513  0.1373  0.2952
   62CHL1   H17 7019   1.112   4.435   9.211 -1.7606  0.4787 -2.0212
   62CHL1   C13 7020   1.075   4.342   9.399 -0.5316 -0.3681  0.1156
   62CHL1   C18 7021   0.994   4.218   9.448 -0.1196  0.9902 -0.1600
   62CHL1  H18A 7022   1.046   4.131   9.402  2.0121  1.7591  0.6681
   62CHL1  H18B 7023   0.998   4.216   9.559 -0.2246  0.7537 -0.1602
   62CHL1  H18C 7024   0.887   4.204   9.422 -0.1848 -0.2937  0.6991
   62CHL1   C12 7025   1.228   4.335   9.438  0.2277 -0.3652 -0.6113
   62CHL1  H12A 7026   1.277   4.248   9.390 -0.8212 -0.1845 -2.0867
   62CHL1  H12B 7027   1.281   4.422   9.393 -1.3928  0.3232 -1.3066
   62CHL1   C11 7028   1.234   4.338   9.590 -0.1764 -0.6684  0.0447
   62CHL1  H11A 7029   1.197   4.239   9.623  0.0125 -2.0223 -3.4218
   62CHL1  H11B 7030   1.339   4.348   9.625  0.0572 -1.2823 -0.4789
   62CHL1    C9 7031   1.151   4.450   9.661 -0.2828 -0.3490  0.7046
   62CHL1    H9 7032   1.206   4.537   9.619  0.7058 -1.5494 -0.5394
   62CHL1   C10 7033   1.167   4.451   9.813  0.2602 -0.3372  0.4591
   62CHL1   C19 7034   1.118   4.312   9.859  0.1058 -0.1179  0.3002
   62CHL1  H19A 7035   1.195   4.235   9.836  1.8932  0.8834  2.5598
   62CHL1  H19B 7036   1.100   4.312   9.969 -1.6639 -0.3937  0.0421
   62CHL1  H19C 7037   1.020   4.284   9.815  0.1009 -1.4298  1.1051
   62CHL1    C1 7038   1.310   4.475   9.843  0.3863  0.6392 -0.9811
   62CHL1   H1A 7039   1.383   4.405   9.799  0.2655  0.6104 -1.1396
   62CHL1   H1B 7040   1.337   4.574   9.799  3.2387 -1.0724 -3.4070
   62CHL1    C2 7041   1.332   4.497   9.991  0.2999 -0.5471 -0.4109
   62CHL1   H2A 7042   1.441   4.508  10.011 -0.2539  4.1395  1.2632
   62CHL1   H2B 7043   1.297   4.411  10.051 -1.2007  1.2381  1.4230
   62CHL1   C20 7044   1.051   4.235   9.152 -0.7015  0.6266 -0.0668
   62CHL1   H20 7045   0.976   4.162   9.190 -1.5561  1.7658  0.4922
   62CHL1   C21 7046   1.193   4.156   9.157  0.3107 -1.2178 -0.1037
   62CHL1  H21A 7047   1.276   4.227   9.138 -0.8804  1.5959  3.8450
   62CHL1  H21B 7048   1.201   4.073   9.083  1.3975  0.4208 -1.9029
   62CHL1  H21C 7049   1.206   4.113   9.259 -0.7907  1.4097  1.2514
   62CHL1   C22 7050   1.018   4.257   9.003  0.4403 -0.1632 -0.4415
   62CHL1  H22A 7051   0.922   4.313   8.999  0.7207  0.2599 -1.9777
   62CHL1  H22B 7052   1.099   4.316   8.955  0.7313  1.4489  1.8365
   62CHL1   C23 7053   0.992   4.129   8.923  0.6506 -0.6856  0.1116
   62CHL1  H23A 7054   1.075   4.057   8.916 -2.0761 -4.0562 -0.4747
   62CHL1  H23B 7055   0.905   4.069   8.958  0.5591 -1.3202 -1.1615
   62CHL1   C24 7056   0.947   4.154   8.773 -0.2599  0.0082  0.2117
   62CHL1  H24A 7057   0.846   4.201   8.772 -0.5307 -0.5665  0.1232
   62CHL1  H24B 7058   1.020   4.226   8.730  1.1397 -1.5343 -0.0871
   62CHL1   C25 7059   0.937   4.028   8.681  0.3329  0.5935  0.6721
   62CHL1   H25 7060   0.861   3.957   8.722 -0.8275  0.7218 -1.1334
   62CHL1   C26 7061   0.889   4.082   8.546  0.7767  0.5041  0.1419
   62CHL1  H26A 7062   0.784   4.120   8.541  0.8015  0.6379  0.5694
   62CHL1  H26B 7063   0.958   4.157   8.503 -1.7932  3.3333  0.5251
   62CHL1  H26C 7064   0.883   3.999   8.474  0.4266  1.2880 -0.7541
   62CHL1   C27 7065   1.065   3.945   8.667 -0.1589  0.4466 -0.3703
   62CHL1  H27A 7066   1.086   3.891   8.761 -0.8987  1.1145  0.1941
   62CHL1  H27B 7067   1.052   3.869   8.588 -1.8609  0.8631 -0.5268
   62CHL1  H27C 7068   1.156   4.004   8.643  1.7470 -1.4769  1.7218
   63CHL1    C3 7069   1.149   5.824  10.291 -0.1334  0.3816  0.5307
   63CHL1    H3 7070   1.041   5.815  10.265 -0.4687  0.2409  1.8874
   63CHL1    O3 7071   1.155   5.793  10.429  0.1136  0.9945 -0.8592
   63CHL1   H3' 7072   1.067   5.804  10.464  0.8776 -0.1667  1.6583
   63CHL1    C4 7073   1.226   5.722  10.207 -0.2426 -0.5334 -0.2554
   63CHL1   H4A 7074   1.333   5.729  10.238  0.0083 -1.2227 -0.9557
   63CHL1   H4B 7075   1.186   5.619  10.218 -1.6572 -0.2883 -2.4689
   63CHL1    C5 7076   1.219   5.755  10.057  0.2830  0.3556 -0.8309
   63CHL1    C6 7077   1.171   5.657   9.975  0.5320  0.5075  0.5313
   63CHL1    H6 7078   1.158   5.554  10.012 -2.5779  0.3954 -0.6205
   63CHL1    C7 7079   1.165   5.681   9.826  0.0524  0.4487 -0.0432
   63CHL1   H7A 7080   1.210   5.592   9.776  0.8651  0.3001  0.9122
   63CHL1   H7B 7081   1.065   5.709   9.787 -0.7078 -0.1501  1.3782
   63CHL1    C8 7082   1.253   5.803   9.784  0.1019  0.4281 -0.2080
   63CHL1    H8 7083   1.361   5.780   9.796  0.1890 -0.0069 -1.6576
   63CHL1   C14 7084   1.222   5.847   9.642  0.6748 -0.1028 -0.1331
   63CHL1   H14 7085   1.116   5.880   9.642  1.3154  2.0898 -0.8926
   63CHL1   C15 7086   1.233   5.739   9.532 -0.5180 -0.2307 -0.2020
   63CHL1  H15A 7087   1.330   5.688   9.549 -0.7050 -0.9616 -1.2402
   63CHL1  H15B 7088   1.157   5.657   9.529 -0.3044 -0.4570  0.4377
   63CHL1   C16 7089   1.245   5.817   9.406 -0.4749  0.1124  0.5168
   63CHL1  H16A 7090   1.338   5.801   9.347 -0.6131  0.4537  0.2038
   63CHL1  H16B 7091   1.155   5.792   9.346  0.8872 -2.3214 -0.6637
   63CHL1   C17 7092   1.256   5.969   9.450 -0.1345  0.2431 -0.1031
   63CHL1   H17 7093   1.153   6.010   9.454 -0.2827  0.0501 -1.3565
   63CHL1   C13 7094   1.302   5.963   9.595 -0.3239 -0.3353 -1.0855
   63CHL1   C18 7095   1.451   5.932   9.594  0.3557 -0.7206  0.0421
   63CHL1  H18A 7096   1.496   5.906   9.693  0.1626 -0.1979  0.2710
   63CHL1  H18B 7097   1.470   5.842   9.532 -0.8248  0.0999 -1.5688
   63CHL1  H18C 7098   1.509   6.019   9.556 -1.0583 -1.4038 -4.1259
   63CHL1   C12 7099   1.264   6.082   9.684  0.4627  0.0936  0.9400
   63CHL1  H12A 7100   1.321   6.175   9.665  1.9884 -0.8024  0.9091
   63CHL1  H12B 7101   1.155   6.103   9.678  0.6125  0.3986 -1.3095
   63CHL1   C11 7102   1.291   6.052   9.828 -0.2329 -0.3649 -0.1042
   63CHL1  H11A 7103   1.402   6.053   9.833 -0.1751  3.4035  1.3613
   63CHL1  H11B 7104   1.267   6.131   9.902 -0.4638 -0.3462 -0.1969
   63CHL1    C9 7105   1.228   5.923   9.876  0.0546 -0.7540  0.1171
   63CHL1    H9 7106   1.118   5.935   9.866 -0.1655 -2.7909 -0.5006
   63CHL1   C10 7107   1.259   5.897  10.023  0.0918  1.0897 -0.4907
   63CHL1   C19 7108   1.411   5.907  10.042 -0.4990 -0.0692 -0.1536
   63CHL1  H19A 7109   1.444   5.862  10.138  1.6076  1.9557  0.1815
   63CHL1  H19B 7110   1.464   5.852   9.961 -1.1704  0.1485 -0.7523
   63CHL1  H19C 7111   1.457   6.009  10.044  2.6297 -1.2909 -2.1784
   63CHL1    C1 7112   1.189   5.997  10.125  0.3141 -0.6563  0.2068
   63CHL1   H1A 7113   1.226   6.101  10.118 -0.8144  0.0314  2.9566
   63CHL1   H1B 7114   1.080   6.003  10.104  0.0215  0.3510  1.8293
   63CHL1    C2 7115   1.196   5.967  10.273 -0.6955 -0.2415  0.0974
   63CHL1   H2A 7116   1.123   6.031  10.328  1.3109  0.8297  1.6916
   63CHL1   H2B 7117   1.300   5.981  10.309 -0.2677  0.3690 -1.2989
   63CHL1   C20 7118   1.335   6.068   9.355  0.3979 -0.6701  0.1037
   63CHL1   H20 7119   1.443   6.045   9.345  0.0861 -1.1218 -3.1906
   63CHL1   C21 7120   1.316   6.212   9.400 -0.3986 -0.2748 -0.1887
   63CHL1  H21A 7121   1.352   6.278   9.317 -0.7538 -0.7196 -0.7050
   63CHL1  H21B 7122   1.382   6.232   9.487 -0.9016 -0.8106  0.3210
   63CHL1  H21C 7123   1.210   6.224   9.431 -0.5563 -2.8270  0.4012
   63CHL1   C22 7124   1.292   6.052   9.208  0.0977  0.0440  0.0464
   63CHL1  H22A 7125   1.380   6.085   9.149 -0.3571 -2.7444 -2.4266
   63CHL1  H22B 7126   1.268   5.946   9.184 -0.6138  0.1307  0.3524
   63CHL1   C23 7127   1.181   6.145   9.159 -0.4651  0.6989  0.6041
   63CHL1  H23A 7128   1.093   6.138   9.227 -1.1146  1.9323 -0.0609
   63CHL1  H23B 7129   1.208   6.253   9.162 -0.8112  0.7726  1.1272
   63CHL1   C24 7130   1.131   6.111   9.010 -0.0049 -0.1251  0.1418
   63CHL1  H24A 7131   1.219   6.117   8.943  1.4685  1.1310  2.0873
   63CHL1  H24B 7132   1.092   6.007   9.016 -0.7969  0.0520 -1.4544
   63CHL1   C25 7133   1.020   6.199   8.958 -0.3930 -0.4968  0.1591
   63CHL1   H25 7134   1.036   6.304   8.991  1.2293 -0.0574 -1.8371
   63CHL1   C26 7135   1.026   6.209   8.803 -0.4797 -0.7586  0.1756
   63CHL1  H26A 7136   0.990   6.112   8.763 -1.5510 -0.5927  0.7173
   63CHL1  H26B 7137   0.956   6.289   8.772  2.7599  2.0469 -0.5535
   63CHL1  H26C 7138   1.129   6.236   8.769 -1.6848  0.1551 -3.1562
   63CHL1   C27 7139   0.884   6.153   9.015  0.1393  0.2199 -0.4437
   63CHL1  H27A 7140   0.863   6.045   8.999 -1.8567  0.3100  1.1811
   63CHL1  H27B 7141   0.879   6.176   9.124 -1.4018  0.0710 -0.4672
   63CHL1  H27C 7142   0.806   6.213   8.964 -0.7026 -1.0915 -0.7207
   64CHL1    C3 7143   6.660   6.195  10.207  0.2158  0.1857  0.1864
   64CHL1    H3 7144   6.582   6.274  10.201 -0.3943 -0.4653 -0.6742
   64CHL1    O3 7145   6.713   6.185  10.339 -0.0814 -0.2752 -0.3990
   64CHL1   H3' 7146   6.762   6.103  10.342  0.2215 -0.1156 -0.8116
   64CHL1    C4 7147   6.581   6.061  10.177 -0.1172  0.1263 -0.1753
   64CHL1   H4A 7148   6.651   5.976  10.190  0.5277  0.5281 -0.8712
   64CHL1   H4B 7149   6.501   6.056  10.254 -0.7375  2.0906 -0.6243
   64CHL1    C5 7150   6.530   6.066  10.035  0.3148  0.3871 -0.5281
   64CHL1    C6 7151   6.399   6.039  10.014 -0.0355  0.4183  0.1000
   64CHL1    H6 7152   6.327   6.017  10.094  0.5128 -0.9496  0.2436
   64CHL1    C7 7153   6.349   6.034   9.872  0.3665  0.1327  0.9482
   64CHL1   H7A 7154   6.279   5.949   9.856  0.3322  0.4077 -0.4727
   64CHL1   H7B 7155   6.287   6.123   9.848 -1.4573 -1.7468 -2.0111
   64CHL1    C8 7156   6.455   6.015   9.764 -0.3817  0.0317  0.0979
   64CHL1    H8 7157   6.500   5.914   9.776  1.4418  0.5034 -2.0665
   64CHL1   C14 7158   6.385   6.027   9.630 -0.7797 -0.1381 -0.1930
   64CHL1   H14 7159   6.347   6.131   9.615 -0.9676 -0.4388 -2.0074
   64CHL1   C15 7160   6.269   5.935   9.596 -0.6070 -0.7992 -0.3196
   64CHL1  H15A 7161   6.291   5.834   9.636 -1.2552  0.1715  2.7386
   64CHL1  H15B 7162   6.182   5.971   9.655  0.6456 -0.6143  1.4866
   64CHL1   C16 7163   6.253   5.943   9.442  0.4212 -0.6826  0.0284
   64CHL1  H16A 7164   6.239   5.840   9.403 -1.1820 -0.3367 -0.3949
   64CHL1  H16B 7165   6.164   6.003   9.411  0.6169 -1.0495 -1.2782
   64CHL1   C17 7166   6.375   6.025   9.388  0.1138  0.8519 -0.1306
   64CHL1   H17 7167   6.339   6.129   9.371  1.0434  0.9470 -1.7153
   64CHL1   C13 7168   6.478   6.017   9.507 -0.1048  0.6844  0.7147
   64CHL1   C18 7169   6.523   5.866   9.494  0.3573 -0.7953 -0.1715
   64CHL1  H18A 7170   6.592   5.850   9.579 -1.1334 -0.5206  1.1306
   64CHL1  H18B 7171   6.448   5.785   9.495  0.7031 -1.1151 -0.1218
   64CHL1  H18C 7172   6.586   5.840   9.406  2.8349 -0.3199  1.3449
   64CHL1   C12 7173   6.591   6.118   9.523  0.0288  0.8022 -0.2391
   64CHL1  H12A 7174   6.671   6.106   9.447  1.3353 -1.2998  1.3366
   64CHL1  H12B 7175   6.557   6.223   9.534 -1.1846  0.2430  1.6486
   64CHL1   C11 7176   6.674   6.090   9.651 -0.3194 -0.2427 -0.1719
   64CHL1  H11A 7177   6.713   5.987   9.658  1.4898  0.4747  1.3495
   64CHL1  H11B 7178   6.754   6.166   9.667 -0.2521 -0.0769 -1.2228
   64CHL1    C9 7179   6.579   6.107   9.780 -0.9872 -0.4381 -0.5494
   64CHL1    H9 7180   6.551   6.215   9.780  2.3429  0.6803  3.4378
   64CHL1   C10 7181   6.640   6.087   9.927  0.5068  0.4724  0.5795
   64CHL1   C19 7182   6.737   5.963   9.921 -0.1365  0.1062  0.4372
   64CHL1  H19A 7183   6.812   5.982   9.841  1.0564 -1.7962  1.0459
   64CHL1  H19B 7184   6.791   5.951  10.017 -0.1073  0.7793  0.5051
   64CHL1  H19C 7185   6.694   5.865   9.891  1.0000 -0.7285  1.4486
   64CHL1    C1 7186   6.734   6.210   9.957  0.3351  0.5425  0.3423
   64CHL1   H1A 7187   6.821   6.203   9.888  0.5231  0.4247  0.5843
   64CHL1   H1B 7188   6.677   6.302   9.930 -0.6110  1.2140  4.0133
   64CHL1    C2 7189   6.779   6.222  10.106  0.3667  0.2989 -0.4055
   64CHL1   H2A 7190   6.820   6.324  10.120  0.0364  0.4682 -0.6402
   64CHL1   H2B 7191   6.863   6.152  10.124  0.1332  0.4141  1.2388
   64CHL1   C20 7192   6.412   5.989   9.239 -0.3449  0.2734  0.2408
   64CHL1   H20 7193   6.432   5.880   9.241 -0.1144  0.3230  0.6630
   64CHL1   C21 7194   6.537   6.064   9.196  0.1393 -0.2389 -0.2024
   64CHL1  H21A 7195   6.621   6.020   9.254 -0.7228 -1.7451 -0.0160
   64CHL1  H21B 7196   6.531   6.170   9.226  1.8073 -0.0882 -0.3205
   64CHL1  H21C 7197   6.548   6.063   9.085 -0.4048  0.2241 -0.2667
   64CHL1   C22 7198   6.289   6.001   9.146 -0.4529  0.0768  0.6722
   64CHL1  H22A 7199   6.212   5.933   9.188  0.2343 -0.3928  1.1809
   64CHL1  H22B 7200   6.245   6.104   9.144  0.5774  0.5227 -0.6633
   64CHL1   C23 7201   6.323   5.949   9.002  0.6426 -0.4875 -0.3227
   64CHL1  H23A 7202   6.365   6.040   8.953  0.6632 -0.6565 -0.6230
   64CHL1  H23B 7203   6.396   5.866   9.011  2.7259  1.1762 -1.0760
   64CHL1   C24 7204   6.201   5.888   8.938  0.0730 -0.9895 -0.7076
   64CHL1  H24A 7205   6.157   5.821   9.014 -0.3434  0.9301  0.8215
   64CHL1  H24B 7206   6.126   5.970   8.936  0.2827 -0.7850 -0.2092
   64CHL1   C25 7207   6.216   5.822   8.802  0.6554  0.6099 -0.1035
   64CHL1   H25 7208   6.262   5.892   8.729  1.6042 -0.1705 -0.2618
   64CHL1   C26 7209   6.287   5.694   8.819  0.2836 -0.2339  0.5237
   64CHL1  H26A 7210   6.390   5.713   8.858  0.4303 -0.1239  0.0830
   64CHL1  H26B 7211   6.224   5.623   8.877  4.2301 -1.6714  3.5462
   64CHL1  H26C 7212   6.298   5.651   8.718 -2.6722  0.9530 -0.4124
   64CHL1   C27 7213   6.075   5.790   8.750  0.3692  0.4181  0.4685
   64CHL1  H27A 7214   6.021   5.875   8.704  0.6002 -0.1344 -0.8852
   64CHL1  H27B 7215   6.080   5.710   8.673 -2.2462 -0.8711  1.5262
   64CHL1  H27C 7216   6.009   5.742   8.825 -0.4375  0.4724 -0.1945
   65CHL1    C3 7217   0.650   1.532  10.038 -0.2040  0.7882 -0.2269
   65CHL1    H3 7218   0.602   1.630  10.018 -1.9839  0.0001  0.0670
   65CHL1    O3 7219   0.641   1.511  10.176  0.2891  0.0200 -0.3762
   65CHL1   H3' 7220   0.549   1.502  10.202  0.9769 -1.0881  1.9463
   65CHL1    C4 7221   0.566   1.425   9.967 -0.1827 -0.6043  0.0450
   65CHL1   H4A 7222   0.601   1.326  10.002  1.0622  0.2486  1.3422
   65CHL1   H4B 7223   0.465   1.434  10.011  0.9672  0.5042  2.6640
   65CHL1    C5 7224   0.573   1.451   9.815 -0.4539  0.6187  1.1336
   65CHL1    C6 7225   0.467   1.471   9.744 -0.3314 -0.2546 -0.4233
   65CHL1    H6 7226   0.371   1.470   9.798 -0.4337  0.4887 -0.5827
   65CHL1    C7 7227   0.452   1.494   9.590 -0.3055 -0.3894  0.0640
   65CHL1   H7A 7228   0.367   1.445   9.539 -2.2403  2.2774  0.5544
   65CHL1   H7B 7229   0.443   1.605   9.585  1.1359 -0.2678 -0.2740
   65CHL1    C8 7230   0.587   1.454   9.524 -0.5198  0.0391  0.7109
   65CHL1    H8 7231   0.579   1.344   9.520 -1.4718  0.0984  0.5937
   65CHL1   C14 7232   0.594   1.511   9.386 -0.2640  0.5194  0.2103
   65CHL1   H14 7233   0.598   1.620   9.407 -1.5757  0.5285  0.5455
   65CHL1   C15 7234   0.474   1.486   9.291  0.6209  0.6108 -0.0108
   65CHL1  H15A 7235   0.461   1.376   9.303 -0.2796  0.4607 -1.9150
   65CHL1  H15B 7236   0.383   1.547   9.310  1.8109  2.9093 -1.2494
   65CHL1   C16 7237   0.539   1.502   9.156 -0.3096 -0.1665  0.7944
   65CHL1  H16A 7238   0.512   1.417   9.089 -0.7706  1.3105 -0.9678
   65CHL1  H16B 7239   0.494   1.589   9.104  1.4389 -0.5366 -1.5232
   65CHL1   C17 7240   0.688   1.536   9.183  0.8630  0.5996  0.4019
   65CHL1   H17 7241   0.690   1.642   9.216 -2.2642  0.4047  1.5378
   65CHL1   C13 7242   0.716   1.464   9.311 -0.5108  0.1137  0.2088
   65CHL1   C18 7243   0.731   1.306   9.290 -0.5206  0.5488  0.2108
   65CHL1  H18A 7244   0.761   1.259   9.387  0.5644 -2.6311 -1.5310
   65CHL1  H18B 7245   0.639   1.250   9.261 -0.0715 -0.8149  1.2862
   65CHL1  H18C 7246   0.814   1.288   9.218 -0.4523 -1.1633  0.6675
   65CHL1   C12 7247   0.845   1.516   9.372  0.4067  0.2715 -0.5063
   65CHL1  H12A 7248   0.941   1.487   9.325  0.3442 -1.0649  0.1407
   65CHL1  H12B 7249   0.838   1.627   9.376 -3.1534  0.2463 -1.9885
   65CHL1   C11 7250   0.849   1.472   9.524  0.8167 -0.7715 -0.0054
   65CHL1  H11A 7251   0.877   1.364   9.517 -0.5791 -1.4034  2.6886
   65CHL1  H11B 7252   0.936   1.510   9.580  1.2955 -0.0447 -1.2028
   65CHL1    C9 7253   0.716   1.498   9.605  0.1303 -0.8663  0.6612
   65CHL1    H9 7254   0.701   1.608   9.612  2.1187 -0.5819  0.9394
   65CHL1   C10 7255   0.721   1.450   9.752  0.9767 -0.1574 -0.2064
   65CHL1   C19 7256   0.769   1.301   9.754  0.8511  0.1053  0.5895
   65CHL1  H19A 7257   0.762   1.260   9.857 -1.6235  1.8439  1.2142
   65CHL1  H19B 7258   0.711   1.226   9.697  1.6667 -2.0700  2.4581
   65CHL1  H19C 7259   0.876   1.300   9.723  0.6983  0.4579  0.0484
   65CHL1    C1 7260   0.815   1.543   9.837 -0.4840 -0.4691 -0.0054
   65CHL1   H1A 7261   0.918   1.523   9.800 -0.2704 -1.6066  1.1429
   65CHL1   H1B 7262   0.783   1.648   9.816 -0.9668 -0.0864  2.3732
   65CHL1    C2 7263   0.792   1.512   9.986 -0.1854 -0.3696  0.4425
   65CHL1   H2A 7264   0.854   1.578  10.051 -1.7399  0.9658  0.6123
   65CHL1   H2B 7265   0.827   1.407   9.996 -1.9855 -1.2140 -1.4461
   65CHL1   C20 7266   0.783   1.513   9.069  0.3963 -0.3932  0.5191
   65CHL1   H20 7267   0.885   1.490   9.107  0.4244 -2.2772 -0.5753
   65CHL1   C21 7268   0.792   1.652   8.992 -0.1799 -0.0698 -0.2516
   65CHL1  H21A 7269   0.854   1.638   8.901  0.5726 -2.2146  0.5173
   65CHL1  H21B 7270   0.836   1.722   9.066 -1.3014  0.7141 -0.2947
   65CHL1  H21C 7271   0.688   1.674   8.959 -0.0245  0.7843 -0.1793
   65CHL1   C22 7272   0.742   1.389   8.969 -0.4257  0.2943  0.0877
   65CHL1  H22A 7273   0.716   1.296   9.026  1.2981 -2.7218 -3.6280
   65CHL1  H22B 7274   0.649   1.415   8.915 -0.3308 -0.6325 -0.5555
   65CHL1   C23 7275   0.834   1.351   8.852  0.4628 -0.0022 -0.4690
   65CHL1  H23A 7276   0.846   1.440   8.785  2.1038  0.0574 -0.1445
   65CHL1  H23B 7277   0.937   1.324   8.884 -0.4890 -0.8289  2.0779
   65CHL1   C24 7278   0.776   1.241   8.768 -0.3209  0.4642  0.2002
   65CHL1  H24A 7279   0.761   1.161   8.843 -0.3678 -0.0101 -0.3112
   65CHL1  H24B 7280   0.689   1.268   8.704  1.9106  1.2335 -2.7279
   65CHL1   C25 7281   0.871   1.177   8.660  0.6306  0.7195  0.1759
   65CHL1   H25 7282   0.956   1.143   8.724  0.2028  1.9689  1.4648
   65CHL1   C26 7283   0.802   1.053   8.602  0.1404  0.0429  0.3469
   65CHL1  H26A 7284   0.751   0.984   8.673 -0.6292  0.9999  0.7512
   65CHL1  H26B 7285   0.723   1.087   8.532 -1.6475 -0.1994  2.1491
   65CHL1  H26C 7286   0.882   0.994   8.551  0.3629  0.1689  0.5488
   65CHL1   C27 7287   0.921   1.274   8.551  0.5442 -0.3474 -0.9482
   65CHL1  H27A 7288   0.982   1.355   8.598 -1.1824  0.2659  0.3422
   65CHL1  H27B 7289   0.990   1.223   8.480  0.1359 -0.1975 -1.4602
   65CHL1  H27C 7290   0.836   1.330   8.506  0.8702  1.5100  0.6136
   66CHL1    C3 7291   6.152   0.271  10.562 -0.5214 -0.4235  0.4618
   66CHL1    H3 7292   6.261   0.274  10.541 -0.8447 -0.0136 -1.3511
   66CHL1    O3 7293   6.134   0.228  10.694  0.2784  0.1675  0.0380
   66CHL1   H3' 7294   6.039   0.230  10.709  0.1988 -0.8069 -0.2561
   66CHL1    C4 7295   6.082   0.404  10.544  0.2769 -0.5948  0.4901
   66CHL1   H4A 7296   5.979   0.400  10.585  0.3856  1.3894  1.0808
   66CHL1   H4B 7297   6.125   0.482  10.610  0.3773  1.2538 -1.6444
   66CHL1    C5 7298   6.074   0.445  10.402  0.1852  0.8004 -0.0147
   66CHL1    C6 7299   6.113   0.571  10.363  0.5253 -0.2583 -0.1615
   66CHL1    H6 7300   6.169   0.633  10.434  1.5878 -0.0679 -1.1439
   66CHL1    C7 7301   6.106   0.617  10.219  0.1435  0.1057 -0.1205
   66CHL1   H7A 7302   6.052   0.714  10.219 -1.2000 -0.6076  0.4926
   66CHL1   H7B 7303   6.204   0.627  10.169 -1.2580 -0.3768 -3.2043
   66CHL1    C8 7304   6.025   0.525  10.123  0.5284  0.1675  0.3006
   66CHL1    H8 7305   5.917   0.542  10.143  0.0444 -1.9327 -0.3598
   66CHL1   C14 7306   6.047   0.561   9.976 -0.2022 -0.2142  0.1845
   66CHL1   H14 7307   6.154   0.536   9.958 -0.0341  1.2855 -1.0721
   66CHL1   C15 7308   6.042   0.708   9.942  0.5548  0.3977  0.3837
   66CHL1  H15A 7309   5.956   0.769   9.976 -1.4166 -0.7397 -2.2213
   66CHL1  H15B 7310   6.136   0.748   9.984  1.6480 -0.4514 -1.1719
   66CHL1   C16 7311   6.046   0.703   9.789 -0.0047  0.2876 -0.0971
   66CHL1  H16A 7312   5.955   0.753   9.750 -0.2286  0.6172  0.8046
   66CHL1  H16B 7313   6.137   0.757   9.755  1.4224 -2.3394 -0.7449
   66CHL1   C17 7314   6.036   0.553   9.746 -0.4718 -0.2295 -0.0746
   66CHL1   H17 7315   6.143   0.524   9.732  0.4583  2.2875  1.2391
   66CHL1   C13 7316   5.982   0.479   9.868  0.2544 -0.3758 -0.0801
   66CHL1   C18 7317   5.827   0.481   9.863  0.4349  0.3284  0.3452
   66CHL1  H18A 7318   5.787   0.444   9.961 -0.0675  0.4436  0.1874
   66CHL1  H18B 7319   5.788   0.584   9.844  0.6610  0.3751  0.1325
   66CHL1  H18C 7320   5.786   0.414   9.786  1.4131 -1.3423  1.2236
   66CHL1   C12 7321   6.027   0.339   9.896  1.1159  0.4501  0.0823
   66CHL1  H12A 7322   5.970   0.273   9.828 -0.7163 -0.8385  2.7168
   66CHL1  H12B 7323   6.134   0.319   9.870  0.7028 -1.4307 -0.2981
   66CHL1   C11 7324   6.000   0.289  10.043  0.6205  0.0650  0.2200
   66CHL1  H11A 7325   5.891   0.272  10.053  0.6961 -0.2701  0.4932
   66CHL1  H11B 7326   6.048   0.189  10.051  1.5280  0.5368  0.8396
   66CHL1    C9 7327   6.050   0.375  10.154 -0.2549 -0.4293  0.1364
   66CHL1    H9 7328   6.161   0.372  10.154 -0.2099  0.5904 -0.2042
   66CHL1   C10 7329   6.010   0.339  10.302  0.0345 -0.0347  0.5894
   66CHL1   C19 7330   5.864   0.335  10.323  0.7023 -0.6123 -0.0579
   66CHL1  H19A 7331   5.835   0.300  10.424 -0.5507  0.4772 -0.0129
   66CHL1  H19B 7332   5.814   0.431  10.301 -0.6899 -1.8048 -2.5670
   66CHL1  H19C 7333   5.815   0.263  10.253  1.8920 -1.0421 -0.4757
   66CHL1    C1 7334   6.088   0.205  10.332  0.5369 -0.7916  0.1766
   66CHL1   H1A 7335   6.039   0.125  10.272  0.1153 -1.5022  1.4430
   66CHL1   H1B 7336   6.190   0.205  10.288 -0.6166 -0.1080 -2.7683
   66CHL1    C2 7337   6.082   0.173  10.482  0.4114  0.4597 -0.1059
   66CHL1   H2A 7338   6.132   0.075  10.493 -1.8210 -0.5496  1.8941
   66CHL1   H2B 7339   5.975   0.160  10.508  0.3407 -0.1041 -0.6565
   66CHL1   C20 7340   5.977   0.536   9.607  0.1691 -0.1134 -0.0536
   66CHL1   H20 7341   5.875   0.579   9.600 -0.4672 -1.5723  0.1038
   66CHL1   C21 7342   5.969   0.394   9.572  0.1928  0.0126  0.5956
   66CHL1  H21A 7343   5.921   0.367   9.475  1.5206 -0.2619 -0.0052
   66CHL1  H21B 7344   5.918   0.335   9.651  0.1729  0.4614  0.9221
   66CHL1  H21C 7345   6.070   0.349   9.560 -0.8944 -2.3559 -0.3156
   66CHL1   C22 7346   6.059   0.614   9.497 -0.7204  0.8499 -0.1940
   66CHL1  H22A 7347   6.087   0.719   9.523 -1.1379  0.7319  0.7635
   66CHL1  H22B 7348   6.151   0.556   9.477 -0.7010  1.5378 -2.4360
   66CHL1   C23 7349   5.987   0.608   9.360  0.1463 -0.3780  0.0243
   66CHL1  H23A 7350   5.987   0.503   9.325  0.5159  0.2020 -1.8390
   66CHL1  H23B 7351   5.887   0.656   9.359  0.1147 -0.4249 -1.0352
   66CHL1   C24 7352   6.073   0.678   9.255  0.2617  0.1702 -0.0204
   66CHL1  H24A 7353   6.122   0.768   9.298 -1.7498 -0.1494  3.2391
   66CHL1  H24B 7354   6.156   0.618   9.210  0.6066  0.4682  0.2080
   66CHL1   C25 7355   5.992   0.719   9.133  0.1109 -0.0685 -1.0107
   66CHL1   H25 7356   5.917   0.796   9.161  0.0769  0.0683 -1.4767
   66CHL1   C26 7357   6.089   0.783   9.040  0.2893 -0.0297  0.4646
   66CHL1  H26A 7358   6.160   0.703   9.010 -0.4624 -0.2338 -0.8087
   66CHL1  H26B 7359   6.035   0.833   8.957  3.1312  2.8764  0.1270
   66CHL1  H26C 7360   6.140   0.867   9.093  1.1356 -1.7052  2.3994
   66CHL1   C27 7361   5.913   0.601   9.073 -0.5297 -0.7312  0.2843
   66CHL1  H27A 7362   5.980   0.529   9.022 -0.9635 -1.1050  0.2447
   66CHL1  H27B 7363   5.853   0.546   9.149 -0.6303 -1.7785 -0.5314
   66CHL1  H27C 7364   5.857   0.640   8.986  2.7081 -0.6368 -1.9370
   67CHL1    C3 7365   4.247   2.274  10.032 -1.0559  0.6010  0.4559
   67CHL1    H3 7366   4.167   2.204  10.000 -0.7733  1.0690 -1.3764
   67CHL1    O3 7367   4.260   2.275  10.174  0.4528 -0.1077  0.5527
   67CHL1   H3' 7368   4.318   2.349  10.193 -0.0775  0.1019  1.4625
   67CHL1    C4 7369   4.388   2.229   9.965  0.4159 -0.0267 -0.2301
   67CHL1   H4A 7370   4.473   2.289  10.003  0.7628 -0.2743 -0.6065
   67CHL1   H4B 7371   4.400   2.122   9.992  2.0015  0.5143  1.4109
   67CHL1    C5 7372   4.379   2.250   9.817  0.3543  0.3268  0.4320
   67CHL1    C6 7373   4.398   2.149   9.734  0.2479 -0.3542  0.1815
   67CHL1    H6 7374   4.411   2.049   9.779 -1.8424 -0.0988  1.4818
   67CHL1    C7 7375   4.404   2.155   9.581 -0.8570 -0.6257 -0.3021
   67CHL1   H7A 7376   4.492   2.095   9.548 -0.1581  0.7531 -1.0436
   67CHL1   H7B 7377   4.321   2.116   9.519 -0.0531  0.8337 -2.4340
   67CHL1    C8 7378   4.418   2.307   9.541 -0.0396  0.1639  0.3815
   67CHL1    H8 7379   4.522   2.332   9.571  0.9003 -2.8061 -0.0742
   67CHL1   C14 7380   4.394   2.313   9.398 -0.1186 -1.1395  0.9241
   67CHL1   H14 7381   4.286   2.289   9.387 -0.3221 -0.5970  1.6507
   67CHL1   C15 7382   4.481   2.219   9.310 -0.8068 -0.6751  0.3155
   67CHL1  H15A 7383   4.586   2.237   9.339 -1.1291 -0.9880  1.7962
   67CHL1  H15B 7384   4.472   2.109   9.328  0.8776 -0.4722  2.9713
   67CHL1   C16 7385   4.447   2.264   9.166  0.3018 -0.2661  0.5058
   67CHL1  H16A 7386   4.536   2.272   9.100 -0.3600  1.6952 -0.2148
   67CHL1  H16B 7387   4.368   2.206   9.113  1.3082 -0.2166 -1.1180
   67CHL1   C17 7388   4.385   2.410   9.173 -0.6305 -0.2745 -0.9369
   67CHL1   H17 7389   4.276   2.398   9.156 -0.9544 -1.1153  1.3199
   67CHL1   C13 7390   4.397   2.456   9.327 -0.5326  0.0618  0.5313
   67CHL1   C18 7391   4.540   2.522   9.354  0.1083 -0.1561 -0.4934
   67CHL1  H18A 7392   4.542   2.628   9.322  1.1870  0.1741  0.5753
   67CHL1  H18B 7393   4.562   2.520   9.463 -2.0388  3.1221  0.1353
   67CHL1  H18C 7394   4.614   2.472   9.287 -0.7788 -0.8620 -0.9739
   67CHL1   C12 7395   4.285   2.536   9.392 -0.1085 -0.2939  1.0474
   67CHL1  H12A 7396   4.284   2.635   9.343 -1.6815 -1.0389 -0.5408
   67CHL1  H12B 7397   4.189   2.483   9.373  0.2109 -0.3965 -0.3797
   67CHL1   C11 7398   4.309   2.541   9.542 -0.4379 -0.0638 -0.3380
   67CHL1  H11A 7399   4.406   2.591   9.561 -0.2421 -1.0371  1.4648
   67CHL1  H11B 7400   4.234   2.604   9.594  2.4905  2.1854  1.4853
   67CHL1    C9 7401   4.313   2.395   9.611  0.2984 -0.1749  0.6523
   67CHL1    H9 7402   4.212   2.352   9.595 -1.7150  4.7025 -1.7594
   67CHL1   C10 7403   4.340   2.393   9.765 -0.9222  0.2993  0.2680
   67CHL1   C19 7404   4.447   2.496   9.795  0.4566  0.3416  1.0038
   67CHL1  H19A 7405   4.394   2.589   9.769 -2.3862 -1.4920 -0.1951
   67CHL1  H19B 7406   4.463   2.489   9.905  0.4375 -0.0326  0.9852
   67CHL1  H19C 7407   4.535   2.482   9.728  0.4531  0.7114  0.9220
   67CHL1    C1 7408   4.208   2.430   9.839 -0.4421 -0.1927  0.0756
   67CHL1   H1A 7409   4.170   2.532   9.815  0.0153  0.3591  1.5701
   67CHL1   H1B 7410   4.140   2.353   9.798 -1.0109  0.8832 -1.0735
   67CHL1    C2 7411   4.210   2.409   9.992  0.3038  0.6495 -0.4519
   67CHL1   H2A 7412   4.107   2.425  10.031  0.8211  0.2738  1.1116
   67CHL1   H2B 7413   4.280   2.484  10.035 -0.0529 -0.8077  2.8960
   67CHL1   C20 7414   4.422   2.504   9.059 -0.0924 -0.1930  0.5581
   67CHL1   H20 7415   4.533   2.499   9.062  0.0271  1.1545 -0.3412
   67CHL1   C21 7416   4.388   2.659   9.080  0.3032  0.5426  0.7656
   67CHL1  H21A 7417   4.429   2.699   9.175  2.3757  1.8263 -0.5694
   67CHL1  H21B 7418   4.279   2.674   9.067  0.1906 -0.3810  0.5397
   67CHL1  H21C 7419   4.433   2.715   8.995 -0.5648 -0.8728 -0.6751
   67CHL1   C22 7420   4.379   2.450   8.918 -0.0631 -0.2956 -0.5830
   67CHL1  H22A 7421   4.437   2.513   8.847  0.8484  0.4947  0.8097
   67CHL1  H22B 7422   4.417   2.348   8.899 -1.3705 -0.6588 -1.3253
   67CHL1   C23 7423   4.233   2.450   8.878  0.4388  0.2942 -0.0228
   67CHL1  H23A 7424   4.172   2.382   8.942 -0.1434  0.9950  0.1755
   67CHL1  H23B 7425   4.193   2.551   8.900 -0.8886 -0.6377  2.2048
   67CHL1   C24 7426   4.221   2.396   8.737 -0.2950  0.6424 -0.0558
   67CHL1  H24A 7427   4.263   2.474   8.669 -1.0549  1.8558  0.8257
   67CHL1  H24B 7428   4.277   2.302   8.720  1.0752  0.7781  3.1904
   67CHL1   C25 7429   4.079   2.382   8.692  0.3355 -1.0061  0.8449
   67CHL1   H25 7430   4.028   2.480   8.708  0.9099 -0.5551 -0.0054
   67CHL1   C26 7431   4.078   2.341   8.547 -0.3541  0.1736 -0.3817
   67CHL1  H26A 7432   4.137   2.247   8.544  1.4345  1.2542 -2.0266
   67CHL1  H26B 7433   3.978   2.333   8.499 -0.0465  0.0049 -1.0092
   67CHL1  H26C 7434   4.148   2.403   8.486  1.1805 -0.6188  0.4919
   67CHL1   C27 7435   4.003   2.279   8.766 -0.2710  0.4211 -0.2370
   67CHL1  H27A 7436   4.052   2.180   8.752  0.3369  0.7965 -0.8473
   67CHL1  H27B 7437   3.987   2.306   8.872 -1.4798 -4.2916  1.0270
   67CHL1  H27C 7438   3.904   2.272   8.717 -1.0263  1.3094  1.1021
   68CHL1    C3 7439   6.505   2.994  10.086  0.2359 -0.3092 -0.0333
   68CHL1    H3 7440   6.395   2.994  10.076  0.1430 -1.7398  0.6717
   68CHL1    O3 7441   6.544   2.996  10.226 -0.1083 -0.1861  0.2392
   68CHL1   H3' 7442   6.512   2.920  10.274 -0.6902  1.7282  3.1591
   68CHL1    C4 7443   6.561   2.865  10.017  0.2857 -0.0968  0.4598
   68CHL1   H4A 7444   6.669   2.865  10.042  0.6265  1.0927 -0.8649
   68CHL1   H4B 7445   6.525   2.777  10.075 -0.9831 -1.0474 -1.6563
   68CHL1    C5 7446   6.560   2.854   9.867  0.6872  0.7817 -0.9481
   68CHL1    C6 7447   6.502   2.748   9.808 -0.3610 -0.1891 -0.4521
   68CHL1    H6 7448   6.455   2.663   9.861  1.3172 -1.3583 -0.7508
   68CHL1    C7 7449   6.489   2.732   9.665  0.2037 -0.2436  0.6116
   68CHL1   H7A 7450   6.521   2.632   9.627 -2.8710 -0.8767 -0.5675
   68CHL1   H7B 7451   6.382   2.748   9.642 -0.8685 -0.3193  4.7626
   68CHL1    C8 7452   6.576   2.833   9.580 -0.1613 -0.0172  0.0841
   68CHL1    H8 7453   6.682   2.799   9.572  0.5245  2.1548 -0.7164
   68CHL1   C14 7454   6.518   2.844   9.445  0.7194  0.0692  0.2023
   68CHL1   H14 7455   6.421   2.897   9.452  1.2064  0.8531  1.2636
   68CHL1   C15 7456   6.487   2.715   9.368 -0.0531  1.2647 -0.1847
   68CHL1  H15A 7457   6.567   2.641   9.389 -0.6139  0.4094 -0.9687
   68CHL1  H15B 7458   6.407   2.653   9.415  0.9416  0.9311  1.0995
   68CHL1   C16 7459   6.463   2.754   9.219 -0.1031  0.1727 -0.3851
   68CHL1  H16A 7460   6.531   2.685   9.165  1.1290 -0.9018  2.3321
   68CHL1  H16B 7461   6.362   2.753   9.174  0.4030  1.4888 -1.5837
   68CHL1   C17 7462   6.530   2.898   9.212 -0.0799  0.3767 -0.3441
   68CHL1   H17 7463   6.448   2.973   9.217  2.5486  3.4786 -0.6372
   68CHL1   C13 7464   6.609   2.925   9.350  0.4054  0.2892  0.2661
   68CHL1   C18 7465   6.750   2.846   9.339 -0.1399 -0.3051  0.0460
   68CHL1  H18A 7466   6.821   2.878   9.260 -1.7969 -1.4544 -2.0203
   68CHL1  H18B 7467   6.800   2.864   9.436 -0.8454 -1.1925  0.5937
   68CHL1  H18C 7468   6.735   2.737   9.325  2.2497 -0.7735  0.6835
   68CHL1   C12 7469   6.619   3.071   9.402 -0.2955 -0.4589  0.5735
   68CHL1  H12A 7470   6.703   3.120   9.349 -0.9084 -2.1391 -2.1290
   68CHL1  H12B 7471   6.525   3.121   9.369  0.3460  0.2116 -0.2671
   68CHL1   C11 7472   6.651   3.073   9.552 -0.5351  0.3567 -0.0648
   68CHL1  H11A 7473   6.757   3.041   9.550 -1.0969 -1.6658  0.1519
   68CHL1  H11B 7474   6.656   3.176   9.592 -0.2529 -0.2317  1.4660
   68CHL1    C9 7475   6.573   2.970   9.641 -0.4160 -0.2497 -0.0928
   68CHL1    H9 7476   6.467   3.003   9.639  0.3110  3.3256  3.9648
   68CHL1   C10 7477   6.613   2.975   9.791 -0.1679  0.0992  0.1935
   68CHL1   C19 7478   6.769   2.968   9.809  0.5550  0.5454  0.3274
   68CHL1  H19A 7479   6.812   3.060   9.763  0.8040 -0.3098 -1.2348
   68CHL1  H19B 7480   6.802   2.963   9.915  1.9904 -0.2287 -0.1323
   68CHL1  H19C 7481   6.813   2.881   9.756  2.5396  1.7249 -0.0490
   68CHL1    C1 7482   6.545   3.101   9.860 -0.0015 -0.1732  0.2963
   68CHL1   H1A 7483   6.583   3.194   9.812  1.1804 -0.6966  0.1659
   68CHL1   H1B 7484   6.436   3.100   9.844 -0.2319  0.7590  1.6162
   68CHL1    C2 7485   6.562   3.118  10.014 -0.3090 -0.3396  0.5936
   68CHL1   H2A 7486   6.511   3.212  10.043  0.6184  0.0373  1.0391
   68CHL1   H2B 7487   6.666   3.122  10.050 -0.4015 -3.7047  1.5685
   68CHL1   C20 7488   6.607   2.932   9.082  0.2228 -0.3151 -1.0270
   68CHL1   H20 7489   6.711   2.893   9.090 -0.1513 -0.9798  1.3388
   68CHL1   C21 7490   6.627   3.083   9.075  0.0814  0.1457 -0.1231
   68CHL1  H21A 7491   6.706   3.112   9.148 -1.7673 -0.0965  2.0680
   68CHL1  H21B 7492   6.532   3.138   9.091 -0.4021 -1.1497  1.9076
   68CHL1  H21C 7493   6.658   3.113   8.973  2.8930  1.2462  0.9338
   68CHL1   C22 7494   6.534   2.878   8.960 -0.2502  0.2748 -0.1430
   68CHL1  H22A 7495   6.516   2.770   8.975 -0.5218  0.1366 -1.3385
   68CHL1  H22B 7496   6.443   2.941   8.949  0.3434  0.8278 -2.7006
   68CHL1   C23 7497   6.615   2.879   8.833  0.2740 -0.0924 -0.9761
   68CHL1  H23A 7498   6.665   2.977   8.816  2.3204 -0.3573  2.4846
   68CHL1  H23B 7499   6.685   2.793   8.839  1.2876  0.7726 -0.0108
   68CHL1   C24 7500   6.535   2.860   8.700  0.2022  0.0520 -0.6349
   68CHL1  H24A 7501   6.453   2.785   8.714  0.5567  0.0374  1.7135
   68CHL1  H24B 7502   6.493   2.958   8.669 -0.4648 -0.7575 -2.4162
   68CHL1   C25 7503   6.626   2.801   8.594  0.6108 -0.3220  0.4626
   68CHL1   H25 7504   6.695   2.728   8.642 -1.0429 -2.4958 -0.2915
   68CHL1   C26 7505   6.545   2.722   8.488 -0.5389  1.1639 -0.0822
   68CHL1  H26A 7506   6.613   2.698   8.404 -0.8345  0.0201 -0.0167
   68CHL1  H26B 7507   6.497   2.629   8.527 -0.5583  0.6898 -1.2004
   68CHL1  H26C 7508   6.456   2.776   8.449 -0.0805  1.4136 -0.7948
   68CHL1   C27 7509   6.702   2.913   8.515  0.2062  0.1007 -1.1566
   68CHL1  H27A 7510   6.749   2.864   8.427  0.3489  0.9125 -1.5458
   68CHL1  H27B 7511   6.629   2.991   8.485 -0.4830 -0.1658 -0.1955
   68CHL1  H27C 7512   6.774   2.969   8.579  1.1833 -1.2780 -1.0063
   69CHL1    C3 7513   0.925   6.854   6.814 -0.0410  0.1293  0.4981
   69CHL1    H3 7514   0.883   6.751   6.808 -0.0884  0.0150  2.1691
   69CHL1    O3 7515   0.942   6.901   6.684  0.5954  0.3209 -0.3239
   69CHL1   H3' 7516   0.854   6.903   6.645  0.6665  1.4490 -0.4650
   69CHL1    C4 7517   0.857   6.954   6.900 -0.3799  0.2453  0.2290
   69CHL1   H4A 7518   0.912   7.051   6.894 -1.1045  0.7922  1.9568
   69CHL1   H4B 7519   0.760   6.977   6.852 -0.1778  0.7132  0.0379
   69CHL1    C5 7520   0.849   6.888   7.035  0.1237 -0.6459  0.3398
   69CHL1    C6 7521   0.728   6.871   7.087  0.3926  0.6857  0.3372
   69CHL1    H6 7522   0.638   6.896   7.029  1.0441 -0.4531 -1.2350
   69CHL1    C7 7523   0.703   6.819   7.226 -0.2652 -0.2067 -0.4511
   69CHL1   H7A 7524   0.609   6.871   7.255 -0.8944  0.3029 -3.1172
   69CHL1   H7B 7525   0.663   6.716   7.218 -1.7428  0.2273  0.8319
   69CHL1    C8 7526   0.832   6.835   7.312 -0.4595  0.6432 -0.3954
   69CHL1    H8 7527   0.835   6.944   7.335  0.0653 -0.1340  4.2397
   69CHL1   C14 7528   0.810   6.762   7.441 -0.3397  0.8573  0.0334
   69CHL1   H14 7529   0.798   6.653   7.422  1.5946  0.5566  0.2653
   69CHL1   C15 7530   0.689   6.801   7.528 -0.0590  0.2974 -0.4203
   69CHL1  H15A 7531   0.702   6.909   7.551 -0.2331  0.1365  0.4687
   69CHL1  H15B 7532   0.592   6.782   7.479  0.3842  0.7354 -1.4981
   69CHL1   C16 7533   0.715   6.730   7.657 -0.4217 -0.1121  0.5157
   69CHL1  H16A 7534   0.687   6.790   7.746  0.2809  1.7404 -0.4657
   69CHL1  H16B 7535   0.660   6.634   7.646  0.0511 -0.4789  1.2670
   69CHL1   C17 7536   0.867   6.691   7.661 -0.2927 -0.3118  0.1470
   69CHL1   H17 7537   0.865   6.584   7.631 -1.1046 -0.4181  0.5635
   69CHL1   C13 7538   0.929   6.762   7.531  0.1505  0.7382 -0.0924
   69CHL1   C18 7539   0.971   6.910   7.556  0.3642  0.4735  0.3308
   69CHL1  H18A 7540   0.896   6.949   7.628 -0.7085 -0.9248  0.0168
   69CHL1  H18B 7541   1.073   6.912   7.600  1.5974 -2.0852 -2.0651
   69CHL1  H18C 7542   0.966   6.986   7.475  0.0434  1.0457  0.8767
   69CHL1   C12 7543   1.049   6.691   7.465 -0.1320  0.6990  0.1402
   69CHL1  H12A 7544   1.140   6.678   7.528 -0.4586 -1.5914  0.2288
   69CHL1  H12B 7545   1.025   6.589   7.426  1.1268  0.2417  0.4809
   69CHL1   C11 7546   1.078   6.762   7.328 -1.1811  0.2333  0.4092
   69CHL1  H11A 7547   1.122   6.861   7.351  2.0944 -0.8638 -0.5593
   69CHL1  H11B 7548   1.156   6.701   7.276 -0.1284  0.9418  1.1163
   69CHL1    C9 7549   0.955   6.777   7.237 -0.6400  0.5706  0.4893
   69CHL1    H9 7550   0.926   6.678   7.197  1.0440  1.4629 -3.4965
   69CHL1   C10 7551   0.981   6.855   7.101  0.1791  0.8166 -0.3286
   69CHL1   C19 7552   1.055   6.993   7.133  0.1646 -0.4322  0.5882
   69CHL1  H19A 7553   1.015   7.052   7.218 -0.5552 -1.6775  1.1452
   69CHL1  H19B 7554   1.156   6.972   7.173  0.0673 -0.9462  0.5836
   69CHL1  H19C 7555   1.069   7.059   7.045 -0.7424  1.7918  2.0344
   69CHL1    C1 7556   1.081   6.779   7.007 -0.3760  0.8515 -0.7114
   69CHL1   H1A 7557   1.187   6.804   7.031 -0.5418  1.3631 -0.4989
   69CHL1   H1B 7558   1.063   6.670   6.998  1.3449  0.6175 -1.8559
   69CHL1    C2 7559   1.067   6.823   6.857  0.0944 -0.4425  0.0151
   69CHL1   H2A 7560   1.124   6.755   6.790 -0.7887 -1.1737 -0.0046
   69CHL1   H2B 7561   1.119   6.921   6.861 -0.9134  0.0727  2.5100
   69CHL1   C20 7562   0.937   6.710   7.797  0.4779 -0.3950  0.3068
   69CHL1   H20 7563   0.924   6.818   7.821 -0.5632 -0.3208 -0.5322
   69CHL1   C21 7564   1.092   6.689   7.793  0.0212 -0.0009  0.2322
   69CHL1  H21A 7565   1.109   6.599   7.730 -2.9351 -0.5802  0.0937
   69CHL1  H21B 7566   1.143   6.699   7.891  2.1272  1.4388 -0.9383
   69CHL1  H21C 7567   1.136   6.772   7.734  1.5211 -1.5931 -1.0075
   69CHL1   C22 7568   0.864   6.623   7.899 -0.0494 -0.0169 -0.6326
   69CHL1  H22A 7569   0.754   6.636   7.885 -0.3447 -0.8661  0.6693
   69CHL1  H22B 7570   0.890   6.516   7.884 -0.0218 -0.0869 -0.1105
   69CHL1   C23 7571   0.906   6.648   8.049 -0.3058  0.5800 -0.2453
   69CHL1  H23A 7572   1.015   6.633   8.066 -0.3550 -1.5312 -1.4009
   69CHL1  H23B 7573   0.883   6.755   8.067 -0.7948  0.7061 -1.4696
   69CHL1   C24 7574   0.838   6.551   8.149 -0.4253 -0.3881 -0.3691
   69CHL1  H24A 7575   0.727   6.558   8.139 -0.4417  2.4341  0.9444
   69CHL1  H24B 7576   0.882   6.449   8.140 -0.5071 -0.7894  2.8261
   69CHL1   C25 7577   0.871   6.590   8.291 -0.5445 -0.1139  0.4327
   69CHL1   H25 7578   0.799   6.534   8.354 -0.3214 -1.5634 -0.5527
   69CHL1   C26 7579   1.005   6.535   8.342 -0.3125  0.3099 -0.0932
   69CHL1  H26A 7580   1.085   6.595   8.293  0.2477 -1.0459 -0.8606
   69CHL1  H26B 7581   1.020   6.540   8.452 -1.0551 -0.3684  0.0436
   69CHL1  H26C 7582   1.017   6.427   8.322  0.6296  0.1366  1.2446
   69CHL1   C27 7583   0.852   6.739   8.322 -0.7181  0.3269 -0.8217
   69CHL1  H27A 7584   0.920   6.808   8.267  0.2778  0.0446  0.0334
   69CHL1  H27B 7585   0.746   6.766   8.300 -1.2379 -0.7791  0.2360
   69CHL1  H27C 7586   0.875   6.759   8.429 -0.1737 -3.0713 -0.2155
   70CHL1    C3 7587   1.866   2.578   7.115  0.2054  0.2888  0.4637
   70CHL1    H3 7588   1.974   2.555   7.112  0.1921  0.2830 -0.7891
   70CHL1    O3 7589   1.810   2.568   6.982  0.5369 -0.4240  0.1784
   70CHL1   H3' 7590   1.852   2.617   6.911  0.6817 -1.4774 -0.4911
   70CHL1    C4 7591   1.797   2.475   7.208  0.1514  0.0240  0.5432
   70CHL1   H4A 7592   1.689   2.500   7.206  0.4380  1.5445  1.8615
   70CHL1   H4B 7593   1.802   2.372   7.167  0.1117  1.2237 -2.8301
   70CHL1    C5 7594   1.839   2.482   7.355  0.0610  0.2987 -0.1121
   70CHL1    C6 7595   1.892   2.373   7.412 -0.1737 -0.2872  0.2083
   70CHL1    H6 7596   1.882   2.281   7.352  1.1218 -0.1149 -0.2968
   70CHL1    C7 7597   1.956   2.377   7.546  0.0817 -0.4507 -0.3211
   70CHL1   H7A 7598   1.922   2.288   7.603 -0.8472 -0.6322 -1.1165
   70CHL1   H7B 7599   2.065   2.383   7.524  0.3979  0.7686  1.4429
   70CHL1    C8 7600   1.919   2.501   7.636 -0.2188 -0.1112 -0.5555
   70CHL1    H8 7601   1.813   2.482   7.664  0.4995 -1.8647  1.2313
   70CHL1   C14 7602   2.006   2.508   7.766  0.2704 -0.0607  0.0790
   70CHL1   H14 7603   2.107   2.522   7.722  0.5854 -1.3045  0.3798
   70CHL1   C15 7604   2.019   2.386   7.866 -0.6903  0.0687 -0.0409
   70CHL1  H15A 7605   1.917   2.344   7.875 -1.3728  1.6095 -0.2358
   70CHL1  H15B 7606   2.090   2.318   7.815  0.3106  0.9516  0.1411
   70CHL1   C16 7607   2.086   2.444   7.994 -1.0743  0.6258 -0.1472
   70CHL1  H16A 7608   2.041   2.395   8.083 -0.1822  1.2770  0.6833
   70CHL1  H16B 7609   2.194   2.420   7.999 -0.7535  2.0805  0.4624
   70CHL1   C17 7610   2.064   2.604   7.981 -0.3461  0.2221 -0.2224
   70CHL1   H17 7611   2.154   2.650   7.935 -0.2130 -0.4050 -0.6112
   70CHL1   C13 7612   1.962   2.625   7.855 -0.5609  0.4364 -0.3112
   70CHL1   C18 7613   1.812   2.612   7.904 -0.5375 -0.3610 -0.9718
   70CHL1  H18A 7614   1.789   2.512   7.949  3.3241 -0.7037  0.5887
   70CHL1  H18B 7615   1.804   2.699   7.973 -0.4869  0.3014 -1.7904
   70CHL1  H18C 7616   1.745   2.639   7.819  2.1796  3.7011 -2.0769
   70CHL1   C12 7617   1.978   2.758   7.780  0.3490 -0.9466 -0.1467
   70CHL1  H12A 7618   1.945   2.845   7.841  0.9379  0.1113 -1.2772
   70CHL1  H12B 7619   2.087   2.775   7.767  0.9335 -2.4991  2.0880
   70CHL1   C11 7620   1.908   2.757   7.643  0.2320 -0.4388  0.8544
   70CHL1  H11A 7621   1.799   2.755   7.662  0.2916 -1.8145  1.1071
   70CHL1  H11B 7622   1.938   2.853   7.595  1.4335  0.5907  3.4650
   70CHL1    C9 7623   1.929   2.629   7.549 -0.3801  0.0507 -0.3427
   70CHL1    H9 7624   2.035   2.637   7.516  0.6163 -1.0827  2.3360
   70CHL1   C10 7625   1.848   2.622   7.418  0.1852  0.1896  0.1543
   70CHL1   C19 7626   1.704   2.664   7.447  0.4983 -1.2472 -0.0765
   70CHL1  H19A 7627   1.702   2.765   7.493 -1.3305 -0.1374 -2.4134
   70CHL1  H19B 7628   1.633   2.644   7.364 -0.2074  1.5712 -0.2552
   70CHL1  H19C 7629   1.663   2.599   7.527  0.1414 -0.7819  0.1235
   70CHL1    C1 7630   1.909   2.724   7.312  0.0081  0.2272  0.4629
   70CHL1   H1A 7631   1.906   2.823   7.362 -2.8917  0.3774  0.1339
   70CHL1   H1B 7632   2.016   2.695   7.299 -0.5117 -1.3967 -0.4460
   70CHL1    C2 7633   1.848   2.721   7.171 -0.5795  0.3756 -0.5906
   70CHL1   H2A 7634   1.895   2.794   7.102  2.6485 -1.1818 -0.2265
   70CHL1   H2B 7635   1.739   2.743   7.168 -0.3383  1.5389 -3.0099
   70CHL1   C20 7636   2.048   2.679   8.113 -0.4012  0.0158  0.1835
   70CHL1   H20 7637   1.947   2.652   8.153 -1.2908  1.0209 -1.2905
   70CHL1   C21 7638   2.049   2.828   8.091 -0.4790  0.2040  0.7305
   70CHL1  H21A 7639   2.068   2.880   8.188 -1.8146  2.7949 -0.2966
   70CHL1  H21B 7640   1.954   2.861   8.046  0.9438  2.4728 -0.8129
   70CHL1  H21C 7641   2.130   2.844   8.017  0.6519 -0.7864  1.7030
   70CHL1   C22 7642   2.159   2.638   8.214  0.4167  0.0929 -0.7016
   70CHL1  H22A 7643   2.174   2.528   8.207 -0.7575 -0.0267 -1.7258
   70CHL1  H22B 7644   2.255   2.686   8.186  0.8094  1.2919  2.2618
   70CHL1   C23 7645   2.135   2.668   8.363 -0.0555  0.5178 -0.1107
   70CHL1  H23A 7646   2.113   2.777   8.373 -0.4836  0.3208  1.3895
   70CHL1  H23B 7647   2.040   2.625   8.403  0.2775  0.8353  1.0847
   70CHL1   C24 7648   2.262   2.632   8.447  0.6146 -0.5596  0.4848
   70CHL1  H24A 7649   2.308   2.532   8.437  1.5727 -0.0588 -0.2305
   70CHL1  H24B 7650   2.340   2.707   8.421  0.3215 -0.1220  0.8460
   70CHL1   C25 7651   2.234   2.638   8.601  0.4952  0.6230  0.2862
   70CHL1   H25 7652   2.150   2.571   8.628  0.1788 -0.1414 -2.2960
   70CHL1   C26 7653   2.359   2.594   8.685  0.6585  0.4732 -0.3273
   70CHL1  H26A 7654   2.336   2.590   8.794  0.2999  0.3937 -0.4026
   70CHL1  H26B 7655   2.391   2.495   8.646  0.6817 -0.0402  0.9516
   70CHL1  H26C 7656   2.439   2.670   8.672 -0.8413  2.0015 -1.1978
   70CHL1   C27 7657   2.190   2.774   8.640  0.2700 -0.3097 -0.5849
   70CHL1  H27A 7658   2.171   2.798   8.747  0.8681  2.3789 -1.0041
   70CHL1  H27B 7659   2.282   2.835   8.620  0.8027 -0.7939  0.3360
   70CHL1  H27C 7660   2.099   2.796   8.581  0.6084 -1.5540 -1.6115
   71CHL1    C3 7661   0.734   4.183   6.803 -0.2502 -0.0716 -0.3643
   71CHL1    H3 7662   0.636   4.131   6.807  0.0875 -0.6482  0.8480
   71CHL1    O3 7663   0.751   4.225   6.664  0.5181  0.2303  0.0149
   71CHL1   H3' 7664   0.832   4.275   6.651 -0.6096  1.7113 -2.1122
   71CHL1    C4 7665   0.716   4.310   6.887  0.6108  0.0447 -0.2870
   71CHL1   H4A 7666   0.804   4.377   6.872  2.0345 -1.5943  0.4437
   71CHL1   H4B 7667   0.628   4.359   6.841  0.2463 -0.6812 -0.3748
   71CHL1    C5 7668   0.700   4.283   7.029  0.2684  0.1666 -0.0676
   71CHL1    C6 7669   0.585   4.312   7.094 -0.5204  0.0280 -0.7207
   71CHL1    H6 7670   0.509   4.374   7.042  0.0785 -0.0839 -1.7625
   71CHL1    C7 7671   0.567   4.293   7.235  0.3942 -0.1878 -0.0463
   71CHL1   H7A 7672   0.531   4.381   7.291 -0.9040 -0.7874  0.0998
   71CHL1   H7B 7673   0.499   4.207   7.255 -0.1569  0.1564 -0.4202
   71CHL1    C8 7674   0.699   4.257   7.307 -0.4131 -0.4064 -0.3466
   71CHL1    H8 7675   0.756   4.351   7.320  1.4578 -1.5564  0.0949
   71CHL1   C14 7676   0.674   4.202   7.445 -0.4517  1.0608  0.0337
   71CHL1   H14 7677   0.625   4.102   7.443  2.0940 -0.2960  0.8829
   71CHL1   C15 7678   0.581   4.283   7.534 -0.1163  0.6978 -0.1450
   71CHL1  H15A 7679   0.610   4.390   7.523  1.3640  0.0904 -3.1232
   71CHL1  H15B 7680   0.473   4.288   7.506 -1.5208 -1.3410  4.0917
   71CHL1   C16 7681   0.611   4.229   7.669 -0.2722 -0.1029 -0.2401
   71CHL1  H16A 7682   0.624   4.323   7.727 -1.7519 -0.2857  0.4355
   71CHL1  H16B 7683   0.526   4.168   7.705 -0.6368 -0.8052 -2.1614
   71CHL1   C17 7684   0.726   4.134   7.664 -0.3059 -0.6147  0.9427
   71CHL1   H17 7685   0.684   4.031   7.663 -1.6795 -0.0717  0.5302
   71CHL1   C13 7686   0.797   4.165   7.530  0.3673 -0.1105  0.7136
   71CHL1   C18 7687   0.897   4.282   7.542  0.0104  0.8181 -0.1805
   71CHL1  H18A 7688   0.994   4.237   7.574 -0.7955 -0.2218  0.8794
   71CHL1  H18B 7689   0.920   4.324   7.442  2.3098  0.2537  0.0583
   71CHL1  H18C 7690   0.872   4.364   7.613 -1.0600  1.3561 -1.1517
   71CHL1   C12 7691   0.863   4.048   7.458 -0.4853 -0.1312  0.7960
   71CHL1  H12A 7692   0.958   4.025   7.511  0.0842  1.8508  0.6858
   71CHL1  H12B 7693   0.789   3.966   7.464 -0.7014  0.1739  2.7915
   71CHL1   C11 7694   0.902   4.084   7.310  0.3540  0.4462 -0.6217
   71CHL1  H11A 7695   0.997   4.140   7.323 -0.2572  1.7492 -1.5244
   71CHL1  H11B 7696   0.933   3.995   7.251 -1.1456 -0.0667 -0.6953
   71CHL1    C9 7697   0.780   4.154   7.234 -0.0241  0.3691  0.4243
   71CHL1    H9 7698   0.706   4.072   7.222 -0.1244  0.6669 -1.2912
   71CHL1   C10 7699   0.813   4.194   7.088  0.0185  0.2794 -0.1744
   71CHL1   C19 7700   0.940   4.284   7.094 -0.7345  0.7804 -0.0549
   71CHL1  H19A 7701   0.974   4.300   6.990  1.1586 -1.0439  0.2238
   71CHL1  H19B 7702   0.927   4.382   7.145 -0.4556 -0.6987  3.1383
   71CHL1  H19C 7703   1.026   4.236   7.146 -0.8935  0.6404  0.0822
   71CHL1    C1 7704   0.826   4.067   6.995 -0.2476  0.2208 -0.0364
   71CHL1   H1A 7705   0.900   3.987   7.020  0.2445  0.8528  0.5736
   71CHL1   H1B 7706   0.732   4.008   6.999  0.7032 -1.3174  0.4961
   71CHL1    C2 7707   0.846   4.094   6.847  0.5201 -0.0801  0.8095
   71CHL1   H2A 7708   0.842   3.992   6.804 -1.2406 -0.2377  1.2795
   71CHL1   H2B 7709   0.943   4.143   6.822  0.8310  1.1907  4.0388
   71CHL1   C20 7710   0.814   4.144   7.795  0.1467  1.3072  0.3279
   71CHL1   H20 7711   0.863   4.244   7.798  0.3191  1.2526 -0.4908
   71CHL1   C21 7712   0.923   4.032   7.787  0.4025  0.0407  0.2422
   71CHL1  H21A 7713   0.878   3.931   7.785 -0.6003  0.4739  0.3533
   71CHL1  H21B 7714   0.987   4.032   7.878  1.2131 -0.8546 -0.3094
   71CHL1  H21C 7715   0.994   4.046   7.703 -1.0908 -1.5630 -1.3680
   71CHL1   C22 7716   0.726   4.121   7.922  0.3300  0.0104 -0.6017
   71CHL1  H22A 7717   0.636   4.186   7.914 -0.2905 -0.9011 -1.3256
   71CHL1  H22B 7718   0.679   4.020   7.916 -0.6215  0.1352  2.9221
   71CHL1   C23 7719   0.797   4.123   8.061 -0.0469  0.3948 -0.0041
   71CHL1  H23A 7720   0.847   4.025   8.076 -2.8056 -1.0483  0.4224
   71CHL1  H23B 7721   0.874   4.202   8.050 -0.1467  0.3604 -1.0549
   71CHL1   C24 7722   0.701   4.142   8.182  0.4011 -0.4551  0.1540
   71CHL1  H24A 7723   0.615   4.073   8.167  0.6441 -0.1536 -3.4392
   71CHL1  H24B 7724   0.761   4.113   8.271 -0.8153  2.0655  1.9369
   71CHL1   C25 7725   0.663   4.284   8.195 -0.9687 -0.2335  0.2159
   71CHL1   H25 7726   0.663   4.329   8.093 -0.1035  0.4666  0.5140
   71CHL1   C26 7727   0.523   4.296   8.264  0.1238 -0.8949  0.4961
   71CHL1  H26A 7728   0.448   4.252   8.195 -0.2588  2.6408 -1.5848
   71CHL1  H26B 7729   0.524   4.255   8.368 -1.7045  1.4351  1.5419
   71CHL1  H26C 7730   0.498   4.404   8.269  1.1235 -0.5491 -1.2324
   71CHL1   C27 7731   0.773   4.364   8.265 -0.5674  0.3072 -0.5592
   71CHL1  H27A 7732   0.734   4.457   8.311 -0.0894  1.2119 -1.9145
   71CHL1  H27B 7733   0.830   4.313   8.346  1.0095  1.3691 -0.9509
   71CHL1  H27C 7734   0.853   4.398   8.195 -1.4767  0.8799 -1.3506
   72CHL1    C3 7735   0.841   2.689   6.978  0.8627  1.2927 -0.3545
   72CHL1    H3 7736   0.883   2.781   7.024  1.5321  0.2023  1.3637
   72CHL1    O3 7737   0.871   2.665   6.843  0.1741 -0.1114 -0.7131
   72CHL1   H3' 7738   0.966   2.662   6.830  0.1288  0.3868 -1.1605
   72CHL1    C4 7739   0.873   2.568   7.078  0.0417 -0.2964  0.4806
   72CHL1   H4A 7740   0.828   2.477   7.032 -0.7415  0.2956  0.0339
   72CHL1   H4B 7741   0.983   2.570   7.068  0.0137  0.4971  0.2358
   72CHL1    C5 7742   0.832   2.591   7.220  0.0608 -0.2430 -0.0048
   72CHL1    C6 7743   0.919   2.594   7.321 -0.4277  0.0201 -0.4932
   72CHL1    H6 7744   1.025   2.566   7.307 -0.6042  0.3685 -3.1716
   72CHL1    C7 7745   0.870   2.596   7.461 -0.2857 -0.0552  0.1544
   72CHL1   H7A 7746   0.926   2.524   7.524 -1.3886 -2.2522 -1.2703
   72CHL1   H7B 7747   0.881   2.700   7.500 -1.0758 -0.7786  2.4692
   72CHL1    C8 7748   0.719   2.570   7.482  0.0017 -0.5816 -0.5505
   72CHL1    H8 7749   0.705   2.460   7.477  0.5028 -0.6760 -0.0454
   72CHL1   C14 7750   0.673   2.615   7.620 -0.3672  0.2010  0.8500
   72CHL1   H14 7751   0.691   2.723   7.632  1.4583 -0.1781  1.8806
   72CHL1   C15 7752   0.731   2.545   7.732 -0.6650  0.0289 -0.4607
   72CHL1  H15A 7753   0.771   2.444   7.709 -2.3598 -0.7661 -0.0472
   72CHL1  H15B 7754   0.821   2.604   7.759  0.9693 -2.1589 -0.8573
   72CHL1   C16 7755   0.634   2.560   7.854 -0.0783 -0.5917  0.7669
   72CHL1  H16A 7756   0.608   2.461   7.897  0.8666 -0.7792  0.9285
   72CHL1  H16B 7757   0.673   2.628   7.932 -0.3495 -1.3302  1.5677
   72CHL1   C17 7758   0.505   2.627   7.793 -0.0753  0.6692  0.2383
   72CHL1   H17 7759   0.518   2.737   7.800 -0.0585  0.8092 -1.5639
   72CHL1   C13 7760   0.518   2.594   7.642  0.3243  0.8832 -0.2309
   72CHL1   C18 7761   0.482   2.445   7.619 -0.5786  0.4397 -0.4111
   72CHL1  H18A 7762   0.532   2.380   7.695 -0.9171 -1.4064 -1.6907
   72CHL1  H18B 7763   0.375   2.438   7.648  0.2636 -1.0431  2.8648
   72CHL1  H18C 7764   0.499   2.387   7.526 -0.2989 -2.0001  1.0409
   72CHL1   C12 7765   0.436   2.673   7.541  0.2494  0.2816 -0.5009
   72CHL1  H12A 7766   0.328   2.649   7.552  0.6387 -0.8730  0.9998
   72CHL1  H12B 7767   0.443   2.782   7.564  0.4737  0.4408 -1.2765
   72CHL1   C11 7768   0.486   2.645   7.400 -0.4394 -0.2502  0.1729
   72CHL1  H11A 7769   0.434   2.552   7.367 -0.8803  0.4427 -1.1877
   72CHL1  H11B 7770   0.442   2.724   7.336  1.0007  0.8773  0.5186
   72CHL1    C9 7771   0.642   2.644   7.376 -0.6531 -0.2926  0.2426
   72CHL1    H9 7772   0.684   2.747   7.384 -0.0329 -0.2211 -2.7546
   72CHL1   C10 7773   0.677   2.607   7.230  0.1185 -0.2517 -0.0384
   72CHL1   C19 7774   0.608   2.472   7.197 -0.4252  0.1723  0.8862
   72CHL1  H19A 7775   0.507   2.489   7.154  0.6041  0.6494 -1.5245
   72CHL1  H19B 7776   0.668   2.425   7.116 -0.4871  0.1086  0.8778
   72CHL1  H19C 7777   0.605   2.408   7.288 -0.7243 -0.9834  0.0799
   72CHL1    C1 7778   0.629   2.723   7.125 -0.1011  0.7543 -0.7753
   72CHL1   H1A 7779   0.519   2.703   7.130  0.5232 -3.3182  1.2756
   72CHL1   H1B 7780   0.658   2.822   7.166  0.0366  0.2235  0.4728
   72CHL1    C2 7781   0.680   2.697   6.986  0.2219  0.0466  0.5417
   72CHL1   H2A 7782   0.639   2.780   6.925  0.7181 -1.9650 -2.7350
   72CHL1   H2B 7783   0.639   2.602   6.947 -2.2019  0.8454  0.9586
   72CHL1   C20 7784   0.384   2.577   7.867  0.4604 -0.5720  0.0159
   72CHL1   H20 7785   0.374   2.467   7.868  0.5411 -0.5792  0.0067
   72CHL1   C21 7786   0.249   2.625   7.805 -1.1026 -0.0878 -0.5630
   72CHL1  H21A 7787   0.252   2.732   7.775 -1.5842  0.3638  0.9426
   72CHL1  H21B 7788   0.168   2.603   7.877  0.7645  0.8013  1.9865
   72CHL1  H21C 7789   0.224   2.565   7.715  0.3772 -0.1588 -0.9596
   72CHL1   C22 7790   0.389   2.616   8.021 -0.3548 -0.2768 -0.0237
   72CHL1  H22A 7791   0.306   2.562   8.071 -0.9923 -0.0352 -0.7982
   72CHL1  H22B 7792   0.481   2.579   8.071  0.1409 -0.9640 -1.3975
   72CHL1   C23 7793   0.362   2.769   8.048  0.4271  0.4648  0.3555
   72CHL1  H23A 7794   0.417   2.833   7.977  2.1739 -0.4809  0.7967
   72CHL1  H23B 7795   0.254   2.788   8.032  0.8907  1.9358 -1.3063
   72CHL1   C24 7796   0.415   2.819   8.176 -0.0111 -0.5157 -0.8602
   72CHL1  H24A 7797   0.526   2.812   8.174  0.0492 -0.2003  0.3313
   72CHL1  H24B 7798   0.393   2.927   8.186 -0.3855 -0.3628 -2.8820
   72CHL1   C25 7799   0.348   2.757   8.304  0.1771  0.1357  1.1089
   72CHL1   H25 7800   0.334   2.648   8.284 -0.3737  0.6015 -1.4041
   72CHL1   C26 7801   0.435   2.776   8.422 -0.0930  0.1872 -0.0497
   72CHL1  H26A 7802   0.450   2.886   8.416  0.2985  0.0556 -2.3515
   72CHL1  H26B 7803   0.396   2.729   8.515 -0.9678 -0.6493 -0.8173
   72CHL1  H26C 7804   0.540   2.745   8.405 -0.3775 -0.5108 -0.5461
   72CHL1   C27 7805   0.208   2.817   8.314 -0.0257 -0.1278  0.1162
   72CHL1  H27A 7806   0.147   2.806   8.222 -1.7481 -1.0202  1.3114
   72CHL1  H27B 7807   0.141   2.763   8.384 -2.0710 -1.5936 -2.7279
   72CHL1  H27C 7808   0.229   2.920   8.350 -1.3501 -0.1497  0.9919
   73CHL1    C3 7809   1.877   0.114   6.841  0.2173  0.3946 -0.3200
   73CHL1    H3 7810   1.869   0.007   6.872 -0.6949  0.0821 -1.5473
   73CHL1    O3 7811   1.901   0.122   6.700 -0.0018 -0.0409 -0.2169
   73CHL1   H3' 7812   1.859   0.203   6.672  2.2249  1.6303  0.9650
   73CHL1    C4 7813   1.729   0.171   6.858  0.1233  0.6771  0.6656
   73CHL1   H4A 7814   1.742   0.276   6.825  1.5610  0.7034  1.2363
   73CHL1   H4B 7815   1.651   0.134   6.788  0.9058  1.8552 -0.9045
   73CHL1    C5 7816   1.690   0.160   6.999 -0.0674  0.1731 -0.0450
   73CHL1    C6 7817   1.576   0.096   7.026  0.6662 -0.0134  0.2968
   73CHL1    H6 7818   1.523   0.048   6.942  1.9316  0.4968 -0.8314
   73CHL1    C7 7819   1.528   0.069   7.169 -0.5195 -0.8569 -0.5902
   73CHL1   H7A 7820   1.418   0.062   7.187 -0.0970 -3.0682  1.7469
   73CHL1   H7B 7821   1.550  -0.036   7.197 -0.0356 -0.1789  1.8083
   73CHL1    C8 7822   1.605   0.160   7.265 -0.0301 -0.3348 -0.8353
   73CHL1    H8 7823   1.545   0.254   7.263  0.3277  0.0965  2.3086
   73CHL1   C14 7824   1.596   0.103   7.414 -0.2179  0.0910 -0.2851
   73CHL1   H14 7825   1.641   0.002   7.422  0.6467  0.5612  1.1333
   73CHL1   C15 7826   1.450   0.069   7.463  0.1166  0.2765  0.5867
   73CHL1  H15A 7827   1.389   0.156   7.431  0.3603  0.0336 -0.5546
   73CHL1  H15B 7828   1.419  -0.021   7.404  0.5957  1.2027 -1.1312
   73CHL1   C16 7829   1.461   0.051   7.618 -0.1053 -0.0470 -0.5630
   73CHL1  H16A 7830   1.384   0.119   7.660  1.9273  1.5586  0.7789
   73CHL1  H16B 7831   1.438  -0.052   7.652 -3.5060  0.8625  0.2672
   73CHL1   C17 7832   1.605   0.105   7.646 -0.6029 -0.5440 -0.2360
   73CHL1   H17 7833   1.676   0.019   7.639 -0.2044 -0.1630 -1.1667
   73CHL1   C13 7834   1.645   0.193   7.527 -0.3367  0.0231  0.4316
   73CHL1   C18 7835   1.560   0.322   7.523 -0.2698 -0.5563  0.9399
   73CHL1  H18A 7836   1.455   0.306   7.557 -0.2276  1.7621  2.3372
   73CHL1  H18B 7837   1.597   0.389   7.602  3.1975 -1.9662  0.6953
   73CHL1  H18C 7838   1.565   0.371   7.423 -1.0152  0.7081  1.5087
   73CHL1   C12 7839   1.797   0.219   7.503  0.2660 -0.3725  0.3823
   73CHL1  H12A 7840   1.847   0.293   7.569 -0.2950  0.8727 -0.5422
   73CHL1  H12B 7841   1.851   0.127   7.534  0.2013 -0.2318  0.9273
   73CHL1   C11 7842   1.829   0.257   7.354 -0.3619  0.6329  0.3944
   73CHL1  H11A 7843   1.781   0.356   7.342 -0.7087  0.3745 -0.3936
   73CHL1  H11B 7844   1.939   0.255   7.337 -0.7165 -0.7455 -2.2035
   73CHL1    C9 7845   1.759   0.178   7.245  1.2915  0.2956  0.4508
   73CHL1    H9 7846   1.797   0.075   7.255  3.1263  0.7917 -0.8774
   73CHL1   C10 7847   1.793   0.221   7.098  0.5832  0.7523  0.1518
   73CHL1   C19 7848   1.769   0.374   7.089 -0.9027 -0.2191  0.1048
   73CHL1  H19A 7849   1.677   0.401   7.145 -1.4066  1.3429 -1.3784
   73CHL1  H19B 7850   1.859   0.426   7.129 -1.3684  0.8475 -0.1971
   73CHL1  H19C 7851   1.760   0.411   6.985  0.1133  0.6721  0.3121
   73CHL1    C1 7852   1.937   0.195   7.080 -0.3037 -0.4845 -0.4995
   73CHL1   H1A 7853   2.004   0.271   7.124  0.0180  0.2855 -2.2433
   73CHL1   H1B 7854   1.964   0.099   7.129  0.2356  0.0352  0.2361
   73CHL1    C2 7855   1.976   0.196   6.928 -0.3732  0.4384 -0.0409
   73CHL1   H2A 7856   2.072   0.141   6.914 -0.1106  0.5996  1.0202
   73CHL1   H2B 7857   1.967   0.298   6.885 -1.7982  0.1568 -0.4479
   73CHL1   C20 7858   1.622   0.165   7.787 -0.1220  1.3980 -0.0051
   73CHL1   H20 7859   1.544   0.243   7.803 -3.4023 -1.7581  0.6381
   73CHL1   C21 7860   1.759   0.221   7.817 -0.2904 -0.0176 -0.2791
   73CHL1  H21A 7861   1.843   0.158   7.782 -0.2475  0.7295 -1.5753
   73CHL1  H21B 7862   1.778   0.256   7.921 -0.6732  1.2022 -0.6053
   73CHL1  H21C 7863   1.761   0.312   7.754 -0.4181  0.5919  0.5700
   73CHL1   C22 7864   1.580   0.055   7.890  0.3566  0.4397  0.1575
   73CHL1  H22A 7865   1.478   0.017   7.870  0.4274 -1.7844  3.2597
   73CHL1  H22B 7866   1.647  -0.033   7.884  0.4521  0.6193 -1.7197
   73CHL1   C23 7867   1.573   0.108   8.033 -0.0734  0.7847 -0.5273
   73CHL1  H23A 7868   1.663   0.145   8.087  1.8595 -1.3322 -2.1133
   73CHL1  H23B 7869   1.508   0.198   8.027 -0.5655  0.4372 -0.4718
   73CHL1   C24 7870   1.501   0.012   8.134 -0.1974  0.0703 -0.0183
   73CHL1  H24A 7871   1.410  -0.033   8.088  0.5041 -1.5205  0.0671
   73CHL1  H24B 7872   1.568  -0.077   8.140  1.0074  0.9964  0.6318
   73CHL1   C25 7873   1.476   0.066   8.280 -0.3192 -0.5090 -0.3543
   73CHL1   H25 7874   1.572   0.100   8.325 -0.3505 -1.0622  0.1427
   73CHL1   C26 7875   1.373   0.185   8.281 -0.2241  0.3405  0.1482
   73CHL1  H26A 7876   1.278   0.150   8.235  1.2702 -1.5013 -1.7228
   73CHL1  H26B 7877   1.351   0.203   8.389  0.7791  1.8896  0.1220
   73CHL1  H26C 7878   1.423   0.268   8.227 -1.0834  0.7690 -0.0036
   73CHL1   C27 7879   1.415  -0.056   8.361 -0.5113 -1.0455 -0.1120
   73CHL1  H27A 7880   1.495  -0.129   8.384  0.4583 -0.2750 -0.9866
   73CHL1  H27B 7881   1.382  -0.019   8.461 -0.2374 -0.3123 -0.2897
   73CHL1  H27C 7882   1.329  -0.092   8.301 -0.4421 -0.5192 -0.5278
   74CHL1    C3 7883   0.808   4.658   6.799  0.1265 -0.1243 -0.4299
   74CHL1    H3 7884   0.757   4.561   6.781 -2.8282  1.3046 -0.2731
   74CHL1    O3 7885   0.896   4.672   6.692 -0.2063  0.1954 -0.3209
   74CHL1   H3' 7886   0.928   4.762   6.692 -1.5669  0.7990  2.3005
   74CHL1    C4 7887   0.703   4.775   6.801 -0.0921 -0.5120  0.3879
   74CHL1   H4A 7888   0.762   4.869   6.804  1.6340 -1.4973 -0.7827
   74CHL1   H4B 7889   0.659   4.792   6.700  0.6992  0.1679  0.1402
   74CHL1    C5 7890   0.604   4.762   6.914 -0.1194 -0.2976  0.2887
   74CHL1    C6 7891   0.471   4.741   6.889 -0.0563 -0.5195 -0.4641
   74CHL1    H6 7892   0.445   4.741   6.782  0.6478  1.7341 -0.6923
   74CHL1    C7 7893   0.363   4.744   6.999  0.2815  0.4376  0.5649
   74CHL1   H7A 7894   0.294   4.829   6.981  0.9561  1.0425  0.8191
   74CHL1   H7B 7895   0.313   4.645   7.007  1.3796 -0.3995 -2.0026
   74CHL1    C8 7896   0.428   4.788   7.134  0.4850 -0.1184 -0.5199
   74CHL1    H8 7897   0.444   4.897   7.122  0.5534  0.1101  1.3509
   74CHL1   C14 7898   0.335   4.761   7.254  0.6023  0.4072  0.4030
   74CHL1   H14 7899   0.327   4.650   7.248  0.3082  0.4132  0.6611
   74CHL1   C15 7900   0.194   4.823   7.250  0.1174 -0.3770 -0.2111
   74CHL1  H15A 7901   0.211   4.928   7.220 -0.1697 -0.6946 -1.5154
   74CHL1  H15B 7902   0.118   4.766   7.193 -0.2911 -1.7021  1.5648
   74CHL1   C16 7903   0.157   4.822   7.402  0.2265 -0.5115  0.5349
   74CHL1  H16A 7904   0.145   4.928   7.433  0.7707  0.4712 -2.3477
   74CHL1  H16B 7905   0.065   4.767   7.433  0.9448 -2.6130 -0.8592
   74CHL1   C17 7906   0.277   4.762   7.481 -0.5128 -0.8409  1.4687
   74CHL1   H17 7907   0.258   4.652   7.482  0.2053 -1.1148 -2.4187
   74CHL1   C13 7908   0.399   4.792   7.388 -0.2024  0.3570 -0.1645
   74CHL1   C18 7909   0.426   4.938   7.399 -0.0106 -0.9297  0.5025
   74CHL1  H18A 7910   0.335   5.001   7.386  2.4933  3.0393  0.4460
   74CHL1  H18B 7911   0.463   4.969   7.499  0.8069  0.1738 -0.1161
   74CHL1  H18C 7912   0.490   4.989   7.324  0.0705  1.7013  2.2199
   74CHL1   C12 7913   0.519   4.709   7.406  0.1388 -0.3647  0.0510
   74CHL1  H12A 7914   0.572   4.740   7.499  1.1224 -0.5881 -0.4209
   74CHL1  H12B 7915   0.502   4.600   7.396  0.6579 -0.4479  0.0348
   74CHL1   C11 7916   0.625   4.746   7.299  0.2373  0.1868  0.2599
   74CHL1  H11A 7917   0.659   4.851   7.307 -0.4454  0.6468 -1.9577
   74CHL1  H11B 7918   0.710   4.676   7.315  1.1567  0.9746 -0.9930
   74CHL1    C9 7919   0.574   4.724   7.158  0.2127 -0.1748  0.1962
   74CHL1    H9 7920   0.562   4.614   7.162  1.1174 -0.2438  1.3734
   74CHL1   C10 7921   0.673   4.757   7.048 -0.3579 -0.6972  0.6040
   74CHL1   C19 7922   0.737   4.903   7.082 -0.1133 -0.7219  0.2513
   74CHL1  H19A 7923   0.780   4.919   7.183 -1.5173  2.9079  0.4248
   74CHL1  H19B 7924   0.803   4.934   6.999  0.3032  0.1724  0.8957
   74CHL1  H19C 7925   0.651   4.974   7.077  1.5195  1.3580  0.5414
   74CHL1    C1 7926   0.785   4.643   7.050 -1.0595  0.4507  0.7208
   74CHL1   H1A 7927   0.843   4.637   7.144  0.8556  0.8017 -0.3829
   74CHL1   H1B 7928   0.733   4.545   7.040 -0.7219  0.4336 -1.2973
   74CHL1    C2 7929   0.880   4.658   6.933  0.1432 -0.2407  0.3254
   74CHL1   H2A 7930   0.955   4.576   6.937  0.2594 -0.1247  0.6266
   74CHL1   H2B 7931   0.941   4.746   6.965  1.1056 -1.1702  1.1413
   74CHL1   C20 7932   0.281   4.802   7.632 -0.2352 -0.2373  0.2248
   74CHL1   H20 7933   0.343   4.893   7.643  0.2591 -0.5451  0.0033
   74CHL1   C21 7934   0.351   4.682   7.707 -0.1001 -0.0179  0.4052
   74CHL1  H21A 7935   0.447   4.656   7.656 -0.2374  1.0324 -0.4064
   74CHL1  H21B 7936   0.292   4.589   7.690  0.9254 -0.3850 -1.5355
   74CHL1  H21C 7937   0.384   4.702   7.811 -2.2258  0.9042  0.9507
   74CHL1   C22 7938   0.145   4.828   7.697  0.3989 -0.3732 -0.3276
   74CHL1  H22A 7939   0.084   4.901   7.641 -0.2258 -0.1688  0.5961
   74CHL1  H22B 7940   0.097   4.728   7.707  0.8802 -0.7331 -1.4999
   74CHL1   C23 7941   0.147   4.886   7.841  0.5181 -0.0755 -0.6738
   74CHL1  H23A 7942   0.042   4.868   7.873 -0.5874  1.7469 -3.0026
   74CHL1  H23B 7943   0.213   4.826   7.908 -2.5213 -1.3837  1.4038
   74CHL1   C24 7944   0.171   5.042   7.859  0.2845 -0.0344  0.7728
   74CHL1  H24A 7945   0.265   5.074   7.810 -0.5740 -0.8454 -1.5482
   74CHL1  H24B 7946   0.087   5.090   7.805  0.5042 -1.5861 -1.0714
   74CHL1   C25 7947   0.175   5.087   8.008  0.7248 -0.2117  0.3383
   74CHL1   H25 7948   0.090   5.038   8.060  0.5789 -1.5138 -1.0313
   74CHL1   C26 7949   0.306   5.037   8.066  0.1033 -0.0181 -0.4101
   74CHL1  H26A 7950   0.308   5.065   8.173  0.9896  0.5864 -0.5684
   74CHL1  H26B 7951   0.321   4.927   8.071 -0.6724 -0.1215 -0.2784
   74CHL1  H26C 7952   0.391   5.084   8.013 -0.8640 -0.1717 -2.1815
   74CHL1   C27 7953   0.170   5.248   8.019  0.4145 -0.1991 -0.0651
   74CHL1  H27A 7954   0.163   5.285   8.123 -2.1220 -2.1071  0.5710
   74CHL1  H27B 7955   0.245   5.291   7.950 -0.9252  0.0240 -1.4524
   74CHL1  H27C 7956   0.067   5.270   7.981  0.6301 -0.6080 -0.9229
   75CHL1    C3 7957   3.869   0.280   6.493  0.2191 -0.1813  0.2394
   75CHL1    H3 7958   3.943   0.272   6.575 -1.5724  0.1786  1.9505
   75CHL1    O3 7959   3.931   0.287   6.366  0.6586  0.0773  0.7948
   75CHL1   H3' 7960   3.940   0.196   6.337  0.6818  0.3838 -0.1891
   75CHL1    C4 7961   3.775   0.161   6.492 -0.0144 -0.7180  0.0841
   75CHL1   H4A 7962   3.695   0.175   6.416  0.6207 -3.2762 -1.1408
   75CHL1   H4B 7963   3.831   0.071   6.459  0.6742  0.0764 -0.9651
   75CHL1    C5 7964   3.706   0.142   6.624  0.7999 -0.4013  0.1120
   75CHL1    C6 7965   3.716   0.032   6.689  0.0629 -0.0802 -0.1535
   75CHL1    H6 7966   3.778  -0.045   6.642  0.4771  0.7404 -0.9989
   75CHL1    C7 7967   3.640   0.009   6.817  0.0697 -0.6506  0.2528
   75CHL1   H7A 7968   3.571  -0.074   6.791 -0.1534  0.1002 -1.7726
   75CHL1   H7B 7969   3.709  -0.010   6.901  0.9629 -0.9590 -0.5300
   75CHL1    C8 7970   3.544   0.126   6.854 -0.4559  0.7433 -0.2218
   75CHL1    H8 7971   3.458   0.116   6.784 -1.0000 -0.2557  0.5710
   75CHL1   C14 7972   3.502   0.101   6.999  0.0651 -0.4890  0.0403
   75CHL1   H14 7973   3.597   0.135   7.047  0.0552 -0.4552  0.0356
   75CHL1   C15 7974   3.462  -0.038   7.047 -0.3795 -0.4383 -0.4928
   75CHL1  H15A 7975   3.387  -0.078   6.976 -1.2857 -2.7183  1.5861
   75CHL1  H15B 7976   3.541  -0.111   7.074  0.3052  1.2304  2.5625
   75CHL1   C16 7977   3.385  -0.005   7.179  0.1096 -0.0665  0.1448
   75CHL1  H16A 7978   3.277  -0.029   7.176  0.3691 -1.2114 -2.1929
   75CHL1  H16B 7979   3.446  -0.047   7.262  1.0834  2.9218  1.0692
   75CHL1   C17 7980   3.374   0.148   7.201 -0.7961 -0.2557  0.9086
   75CHL1   H17 7981   3.466   0.183   7.252 -0.4250  0.7245 -0.3727
   75CHL1   C13 7982   3.397   0.203   7.056  0.3736 -0.4384 -0.0369
   75CHL1   C18 7983   3.269   0.192   6.969  0.0606  0.3503  0.1966
   75CHL1  H18A 7984   3.289   0.194   6.860 -1.8333 -1.5609 -0.2510
   75CHL1  H18B 7985   3.229   0.089   6.973  0.5927  0.0969 -0.7617
   75CHL1  H18C 7986   3.186   0.263   6.995 -0.9255 -0.2649 -1.1505
   75CHL1   C12 7987   3.451   0.347   7.039 -0.7174  0.6568  0.0440
   75CHL1  H12A 7988   3.372   0.425   7.045 -1.0210  0.4240 -0.8447
   75CHL1  H12B 7989   3.518   0.360   7.127 -3.3823  2.4503  1.9362
   75CHL1   C11 7990   3.514   0.371   6.894  0.0483  1.0295 -0.1673
   75CHL1  H11A 7991   3.427   0.369   6.826  0.3600 -0.2650 -0.5446
   75CHL1  H11B 7992   3.559   0.473   6.883 -0.1076  1.0428 -0.6841
   75CHL1    C9 7993   3.600   0.261   6.837 -0.3811  0.1133  0.5824
   75CHL1    H9 7994   3.700   0.274   6.885 -0.9926  1.3209  1.5826
   75CHL1   C10 7995   3.639   0.267   6.684  0.1345 -0.2181 -0.2275
   75CHL1   C19 7996   3.516   0.302   6.596  0.1758  0.2077 -0.0398
   75CHL1  H19A 7997   3.537   0.289   6.488 -1.6012  0.2097 -0.4165
   75CHL1  H19B 7998   3.430   0.235   6.616 -1.6366  1.4109 -3.1055
   75CHL1  H19C 7999   3.491   0.408   6.618 -0.2146 -0.2619  1.9885
   75CHL1    C1 8000   3.732   0.393   6.664  0.2386 -0.3907 -0.2309
   75CHL1   H1A 8001   3.675   0.485   6.691 -1.0378 -1.8895  2.7093
   75CHL1   H1B 8002   3.820   0.382   6.731  0.7655 -1.8852 -1.1339
   75CHL1    C2 8003   3.792   0.413   6.526 -0.2912 -0.4304  0.6878
   75CHL1   H2A 8004   3.872   0.490   6.532 -0.7110  0.0283  0.3608
   75CHL1   H2B 8005   3.727   0.436   6.440  2.0501  2.0297 -0.5879
   75CHL1   C20 8006   3.251   0.190   7.278 -0.0719  0.3259  0.7494
   75CHL1   H20 8007   3.165   0.170   7.211 -0.1313 -1.4288  1.3175
   75CHL1   C21 8008   3.265   0.343   7.308 -0.8540  0.1206  0.5301
   75CHL1  H21A 8009   3.227   0.405   7.223  3.4590  0.7493 -1.2010
   75CHL1  H21B 8010   3.373   0.368   7.312 -1.4147  2.7097  1.8555
   75CHL1  H21C 8011   3.216   0.373   7.403  0.8063  2.1275  0.8440
   75CHL1   C22 8012   3.219   0.109   7.407 -0.1176 -0.1430  0.3601
   75CHL1  H22A 8013   3.129   0.166   7.439 -0.9317 -0.7731 -0.7416
   75CHL1  H22B 8014   3.195   0.003   7.384  0.3756 -0.1453 -0.1687
   75CHL1   C23 8015   3.319   0.101   7.518  0.0408  0.3346 -1.1821
   75CHL1  H23A 8016   3.402   0.031   7.495  1.8583  1.4313  1.4915
   75CHL1  H23B 8017   3.355   0.204   7.540  0.5872 -0.0361 -0.2608
   75CHL1   C24 8018   3.254   0.045   7.648 -0.4442  0.8214  0.4385
   75CHL1  H24A 8019   3.152   0.086   7.665 -1.2178  1.3026 -4.1363
   75CHL1  H24B 8020   3.219  -0.059   7.638 -1.4943  1.0849  1.2118
   75CHL1   C25 8021   3.342   0.063   7.774  0.5343 -1.0593 -0.6331
   75CHL1   H25 8022   3.438   0.007   7.770  0.1773 -1.9833  1.9426
   75CHL1   C26 8023   3.377   0.208   7.809 -0.7039  0.0846  0.2076
   75CHL1  H26A 8024   3.296   0.284   7.801 -0.0898  0.5849 -1.6561
   75CHL1  H26B 8025   3.417   0.215   7.912  0.8858 -1.6663 -0.2358
   75CHL1  H26C 8026   3.467   0.243   7.755  0.6532 -0.2868  2.1464
   75CHL1   C27 8027   3.279  -0.014   7.894 -0.0805 -0.1690 -0.2170
   75CHL1  H27A 8028   3.241  -0.116   7.872 -4.3685  1.4724 -1.3322
   75CHL1  H27B 8029   3.357  -0.027   7.973  1.4524  0.7875 -1.5018
   75CHL1  H27C 8030   3.195   0.048   7.932  0.9111  1.9103 -1.2145
   76CHL1    C3 8031   5.628   1.446   7.301  0.4040 -1.1264 -0.5933
   76CHL1    H3 8032   5.722   1.489   7.340  0.4932 -2.5732  0.9176
   76CHL1    O3 8033   5.634   1.465   7.159  0.8435 -0.4496 -0.4794
   76CHL1   H3' 8034   5.582   1.392   7.125  0.7875 -0.7612  0.2393
   76CHL1    C4 8035   5.627   1.297   7.331 -0.4256  0.3172 -0.5036
   76CHL1   H4A 8036   5.544   1.245   7.278  0.5195  0.0184 -1.7363
   76CHL1   H4B 8037   5.724   1.254   7.301 -1.0556 -2.0776  0.6652
   76CHL1    C5 8038   5.602   1.277   7.482  0.5129 -0.2202 -0.6524
   76CHL1    C6 8039   5.690   1.201   7.548  0.1301 -0.5488 -0.6018
   76CHL1    H6 8040   5.782   1.163   7.500  0.6929 -0.7725  0.6259
   76CHL1    C7 8041   5.689   1.187   7.696  0.2348 -0.4499  0.4975
   76CHL1   H7A 8042   5.731   1.087   7.717  2.2132  0.5276  1.5132
   76CHL1   H7B 8043   5.750   1.262   7.752 -1.7234  0.7862  1.0590
   76CHL1    C8 8044   5.543   1.211   7.758 -0.5107  0.1196  0.0438
   76CHL1    H8 8045   5.488   1.121   7.724  1.6458 -0.6558 -1.6878
   76CHL1   C14 8046   5.544   1.207   7.912  0.0927 -0.2752  0.0443
   76CHL1   H14 8047   5.606   1.291   7.948 -1.0375 -0.0487  1.5948
   76CHL1   C15 8048   5.605   1.086   7.983  0.2898  1.3931 -0.4264
   76CHL1  H15A 8049   5.557   0.996   7.938  2.4814  1.5055 -3.2450
   76CHL1  H15B 8050   5.715   1.074   7.974  0.2809  0.7177  0.2165
   76CHL1   C16 8051   5.544   1.101   8.132  0.1907  0.9214  0.5807
   76CHL1  H16A 8052   5.504   1.004   8.168  0.3107  1.4193  2.1400
   76CHL1  H16B 8053   5.622   1.134   8.204  0.9358 -0.0687  0.2511
   76CHL1   C17 8054   5.435   1.215   8.119  0.1720 -0.1772 -0.1231
   76CHL1   H17 8055   5.485   1.308   8.151 -1.4520  0.5399  0.4630
   76CHL1   C13 8056   5.401   1.232   7.973 -0.9039 -0.3958  0.6920
   76CHL1   C18 8057   5.301   1.120   7.929 -0.5211  0.1829  0.4370
   76CHL1  H18A 8058   5.304   1.120   7.818  0.6130 -1.3413  0.4421
   76CHL1  H18B 8059   5.334   1.023   7.971 -0.3870  0.5446  1.1840
   76CHL1  H18C 8060   5.200   1.140   7.970 -1.1696 -2.2059  0.1305
   76CHL1   C12 8061   5.362   1.370   7.931 -0.3276 -1.0991  0.6135
   76CHL1  H12A 8062   5.266   1.406   7.975  0.6803  1.2734  1.0131
   76CHL1  H12B 8063   5.433   1.450   7.961  0.1757 -1.3022 -0.0138
   76CHL1   C11 8064   5.358   1.380   7.776 -0.0504  0.5240 -0.7232
   76CHL1  H11A 8065   5.273   1.317   7.742 -0.6293  0.5167  0.6797
   76CHL1  H11B 8066   5.338   1.486   7.748 -2.7911  0.7866  1.7831
   76CHL1    C9 8067   5.491   1.334   7.706 -0.0162 -0.3583  0.5102
   76CHL1    H9 8068   5.561   1.417   7.729  1.2007 -0.6927 -1.6768
   76CHL1   C10 8069   5.477   1.343   7.547  0.3369 -0.1483 -0.8180
   76CHL1   C19 8070   5.348   1.269   7.485 -0.0530  0.0478  0.1332
   76CHL1  H19A 8071   5.360   1.239   7.378  0.1133 -1.5688  0.5879
   76CHL1  H19B 8072   5.333   1.171   7.534  1.1038 -0.8448 -1.2272
   76CHL1  H19C 8073   5.256   1.329   7.503  0.1122  0.5520 -0.6336
   76CHL1    C1 8074   5.485   1.503   7.516 -0.7715  0.1420  0.6604
   76CHL1   H1A 8075   5.391   1.550   7.551 -1.4778 -1.3145  0.8110
   76CHL1   H1B 8076   5.568   1.548   7.574 -1.0258  0.2625  0.9348
   76CHL1    C2 8077   5.513   1.528   7.366  0.9602  0.0990  0.4501
   76CHL1   H2A 8078   5.516   1.635   7.337 -0.5739 -0.4385 -1.9498
   76CHL1   H2B 8079   5.418   1.491   7.323  1.1767 -0.8700  0.7722
   76CHL1   C20 8080   5.309   1.195   8.216  0.2008  0.1378 -0.1235
   76CHL1   H20 8081   5.252   1.109   8.175 -0.1504  0.6646 -0.7570
   76CHL1   C21 8082   5.219   1.317   8.223 -0.2008  0.0305 -0.0895
   76CHL1  H21A 8083   5.152   1.327   8.136  0.1455  2.1223 -0.1871
   76CHL1  H21B 8084   5.271   1.412   8.250 -1.2926  0.9082 -0.9608
   76CHL1  H21C 8085   5.148   1.309   8.308 -1.7836 -0.5388 -1.4194
   76CHL1   C22 8086   5.363   1.156   8.358 -0.5166 -0.0564  0.2059
   76CHL1  H22A 8087   5.279   1.131   8.426 -0.4128 -2.2751 -0.4159
   76CHL1  H22B 8088   5.424   1.064   8.350 -0.8400 -0.1936 -1.0371
   76CHL1   C23 8089   5.457   1.249   8.419  0.0698  0.1396 -0.5952
   76CHL1  H23A 8090   5.542   1.274   8.352 -0.1516 -0.3604 -1.0721
   76CHL1  H23B 8091   5.408   1.347   8.437  1.4249  0.6695  0.4025
   76CHL1   C24 8092   5.522   1.200   8.542  0.2525  0.7289 -1.0287
   76CHL1  H24A 8093   5.436   1.158   8.599  0.3367  0.5275 -1.0482
   76CHL1  H24B 8094   5.602   1.125   8.525 -0.3041 -0.3296  0.7619
   76CHL1   C25 8095   5.607   1.299   8.623 -0.4699 -0.6454  0.2801
   76CHL1   H25 8096   5.665   1.354   8.545  0.3405  0.9221  1.9100
   76CHL1   C26 8097   5.526   1.413   8.686  0.2755  0.0296 -1.1163
   76CHL1  H26A 8098   5.447   1.450   8.617  2.2269  2.0913 -2.3647
   76CHL1  H26B 8099   5.478   1.368   8.775  1.0557  0.6648 -0.3573
   76CHL1  H26C 8100   5.596   1.492   8.718  2.7677 -1.0817 -3.4287
   76CHL1   C27 8101   5.690   1.236   8.731  0.2480 -0.1562 -0.3675
   76CHL1  H27A 8102   5.746   1.311   8.790  0.9109 -1.5143  0.7925
   76CHL1  H27B 8103   5.634   1.175   8.806 -1.2418 -1.0347 -2.1261
   76CHL1  H27C 8104   5.768   1.165   8.695 -0.7598 -1.0926 -0.7629
   77CHL1    C3 8105   1.043   6.309   6.760  0.1956  0.0820 -0.1901
   77CHL1    H3 8106   1.137   6.367   6.756 -0.5810  1.3239 -1.3119
   77CHL1    O3 8107   0.996   6.301   6.621 -0.1481 -0.1531 -0.2104
   77CHL1   H3' 8108   0.961   6.388   6.603  1.9489  0.6567 -0.7188
   77CHL1    C4 8109   1.071   6.162   6.816 -0.5686 -0.1958  0.0102
   77CHL1   H4A 8110   1.003   6.088   6.770 -1.6778 -1.0322  2.8330
   77CHL1   H4B 8111   1.162   6.128   6.762  0.9503 -0.8982  2.8376
   77CHL1    C5 8112   1.088   6.151   6.967 -0.2033 -0.4105 -0.6893
   77CHL1    C6 8113   1.203   6.097   7.016  0.0981 -0.0210 -0.3143
   77CHL1    H6 8114   1.270   6.052   6.941  0.6983 -0.8110  0.6668
   77CHL1    C7 8115   1.246   6.096   7.161  0.9812  0.1098 -0.6576
   77CHL1   H7A 8116   1.300   6.001   7.182 -0.3586 -0.1602  2.0756
   77CHL1   H7B 8117   1.319   6.178   7.177  0.0204  1.4713 -2.7551
   77CHL1    C8 8118   1.116   6.122   7.249 -0.4429  0.0777 -0.0912
   77CHL1    H8 8119   1.059   6.027   7.244  0.8383 -0.7993  1.1777
   77CHL1   C14 8120   1.164   6.139   7.396  0.1485 -0.5472  0.8172
   77CHL1   H14 8121   1.228   6.230   7.391  0.5082 -0.8607 -1.2227
   77CHL1   C15 8122   1.256   6.035   7.453 -0.7238  0.6483  0.6544
   77CHL1  H15A 8123   1.209   5.941   7.418 -0.6274  0.2243  1.6550
   77CHL1  H15B 8124   1.358   6.040   7.407  0.7939 -1.4309  3.5315
   77CHL1   C16 8125   1.250   6.064   7.597 -0.0351 -0.6040 -0.4135
   77CHL1  H16A 8126   1.243   5.963   7.642 -3.5788 -1.2811 -2.1483
   77CHL1  H16B 8127   1.344   6.113   7.632 -0.0221 -0.4447 -0.6629
   77CHL1   C17 8128   1.128   6.156   7.626 -0.1494 -0.3296 -0.0758
   77CHL1   H17 8129   1.174   6.257   7.635  0.5413 -0.8162  2.3316
   77CHL1   C13 8130   1.048   6.157   7.495  0.6353  0.1744 -0.5916
   77CHL1   C18 8131   0.957   6.031   7.491  0.2690  0.7437 -0.2739
   77CHL1  H18A 8132   1.022   5.945   7.518 -0.8677  0.6539  2.5651
   77CHL1  H18B 8133   0.872   6.038   7.563  0.2161 -0.2262 -0.2305
   77CHL1  H18C 8134   0.915   6.012   7.390 -1.5607  2.4997  0.0859
   77CHL1   C12 8135   0.976   6.284   7.456  0.4325 -0.0533 -0.2276
   77CHL1  H12A 8136   0.884   6.312   7.511 -0.9044  1.1164 -2.8453
   77CHL1  H12B 8137   1.050   6.366   7.467 -0.0738  0.1808  1.6809
   77CHL1   C11 8138   0.927   6.285   7.312 -0.0817 -0.1834  0.1055
   77CHL1  H11A 8139   0.848   6.207   7.310 -0.0607 -0.2360 -2.5196
   77CHL1  H11B 8140   0.882   6.382   7.281  1.2548  0.5004  0.2490
   77CHL1    C9 8141   1.036   6.247   7.204  0.0557  0.1461 -0.0439
   77CHL1    H9 8142   1.113   6.326   7.216 -0.8436  0.9711  0.3938
   77CHL1   C10 8143   0.987   6.230   7.059 -0.3529 -0.4100  0.3197
   77CHL1   C19 8144   0.856   6.146   7.045  0.4324  0.3979  0.1610
   77CHL1  H19A 8145   0.872   6.050   7.098 -0.2954  0.4240  0.4480
   77CHL1  H19B 8146   0.779   6.200   7.104  0.9485 -0.0300  1.2618
   77CHL1  H19C 8147   0.825   6.133   6.939 -0.6278 -0.5805  0.5752
   77CHL1    C1 8148   0.971   6.368   6.989 -0.5064 -0.2964  0.1946
   77CHL1   H1A 8149   0.892   6.425   7.041 -0.4044  1.0085 -1.0237
   77CHL1   H1B 8150   1.063   6.428   7.004 -1.4953  0.6869  2.8085
   77CHL1    C2 8151   0.934   6.370   6.841  0.1048  0.1568 -0.3406
   77CHL1   H2A 8152   0.933   6.476   6.808  2.6035  0.2697 -0.2518
   77CHL1   H2B 8153   0.833   6.324   6.828 -0.1212  1.0706 -2.2017
   77CHL1   C20 8154   1.056   6.132   7.756 -0.2599  0.2407 -0.5966
   77CHL1   H20 8155   1.015   6.029   7.764  0.7306 -0.1787 -0.7838
   77CHL1   C21 8156   0.946   6.243   7.763 -1.0089  0.3320 -0.2909
   77CHL1  H21A 8157   0.852   6.204   7.718 -1.5403  0.3151  0.7811
   77CHL1  H21B 8158   0.977   6.338   7.716  1.4611  0.8461  2.1437
   77CHL1  H21C 8159   0.925   6.251   7.872 -1.0201  1.3277 -0.3592
   77CHL1   C22 8160   1.147   6.138   7.880 -0.0601  0.0091  0.1522
   77CHL1  H22A 8161   1.237   6.074   7.867 -0.8286 -1.0267 -0.2065
   77CHL1  H22B 8162   1.180   6.241   7.907  1.3467 -1.0715  2.8903
   77CHL1   C23 8163   1.070   6.079   8.003  0.1883  0.4149  0.6545
   77CHL1  H23A 8164   0.977   6.129   8.040 -0.1925  1.6657 -1.7700
   77CHL1  H23B 8165   1.031   5.983   7.965 -0.0164  0.8173 -0.1726
   77CHL1   C24 8166   1.167   6.047   8.118  0.3189 -0.1951  0.2180
   77CHL1  H24A 8167   1.256   5.991   8.083  1.1253  0.0073  1.8281
   77CHL1  H24B 8168   1.207   6.144   8.157  3.0669 -0.4984 -1.5558
   77CHL1   C25 8169   1.105   5.977   8.247 -0.3119  0.1105  0.7470
   77CHL1   H25 8170   1.040   5.895   8.209 -1.4084  1.7106 -1.0650
   77CHL1   C26 8171   1.218   5.926   8.343 -0.3188 -0.5633 -0.6352
   77CHL1  H26A 8172   1.289   6.007   8.372  0.7265 -1.4133 -0.7576
   77CHL1  H26B 8173   1.188   5.885   8.442  0.7136 -1.6208 -0.7354
   77CHL1  H26C 8174   1.277   5.852   8.286  3.0040  1.4286 -0.0724
   77CHL1   C27 8175   1.017   6.079   8.328  0.7304  0.1154 -0.3467
   77CHL1  H27A 8176   1.054   6.074   8.433 -0.7068  0.7925  0.2140
   77CHL1  H27B 8177   1.029   6.185   8.297 -1.8791  0.3588 -0.7184
   77CHL1  H27C 8178   0.909   6.068   8.305  0.8081 -1.1510 -0.1517
   78CHL1    C3 8179   3.434   3.143   6.661 -0.0861 -0.0167  0.4594
   78CHL1    H3 8180   3.545   3.138   6.662 -0.0520  0.0159 -0.9247
   78CHL1    O3 8181   3.404   3.128   6.521  0.1827  0.1871 -0.3694
   78CHL1   H3' 8182   3.309   3.140   6.527  0.1521  1.3083 -2.1614
   78CHL1    C4 8183   3.384   3.014   6.725  0.7309 -0.1732  0.3372
   78CHL1   H4A 8184   3.276   2.998   6.702  0.3398  0.9791  1.2838
   78CHL1   H4B 8185   3.440   2.932   6.675  1.0174 -0.0953  0.5307
   78CHL1    C5 8186   3.407   3.013   6.872 -0.3341 -0.1769  0.9664
   78CHL1    C6 8187   3.475   2.923   6.939  1.2418  0.1788 -0.0482
   78CHL1    H6 8188   3.505   2.835   6.879  0.1199  0.2917 -0.7963
   78CHL1    C7 8189   3.484   2.924   7.088 -0.0471 -0.0824  0.1181
   78CHL1   H7A 8190   3.479   2.824   7.138 -0.6667 -0.6780 -1.1092
   78CHL1   H7B 8191   3.591   2.947   7.111  0.2125  0.2377 -1.3518
   78CHL1    C8 8192   3.389   3.015   7.163  0.0754 -0.3797 -0.1896
   78CHL1    H8 8193   3.289   2.971   7.185 -0.7826  1.7766  0.4283
   78CHL1   C14 8194   3.451   3.037   7.304  0.8786  0.6545  0.0584
   78CHL1   H14 8195   3.549   3.084   7.283 -0.0347  1.6773 -2.1732
   78CHL1   C15 8196   3.472   2.914   7.392  0.1360 -0.0690  0.0490
   78CHL1  H15A 8197   3.390   2.838   7.394 -1.7515  1.8600 -0.5919
   78CHL1  H15B 8198   3.563   2.862   7.355 -0.1243  0.3448 -1.2274
   78CHL1   C16 8199   3.508   2.977   7.528  0.1423  0.5497  0.4320
   78CHL1  H16A 8200   3.431   2.935   7.596 -1.5345  0.1342 -1.5983
   78CHL1  H16B 8201   3.608   2.949   7.566  0.0330 -1.1086 -0.4305
   78CHL1   C17 8202   3.466   3.128   7.515  0.3041  0.5588 -0.3319
   78CHL1   H17 8203   3.554   3.194   7.498  0.6365  0.2125  0.0426
   78CHL1   C13 8204   3.378   3.136   7.390  0.5779  0.1005  0.2508
   78CHL1   C18 8205   3.231   3.078   7.425 -0.3230 -0.0379 -0.0195
   78CHL1  H18A 8206   3.230   2.977   7.472 -1.5884 -0.6688 -1.3311
   78CHL1  H18B 8207   3.184   3.145   7.501 -2.6625 -0.6913 -0.7939
   78CHL1  H18C 8208   3.162   3.086   7.338 -0.3144 -1.7492 -0.2294
   78CHL1   C12 8209   3.372   3.268   7.310 -0.1609 -0.2230 -0.4621
   78CHL1  H12A 8210   3.307   3.332   7.374  0.3873  0.9627 -1.0686
   78CHL1  H12B 8211   3.466   3.327   7.311 -1.1946  1.5408  1.0452
   78CHL1   C11 8212   3.310   3.257   7.172  0.6169 -0.0947  0.6299
   78CHL1  H11A 8213   3.203   3.233   7.190  0.1763  1.3509  0.0866
   78CHL1  H11B 8214   3.306   3.359   7.128  0.1459  0.3668  1.7002
   78CHL1    C9 8215   3.387   3.152   7.101  0.1300 -0.1514  0.3619
   78CHL1    H9 8216   3.493   3.184   7.089  0.0307  0.7539  1.6449
   78CHL1   C10 8217   3.355   3.141   6.944 -0.2755  0.3972 -0.3222
   78CHL1   C19 8218   3.205   3.147   6.938  0.0149 -0.0142  0.6174
   78CHL1  H19A 8219   3.166   3.249   6.959  1.2939  0.6573 -0.1404
   78CHL1  H19B 8220   3.163   3.139   6.836  0.0736  0.3548  0.5597
   78CHL1  H19C 8221   3.141   3.078   6.996 -1.9180  0.4965 -0.7916
   78CHL1    C1 8222   3.410   3.263   6.874  0.0034  0.5014 -0.2650
   78CHL1   H1A 8223   3.379   3.363   6.910  1.6464  2.0240 -2.7785
   78CHL1   H1B 8224   3.521   3.267   6.880 -0.0730  0.7452  1.8125
   78CHL1    C2 8225   3.381   3.270   6.723  0.1869 -1.0216 -0.3315
   78CHL1   H2A 8226   3.431   3.361   6.683  2.1080 -1.3363  1.1989
   78CHL1   H2B 8227   3.273   3.281   6.701  0.0049 -2.4657 -0.2484
   78CHL1   C20 8228   3.397   3.185   7.644 -0.7515  0.1320 -0.3918
   78CHL1   H20 8229   3.307   3.126   7.672 -0.2757  0.2910  1.6209
   78CHL1   C21 8230   3.347   3.332   7.637 -0.0176 -0.3531 -0.0038
   78CHL1  H21A 8231   3.319   3.371   7.737 -0.0653  0.0644 -0.1785
   78CHL1  H21B 8232   3.255   3.340   7.575 -0.1711  0.1886  0.2855
   78CHL1  H21C 8233   3.419   3.399   7.586 -1.0392 -0.8463 -2.1926
   78CHL1   C22 8234   3.495   3.170   7.771 -0.2125 -0.1809 -0.0677
   78CHL1  H22A 8235   3.555   3.077   7.760  1.8344  1.2597 -2.0973
   78CHL1  H22B 8236   3.572   3.250   7.777  0.8020 -1.1936  0.5305
   78CHL1   C23 8237   3.412   3.168   7.901  0.6397 -0.6153 -0.8606
   78CHL1  H23A 8238   3.397   3.265   7.953  0.4656 -1.0133 -0.1667
   78CHL1  H23B 8239   3.315   3.121   7.875 -0.7283  1.2957  0.4803
   78CHL1   C24 8240   3.490   3.085   8.005  1.0142  0.0650 -0.0305
   78CHL1  H24A 8241   3.526   2.993   7.955  0.9840 -0.9151  1.6724
   78CHL1  H24B 8242   3.577   3.143   8.043 -0.5696  0.5343  3.2779
   78CHL1   C25 8243   3.416   3.049   8.134  0.3325 -0.1645 -0.4690
   78CHL1   H25 8244   3.486   2.999   8.205 -1.9444 -2.6386  0.1594
   78CHL1   C26 8245   3.355   3.175   8.204 -0.1314 -0.3104  0.1638
   78CHL1  H26A 8246   3.287   3.141   8.284 -0.2047  1.4937  0.8977
   78CHL1  H26B 8247   3.430   3.243   8.250 -1.3949  1.5712 -0.4509
   78CHL1  H26C 8248   3.298   3.242   8.136 -0.7410 -0.9421  0.0455
   78CHL1   C27 8249   3.301   2.947   8.108  0.2531  0.0815 -0.5192
   78CHL1  H27A 8250   3.251   2.928   8.205 -1.2502 -0.8633 -1.4153
   78CHL1  H27B 8251   3.234   2.997   8.035  0.0342 -1.6530 -1.5679
   78CHL1  H27C 8252   3.346   2.854   8.066  2.9308  0.5317  1.1330
   79CHL1    C3 8253   6.368   0.687   7.090  0.2770  0.0609  0.5079
   79CHL1    H3 8254   6.395   0.580   7.103 -0.8958 -0.2666  0.3666
   79CHL1    O3 8255   6.320   0.700   6.954 -0.2031 -0.0965  0.4462
   79CHL1   H3' 8256   6.282   0.787   6.943 -0.1670  0.4559  3.5746
   79CHL1    C4 8257   6.258   0.720   7.190  0.6234 -0.7744  0.3481
   79CHL1   H4A 8258   6.229   0.826   7.178 -0.8293 -0.9031  2.2562
   79CHL1   H4B 8259   6.169   0.659   7.162  0.3249 -1.0388  1.7822
   79CHL1    C5 8260   6.301   0.703   7.335  0.2864  0.3212 -0.4468
   79CHL1    C6 8261   6.226   0.616   7.406 -0.1144  0.4174 -0.0035
   79CHL1    H6 8262   6.143   0.563   7.356 -0.5007 -0.3734  1.4255
   79CHL1    C7 8263   6.251   0.588   7.551 -0.2726  0.9377  0.1937
   79CHL1   H7A 8264   6.151   0.602   7.597 -1.1702 -1.5673 -0.8376
   79CHL1   H7B 8265   6.268   0.479   7.560 -0.3658  0.8902 -0.2023
   79CHL1    C8 8266   6.365   0.672   7.607 -0.0729  0.1122 -0.0462
   79CHL1    H8 8267   6.308   0.766   7.626 -1.2034 -0.8032  1.3344
   79CHL1   C14 8268   6.423   0.600   7.737 -0.1238  0.6462  0.6513
   79CHL1   H14 8269   6.484   0.516   7.694 -1.2924 -0.7323  1.6076
   79CHL1   C15 8270   6.326   0.531   7.836 -0.4612  0.8468  0.3105
   79CHL1  H15A 8271   6.252   0.609   7.862 -1.9650 -0.0859 -1.0145
   79CHL1  H15B 8272   6.283   0.437   7.796 -2.0583  1.9391 -0.6532
   79CHL1   C16 8273   6.418   0.507   7.962  0.0545 -0.3580 -0.0538
   79CHL1  H16A 8274   6.371   0.555   8.050 -1.0877 -0.2764 -0.6885
   79CHL1  H16B 8275   6.443   0.402   7.987 -1.2100 -0.2689  1.7402
   79CHL1   C17 8276   6.558   0.575   7.922  0.1167  0.3704  0.0039
   79CHL1   H17 8277   6.610   0.497   7.862  2.3120  0.2916  1.8785
   79CHL1   C13 8278   6.518   0.685   7.819  0.6548 -0.2709  0.0802
   79CHL1   C18 8279   6.434   0.804   7.887 -0.1511  0.0786  0.0197
   79CHL1  H18A 8280   6.353   0.758   7.948  0.1098 -2.1700 -1.2246
   79CHL1  H18B 8281   6.497   0.849   7.967 -0.7758  1.9890 -0.5120
   79CHL1  H18C 8282   6.397   0.877   7.812  2.9644  0.0172 -1.7305
   79CHL1   C12 8283   6.635   0.723   7.724 -0.0618 -0.7329  0.3514
   79CHL1  H12A 8284   6.708   0.788   7.778  0.3956  0.5895 -1.7446
   79CHL1  H12B 8285   6.694   0.633   7.694 -1.6702 -2.4290  2.0487
   79CHL1   C11 8286   6.584   0.791   7.592 -0.2433  0.3404  0.0225
   79CHL1  H11A 8287   6.539   0.887   7.623 -0.7998  0.2259 -0.4161
   79CHL1  H11B 8288   6.669   0.815   7.525 -0.0004  0.2624  0.3046
   79CHL1    C9 8289   6.475   0.706   7.514 -0.1376  0.2222  0.1906
   79CHL1    H9 8290   6.519   0.608   7.489  0.1733 -0.1076  1.8814
   79CHL1   C10 8291   6.429   0.769   7.379 -0.0177 -0.2033 -0.1049
   79CHL1   C19 8292   6.395   0.920   7.401 -0.0960  0.8304 -0.4367
   79CHL1  H19A 8293   6.310   0.927   7.472  0.8995 -2.3841  1.2653
   79CHL1  H19B 8294   6.479   0.985   7.435 -0.5640  0.4805  1.5046
   79CHL1  H19C 8295   6.368   0.967   7.304  1.7389 -3.1030 -3.1320
   79CHL1    C1 8296   6.535   0.763   7.264 -0.0483 -0.2118  0.7712
   79CHL1   H1A 8297   6.612   0.840   7.286  2.3958 -1.8674 -1.3308
   79CHL1   H1B 8298   6.587   0.666   7.273 -2.3941 -1.7442 -0.9747
   79CHL1    C2 8299   6.486   0.782   7.116  0.6124 -0.3652 -0.3842
   79CHL1   H2A 8300   6.575   0.762   7.052  0.8363 -1.0853  0.1470
   79CHL1   H2B 8301   6.459   0.888   7.098  1.4046 -0.2456 -0.9258
   79CHL1   C20 8302   6.644   0.602   8.039 -0.1434  0.6265 -0.5493
   79CHL1   H20 8303   6.740   0.640   7.999  0.9818 -1.1674  0.3207
   79CHL1   C21 8304   6.679   0.459   8.091  0.6606  0.4342  0.1490
   79CHL1  H21A 8305   6.598   0.395   8.133  1.9113  0.2479  2.4620
   79CHL1  H21B 8306   6.759   0.464   8.168  2.9264 -2.6254 -1.7817
   79CHL1  H21C 8307   6.718   0.399   8.006  1.2011  0.2315  0.5366
   79CHL1   C22 8308   6.609   0.707   8.147  0.1966 -0.1396  0.4752
   79CHL1  H22A 8309   6.638   0.805   8.103  1.8409 -0.4850  0.7006
   79CHL1  H22B 8310   6.501   0.705   8.171 -0.7542  1.2758 -3.1249
   79CHL1   C23 8311   6.691   0.697   8.272 -0.3373  1.4488  0.9013
   79CHL1  H23A 8312   6.678   0.597   8.319  1.7007  1.2609  1.1509
   79CHL1  H23B 8313   6.795   0.693   8.235 -0.6870 -2.7235 -0.1525
   79CHL1   C24 8314   6.671   0.806   8.372  0.7196 -0.7005 -0.5916
   79CHL1  H24A 8315   6.679   0.903   8.318 -0.5442  0.9056  1.8895
   79CHL1  H24B 8316   6.567   0.823   8.407  1.6547  3.3041  0.7859
   79CHL1   C25 8317   6.767   0.808   8.491  0.2060  0.4764  0.5011
   79CHL1   H25 8318   6.734   0.725   8.557  0.0689  0.7958  0.8368
   79CHL1   C26 8319   6.911   0.780   8.439  0.7656 -0.1802  0.3331
   79CHL1  H26A 8320   6.940   0.859   8.366 -1.0450  0.0571 -0.1914
   79CHL1  H26B 8321   6.981   0.797   8.524  0.9042  0.5663  0.0786
   79CHL1  H26C 8322   6.918   0.675   8.405  2.0414 -0.4926  1.4624
   79CHL1   C27 8323   6.760   0.936   8.580 -0.1020  0.3577 -0.1615
   79CHL1  H27A 8324   6.812   0.928   8.677  1.2401  0.0615 -0.8889
   79CHL1  H27B 8325   6.803   1.024   8.528  0.0035 -0.9282 -2.3935
   79CHL1  H27C 8326   6.651   0.943   8.601 -0.1164 -1.3173  0.5062
   80CHL1    C3 8327   0.569   5.469   7.014  0.1550 -0.3192  0.4548
   80CHL1    H3 8328   0.677   5.494   7.009  0.2161 -0.8317 -1.5863
   80CHL1    O3 8329   0.506   5.494   6.885  0.1875  0.2797  0.3386
   80CHL1   H3' 8330   0.505   5.414   6.833  1.9798  2.1434 -2.9100
   80CHL1    C4 8331   0.560   5.320   7.054 -0.6181 -0.9278 -0.1993
   80CHL1   H4A 8332   0.456   5.283   7.043 -0.8326 -0.8701  1.4039
   80CHL1   H4B 8333   0.619   5.256   6.985  2.9696  0.0356  1.7402
   80CHL1    C5 8334   0.614   5.315   7.199 -0.0610 -0.1933 -0.3377
   80CHL1    C6 8335   0.722   5.240   7.229  0.3680 -0.3415 -0.4928
   80CHL1    H6 8336   0.766   5.179   7.148  1.2701 -0.4695  0.0750
   80CHL1    C7 8337   0.762   5.197   7.368 -0.5174 -0.6463 -0.2711
   80CHL1   H7A 8338   0.783   5.089   7.379 -1.8776 -0.7258  2.5798
   80CHL1   H7B 8339   0.856   5.250   7.395 -1.0094  0.1772 -0.1368
   80CHL1    C8 8340   0.657   5.244   7.470 -0.1796  0.7132 -0.1978
   80CHL1    H8 8341   0.573   5.171   7.469  1.9773 -1.9532  0.4474
   80CHL1   C14 8342   0.718   5.249   7.608 -0.7095 -0.3334  0.3681
   80CHL1   H14 8343   0.801   5.323   7.614  0.6029 -1.6843 -0.4696
   80CHL1   C15 8344   0.794   5.119   7.648  0.3304  0.3488 -0.0516
   80CHL1  H15A 8345   0.739   5.026   7.621  2.1114 -1.2484  1.5876
   80CHL1  H15B 8346   0.885   5.127   7.585  0.6828 -0.2003  0.3825
   80CHL1   C16 8347   0.821   5.141   7.794  0.0807  0.6421 -0.7630
   80CHL1  H16A 8348   0.780   5.056   7.852 -2.5255  2.0193 -0.4024
   80CHL1  H16B 8349   0.927   5.164   7.817  0.0692  1.0669 -1.1142
   80CHL1   C17 8350   0.727   5.260   7.848  0.7069  1.0009  0.1296
   80CHL1   H17 8351   0.792   5.350   7.851  1.6972  0.3126 -0.1242
   80CHL1   C13 8352   0.629   5.289   7.725  0.1605  0.2855 -0.6052
   80CHL1   C18 8353   0.504   5.201   7.746  0.8507 -0.2774 -0.5015
   80CHL1  H18A 8354   0.435   5.241   7.823  1.6883  0.8913 -0.3264
   80CHL1  H18B 8355   0.439   5.184   7.657  1.1569  0.1975 -0.8230
   80CHL1  H18C 8356   0.550   5.104   7.777  3.3587  0.7265 -0.8089
   80CHL1   C12 8357   0.589   5.435   7.699  0.3230 -0.5008 -0.1211
   80CHL1  H12A 8358   0.513   5.461   7.776 -1.0369 -0.9097 -1.3063
   80CHL1  H12B 8359   0.675   5.506   7.708 -0.7037  1.0020 -1.6657
   80CHL1   C11 8360   0.517   5.447   7.563 -0.5479  0.4361 -0.0850
   80CHL1  H11A 8361   0.424   5.391   7.580  0.2949 -1.2400 -0.7752
   80CHL1  H11B 8362   0.491   5.552   7.537 -0.5931  0.8261  1.4506
   80CHL1    C9 8363   0.602   5.383   7.442 -0.5617  0.5432  0.0920
   80CHL1    H9 8364   0.696   5.442   7.433  1.5550 -2.6245 -0.0252
   80CHL1   C10 8365   0.530   5.388   7.301 -0.0302 -0.1747  0.2727
   80CHL1   C19 8366   0.386   5.337   7.317  0.0147 -0.2418  0.0268
   80CHL1  H19A 8367   0.389   5.242   7.375  3.7268  0.8561  2.0275
   80CHL1  H19B 8368   0.323   5.398   7.385 -0.4629  0.5981 -1.1388
   80CHL1  H19C 8369   0.327   5.314   7.226  0.2696 -0.1620 -0.1581
   80CHL1    C1 8370   0.530   5.537   7.252 -0.0297  0.0778  0.0019
   80CHL1   H1A 8371   0.464   5.590   7.323 -0.7054  0.7221 -1.0723
   80CHL1   H1B 8372   0.633   5.577   7.260  1.2341 -2.6662 -1.1965
   80CHL1    C2 8373   0.490   5.564   7.108  0.4402  0.8542 -0.2326
   80CHL1   H2A 8374   0.533   5.662   7.081  3.3117 -0.1689  0.2953
   80CHL1   H2B 8375   0.380   5.561   7.090  0.8374 -0.1706 -3.0562
   80CHL1   C20 8376   0.676   5.247   7.993 -0.0923  0.0031  0.2735
   80CHL1   H20 8377   0.602   5.163   7.994  0.5491 -0.7214 -2.9719
   80CHL1   C21 8378   0.592   5.369   8.034 -0.1475  0.6321 -0.3315
   80CHL1  H21A 8379   0.562   5.359   8.141  1.3652  0.9622  0.1612
   80CHL1  H21B 8380   0.500   5.387   7.976 -0.0900 -0.0017 -0.6259
   80CHL1  H21C 8381   0.660   5.457   8.020  0.3728  0.1671 -0.7447
   80CHL1   C22 8382   0.773   5.204   8.100  0.1340  0.4362  0.0985
   80CHL1  H22A 8383   0.846   5.128   8.066 -0.9556  0.3176 -2.1720
   80CHL1  H22B 8384   0.843   5.287   8.126 -0.0635  0.5085  0.4066
   80CHL1   C23 8385   0.704   5.142   8.224  0.1915  0.3847 -0.3075
   80CHL1  H23A 8386   0.642   5.222   8.269  0.4440 -0.5071  1.7228
   80CHL1  H23B 8387   0.638   5.055   8.200 -0.0269  0.1084  1.2162
   80CHL1   C24 8388   0.810   5.093   8.330  0.5817 -0.2291 -0.0798
   80CHL1  H24A 8389   0.869   5.016   8.275  0.8602 -0.9741  1.2265
   80CHL1  H24B 8390   0.887   5.168   8.360  0.2174  0.3590 -0.5780
   80CHL1   C25 8391   0.741   5.024   8.446 -0.1306  0.0007  0.2302
   80CHL1   H25 8392   0.703   4.925   8.415 -1.3701 -0.0260  1.7269
   80CHL1   C26 8393   0.837   4.991   8.561  0.0352  0.0228  0.4743
   80CHL1  H26A 8394   0.900   5.081   8.578  1.4985 -0.6883 -0.8261
   80CHL1  H26B 8395   0.799   4.938   8.650 -0.4706  1.1655  0.9601
   80CHL1  H26C 8396   0.902   4.917   8.509 -3.1524 -1.0808 -2.3037
   80CHL1   C27 8397   0.623   5.096   8.506  0.2461 -0.1722  0.3339
   80CHL1  H27A 8398   0.652   5.201   8.530 -0.0462 -0.4650  2.0842
   80CHL1  H27B 8399   0.536   5.105   8.437  0.3327 -3.0666 -0.2509
   80CHL1  H27C 8400   0.577   5.059   8.600  0.3797  0.6328  0.7231
   81CHL1    C3 8401   2.675   5.059   6.661 -0.4059 -0.1942  0.4996
   81CHL1    H3 8402   2.565   5.049   6.669 -0.2931 -1.5074  0.7045
   81CHL1    O3 8403   2.708   5.041   6.531  0.0287  0.0683 -0.1689
   81CHL1   H3' 8404   2.800   5.069   6.527 -0.4184  1.5703 -0.8124
   81CHL1    C4 8405   2.714   5.203   6.698 -0.2203 -0.3419 -0.2826
   81CHL1   H4A 8406   2.818   5.221   6.663 -0.0731  1.0169  0.7696
   81CHL1   H4B 8407   2.658   5.272   6.631  0.2827 -0.3666 -0.7366
   81CHL1    C5 8408   2.686   5.226   6.843  0.6735  0.0144  0.0364
   81CHL1    C6 8409   2.621   5.336   6.881 -0.1987 -0.1496 -0.2354
   81CHL1    H6 8410   2.599   5.404   6.799  4.1613 -0.2691 -1.7671
   81CHL1    C7 8411   2.585   5.378   7.023  0.1010  0.5966  0.1604
   81CHL1   H7A 8412   2.595   5.488   7.038 -1.5518  1.2677 -2.7881
   81CHL1   H7B 8413   2.479   5.350   7.044 -0.5108  0.4352 -2.7283
   81CHL1    C8 8414   2.671   5.297   7.119  0.0377  0.0812 -0.1047
   81CHL1    H8 8415   2.774   5.338   7.118 -0.7493  2.1894  0.5461
   81CHL1   C14 8416   2.624   5.319   7.259  0.5613  0.3316 -0.0189
   81CHL1   H14 8417   2.519   5.282   7.261 -0.0535  1.8781  3.3644
   81CHL1   C15 8418   2.615   5.465   7.306 -0.2126  0.8796 -0.4308
   81CHL1  H15A 8419   2.706   5.526   7.286  0.4552  1.4589  3.5142
   81CHL1  H15B 8420   2.522   5.506   7.262  0.0661  1.0894 -0.8272
   81CHL1   C16 8421   2.602   5.455   7.454  0.0955  0.8204  0.0069
   81CHL1  H16A 8422   2.691   5.505   7.498  0.7812  1.1066 -1.6122
   81CHL1  H16B 8423   2.511   5.505   7.492 -0.7135 -1.7138  1.6260
   81CHL1   C17 8424   2.613   5.303   7.493 -0.3545 -0.1536 -0.8815
   81CHL1   H17 8425   2.508   5.267   7.492  0.1053 -1.5367 -1.7131
   81CHL1   C13 8426   2.693   5.244   7.370 -0.0153  0.5488 -0.4889
   81CHL1   C18 8427   2.840   5.286   7.377 -0.4828 -0.0813  0.0103
   81CHL1  H18A 8428   2.849   5.397   7.384 -1.0324  0.1432 -2.1993
   81CHL1  H18B 8429   2.899   5.221   7.446  2.1312  0.6983 -1.3642
   81CHL1  H18C 8430   2.884   5.261   7.278  1.5509  0.0443  0.8430
   81CHL1   C12 8431   2.682   5.093   7.344 -0.3767  0.3476 -0.0366
   81CHL1  H12A 8432   2.740   5.037   7.420 -1.6058  1.0861  1.4750
   81CHL1  H12B 8433   2.577   5.056   7.347  0.5642 -2.7598 -1.3660
   81CHL1   C11 8434   2.727   5.061   7.201 -0.4742  0.2178  0.5706
   81CHL1  H11A 8435   2.837   5.052   7.203 -0.2831  1.7420 -0.8232
   81CHL1  H11B 8436   2.697   4.955   7.189 -0.0418  0.2126 -0.6546
   81CHL1    C9 8437   2.671   5.149   7.080 -0.1570 -0.4327 -0.1128
   81CHL1    H9 8438   2.563   5.124   7.072 -0.3991  0.0453  1.3525
   81CHL1   C10 8439   2.728   5.119   6.941 -0.9007  0.2433  0.4413
   81CHL1   C19 8440   2.880   5.120   6.950  0.4267  0.2485 -0.4095
   81CHL1  H19A 8441   2.915   5.205   7.012  1.0556 -0.0563 -0.3343
   81CHL1  H19B 8442   2.917   5.021   6.984  1.4301  0.4783 -0.7916
   81CHL1  H19C 8443   2.926   5.129   6.849 -1.4644  1.6920 -1.1911
   81CHL1    C1 8444   2.685   4.979   6.892  0.2918  0.1349 -0.0491
   81CHL1   H1A 8445   2.736   4.900   6.951 -0.2200 -0.5191 -0.4676
   81CHL1   H1B 8446   2.574   4.968   6.893  0.1338  0.4176 -3.4038
   81CHL1    C2 8447   2.738   4.950   6.753  0.1495 -0.4757  0.1212
   81CHL1   H2A 8448   2.697   4.851   6.723 -1.5929  0.3799 -0.4905
   81CHL1   H2B 8449   2.847   4.963   6.741  0.0977  0.2811  0.4486
   81CHL1   C20 8450   2.678   5.288   7.631  0.1476 -0.6855 -0.2449
   81CHL1   H20 8451   2.779   5.336   7.628  0.8725 -2.2065 -2.2195
   81CHL1   C21 8452   2.688   5.136   7.659 -0.0214 -0.9241 -0.4999
   81CHL1  H21A 8453   2.603   5.086   7.607 -0.6877 -0.6366  0.2779
   81CHL1  H21B 8454   2.679   5.100   7.764  1.9044 -1.3166 -0.4425
   81CHL1  H21C 8455   2.784   5.102   7.615  1.9283  3.0706  0.2430
   81CHL1   C22 8456   2.608   5.353   7.752 -0.2724  0.4360  0.1550
   81CHL1  H22A 8457   2.579   5.453   7.712  0.6537  0.8639  0.5135
   81CHL1  H22B 8458   2.517   5.291   7.766 -0.2466 -0.8389 -3.9745
   81CHL1   C23 8459   2.706   5.364   7.865  0.4017  0.9924 -0.0553
   81CHL1  H23A 8460   2.755   5.266   7.885  1.3321  1.0348 -1.9872
   81CHL1  H23B 8461   2.791   5.433   7.848 -0.2850  2.1375  0.9315
   81CHL1   C24 8462   2.642   5.423   7.995 -0.2205  0.2938  0.1912
   81CHL1  H24A 8463   2.725   5.436   8.068  2.8408 -4.8188 -1.9005
   81CHL1  H24B 8464   2.597   5.524   7.978 -0.2793  0.0999 -0.8859
   81CHL1   C25 8465   2.550   5.327   8.067  0.0696  0.5426 -0.1790
   81CHL1   H25 8466   2.462   5.312   8.001  0.1961  1.5197 -0.5849
   81CHL1   C26 8467   2.623   5.185   8.079  0.7560  0.6158 -0.4743
   81CHL1  H26A 8468   2.625   5.134   7.981 -0.1663  1.5902 -1.0280
   81CHL1  H26B 8469   2.730   5.205   8.101  1.6655 -0.6219 -3.3234
   81CHL1  H26C 8470   2.577   5.122   8.158  1.4829  0.3584 -0.2485
   81CHL1   C27 8471   2.507   5.381   8.209  0.2391 -0.3109  0.1925
   81CHL1  H27A 8472   2.426   5.326   8.261  0.4193  1.1743  2.1628
   81CHL1  H27B 8473   2.587   5.368   8.285  1.0588 -0.0290 -0.6087
   81CHL1  H27C 8474   2.475   5.486   8.192  1.3727 -0.1179 -0.9251
   82CHL1    C3 8475   4.682   5.097   6.847  0.3507 -0.7879 -0.2649
   82CHL1    H3 8476   4.660   4.995   6.885  1.2153 -0.8506  0.0837
   82CHL1    O3 8477   4.675   5.068   6.709  0.0154 -0.4382  0.2725
   82CHL1   H3' 8478   4.764   5.070   6.672 -0.6816 -1.3584 -1.5885
   82CHL1    C4 8479   4.573   5.200   6.881  0.4310  0.3176 -0.3081
   82CHL1   H4A 8480   4.579   5.287   6.811  0.5879  0.8747  0.3779
   82CHL1   H4B 8481   4.478   5.145   6.866  0.1320  0.3449  1.2468
   82CHL1    C5 8482   4.581   5.254   7.020  0.7169  0.1188 -0.3613
   82CHL1    C6 8483   4.470   5.248   7.102  0.4660  0.1124 -0.3759
   82CHL1    H6 8484   4.374   5.214   7.060  1.9521 -1.9987 -2.3135
   82CHL1    C7 8485   4.468   5.302   7.235 -0.0986  0.0953 -0.4969
   82CHL1   H7A 8486   4.372   5.356   7.248 -1.0965 -1.7408  0.1240
   82CHL1   H7B 8487   4.465   5.220   7.310 -0.1107  1.2655  0.8401
   82CHL1    C8 8488   4.588   5.394   7.264 -0.9868 -0.0347  0.5492
   82CHL1    H8 8489   4.574   5.492   7.214  2.9013  1.1593  1.4235
   82CHL1   C14 8490   4.605   5.435   7.413  0.5506 -0.4893 -0.0644
   82CHL1   H14 8491   4.630   5.340   7.464 -1.3120 -0.1656  1.5480
   82CHL1   C15 8492   4.480   5.488   7.482  0.2979  0.0711  0.3404
   82CHL1  H15A 8493   4.428   5.561   7.415  1.3984 -0.2085 -0.8488
   82CHL1  H15B 8494   4.407   5.409   7.510 -2.0636  2.1375  0.4021
   82CHL1   C16 8495   4.539   5.565   7.604  0.4508 -0.2070 -0.4373
   82CHL1  H16A 8496   4.512   5.672   7.598 -0.5963 -0.4431 -0.2706
   82CHL1  H16B 8497   4.500   5.534   7.704 -1.0678  1.5103 -0.4467
   82CHL1   C17 8498   4.691   5.555   7.586  0.2933  0.0373  0.6195
   82CHL1   H17 8499   4.716   5.461   7.638  1.9965  0.8929  1.4224
   82CHL1   C13 8500   4.722   5.531   7.438  0.3389 -0.1926  0.0531
   82CHL1   C18 8501   4.716   5.664   7.355 -0.2990  0.1510  0.3869
   82CHL1  H18A 8502   4.728   5.641   7.247  0.1244  2.5158 -0.1335
   82CHL1  H18B 8503   4.624   5.719   7.385 -0.7305  1.7893 -3.3676
   82CHL1  H18C 8504   4.799   5.732   7.383 -1.9582  2.2025  0.5641
   82CHL1   C12 8505   4.847   5.452   7.406  0.1212 -0.3887  0.2003
   82CHL1  H12A 8506   4.938   5.512   7.430 -0.6502  0.7811  0.2968
   82CHL1  H12B 8507   4.838   5.372   7.483 -3.4121  0.7700  1.1728
   82CHL1   C11 8508   4.852   5.403   7.262  0.1453 -0.3240  0.7755
   82CHL1  H11A 8509   4.882   5.493   7.203  1.2012  0.4858  2.4779
   82CHL1  H11B 8510   4.935   5.330   7.249 -0.4136 -0.7317 -0.7074
   82CHL1    C9 8511   4.724   5.330   7.218  0.2432 -0.7486 -0.4141
   82CHL1    H9 8512   4.723   5.231   7.269  1.2698  0.2482  1.6372
   82CHL1   C10 8513   4.724   5.300   7.064  1.3002  0.0021 -0.5601
   82CHL1   C19 8514   4.750   5.437   6.983  0.2913  0.4638 -0.2092
   82CHL1  H19A 8515   4.742   5.424   6.873  1.6025  2.3483 -0.5741
   82CHL1  H19B 8516   4.674   5.514   7.007  0.4367  0.6112 -0.2154
   82CHL1  H19C 8517   4.851   5.476   7.008  0.1716 -0.3143  1.7066
   82CHL1    C1 8518   4.840   5.203   7.025  0.3271  0.1451  0.5649
   82CHL1   H1A 8519   4.935   5.258   7.044 -0.2011  0.5373  2.2426
   82CHL1   H1B 8520   4.835   5.117   7.096 -1.3919 -1.0553 -0.9079
   82CHL1    C2 8521   4.831   5.139   6.887  0.3106  0.0119  0.1839
   82CHL1   H2A 8522   4.905   5.058   6.881 -0.0398 -0.3211  0.3178
   82CHL1   H2B 8523   4.880   5.214   6.821 -1.2317  1.4022  0.5438
   82CHL1   C20 8524   4.760   5.668   7.667  0.1126  0.5014  0.5309
   82CHL1   H20 8525   4.709   5.763   7.642 -0.9364 -0.1079  0.2905
   82CHL1   C21 8526   4.910   5.666   7.648 -0.0944  0.9941  0.2190
   82CHL1  H21A 8527   4.948   5.563   7.666 -0.3500  0.9801  0.7051
   82CHL1  H21B 8528   4.972   5.743   7.699 -1.8914  1.9812  1.0080
   82CHL1  H21C 8529   4.917   5.688   7.539 -2.8137 -1.5239 -0.6102
   82CHL1   C22 8530   4.733   5.644   7.818 -0.2768  0.1413 -0.2172
   82CHL1  H22A 8531   4.625   5.652   7.842  0.1666  3.0514  1.2285
   82CHL1  H22B 8532   4.766   5.540   7.842  3.2440  1.4043  1.0328
   82CHL1   C23 8533   4.812   5.734   7.920 -0.5004  0.2692 -0.3563
   82CHL1  H23A 8534   4.919   5.706   7.929 -0.6083 -0.4804 -1.2471
   82CHL1  H23B 8535   4.812   5.833   7.871  0.9751 -0.0739 -1.1359
   82CHL1   C24 8536   4.749   5.732   8.062  0.0886 -0.1041  0.1154
   82CHL1  H24A 8537   4.649   5.780   8.053  0.5429  0.6562 -1.1888
   82CHL1  H24B 8538   4.748   5.630   8.104  3.4377  0.3807  1.7068
   82CHL1   C25 8539   4.831   5.803   8.175  0.1962 -0.1699  0.5338
   82CHL1   H25 8540   4.863   5.902   8.136  0.7891 -0.6810 -0.3280
   82CHL1   C26 8541   4.752   5.829   8.306 -0.2607  0.0150 -0.2064
   82CHL1  H26A 8542   4.678   5.910   8.291 -1.8877 -1.5439 -0.9724
   82CHL1  H26B 8543   4.706   5.730   8.326  0.6542  0.0342  2.3704
   82CHL1  H26C 8544   4.822   5.847   8.390  0.0227  0.9727 -0.6421
   82CHL1   C27 8545   4.954   5.707   8.206  0.2536  0.2647 -0.4578
   82CHL1  H27A 8546   5.019   5.752   8.284  0.2320  1.0649 -0.8823
   82CHL1  H27B 8547   4.913   5.622   8.264 -0.8438  2.3074  2.0099
   82CHL1  H27C 8548   5.009   5.679   8.114  1.5365  0.6375  0.1809
   83CHL1    C3 8549   6.663   0.260   6.796  0.1740 -0.1233  0.4947
   83CHL1    H3 8550   6.592   0.194   6.850  0.1470 -0.4973  0.0113
   83CHL1    O3 8551   6.613   0.314   6.667 -0.1946 -0.0231  0.0728
   83CHL1   H3' 8552   6.600   0.239   6.609  0.7296 -0.1892  0.0673
   83CHL1    C4 8553   6.698   0.384   6.881 -0.5097  0.1628 -0.1499
   83CHL1   H4A 8554   6.773   0.450   6.833  1.0588 -1.5934 -0.2108
   83CHL1   H4B 8555   6.601   0.435   6.896  0.1468  1.3116  0.2797
   83CHL1    C5 8556   6.743   0.343   7.024  0.3139  0.1820  0.7181
   83CHL1    C6 8557   6.672   0.384   7.129 -0.5294  0.1168 -0.6682
   83CHL1    H6 8558   6.585   0.450   7.116 -2.0090 -1.7082 -0.4103
   83CHL1    C7 8559   6.705   0.352   7.274 -0.2859 -0.2935  0.9595
   83CHL1   H7A 8560   6.692   0.442   7.338  0.6287  0.8958 -0.4764
   83CHL1   H7B 8561   6.637   0.269   7.304 -1.3605 -0.4179 -1.6220
   83CHL1    C8 8562   6.847   0.291   7.282 -0.9878  0.4135 -0.0361
   83CHL1    H8 8563   6.920   0.375   7.281 -0.5327  0.0393  0.8109
   83CHL1   C14 8564   6.858   0.225   7.422 -0.5304 -0.1601 -0.4993
   83CHL1   H14 8565   6.792   0.136   7.423  1.4813 -1.7497 -0.5127
   83CHL1   C15 8566   6.829   0.314   7.540  0.0847 -0.5918 -0.4744
   83CHL1  H15A 8567   6.871   0.416   7.528  1.2088 -0.7256  1.7394
   83CHL1  H15B 8568   6.720   0.310   7.561  0.3058 -2.0270  0.6475
   83CHL1   C16 8569   6.915   0.247   7.650 -0.2567 -0.0364  0.1359
   83CHL1  H16A 8570   6.996   0.315   7.684  1.2903 -0.6774 -2.0539
   83CHL1  H16B 8571   6.851   0.215   7.735  1.7149  0.2822  1.8216
   83CHL1   C17 8572   6.986   0.123   7.593 -0.4077  0.5106  0.6518
   83CHL1   H17 8573   6.912   0.041   7.608  0.4664 -1.1151 -2.8124
   83CHL1   C13 8574   6.996   0.159   7.440  0.0623 -0.3709 -0.7137
   83CHL1   C18 8575   7.116   0.255   7.421 -0.2619  0.0509  0.4428
   83CHL1  H18A 8576   7.122   0.322   7.510  1.7759  0.4228  0.0698
   83CHL1  H18B 8577   7.217   0.213   7.402  1.1491  3.5158 -0.6011
   83CHL1  H18C 8578   7.101   0.322   7.333 -0.2902 -1.0355 -0.3961
   83CHL1   C12 8579   7.000   0.046   7.339 -0.0536 -0.0939 -0.0767
   83CHL1  H12A 8580   7.096  -0.008   7.351  0.7791  1.1078 -1.1786
   83CHL1  H12B 8581   6.915  -0.023   7.362 -1.2012  0.2265 -2.9744
   83CHL1   C11 8582   6.990   0.098   7.190 -1.0793 -0.4849 -0.4389
   83CHL1  H11A 8583   7.081   0.160   7.173 -0.8336 -0.4074  1.0475
   83CHL1  H11B 8584   6.992   0.018   7.114 -2.1765 -0.2877 -0.6896
   83CHL1    C9 8585   6.865   0.188   7.173 -0.7148 -0.2053  0.2253
   83CHL1    H9 8586   6.783   0.114   7.181  0.9200 -2.6150 -2.9496
   83CHL1   C10 8587   6.859   0.249   7.020 -0.7713  1.0711 -0.3402
   83CHL1   C19 8588   6.988   0.331   7.001  0.1638  0.0411 -0.3931
   83CHL1  H19A 8589   7.004   0.397   7.089 -1.3879  1.8952 -1.4091
   83CHL1  H19B 8590   7.076   0.264   6.991  1.0665  0.8215  1.6793
   83CHL1  H19C 8591   6.992   0.389   6.906 -0.9716  0.8432  0.0184
   83CHL1    C1 8592   6.838   0.129   6.923  0.5168 -0.2162  0.7774
   83CHL1   H1A 8593   6.939   0.084   6.909  0.1667 -0.6798 -0.4861
   83CHL1   H1B 8594   6.768   0.054   6.965  0.2789 -1.2851 -1.3763
   83CHL1    C2 8595   6.796   0.178   6.785  0.6299 -0.7667 -0.3416
   83CHL1   H2A 8596   6.780   0.086   6.724  1.1868 -1.0282 -0.0986
   83CHL1   H2B 8597   6.867   0.249   6.737  1.9657 -1.9833 -0.2221
   83CHL1   C20 8598   7.126   0.085   7.661  1.0345  0.0367 -0.1525
   83CHL1   H20 8599   7.187   0.175   7.639  0.6590  0.3464  0.0658
   83CHL1   C21 8600   7.178  -0.040   7.586 -0.3231 -0.5676 -0.1195
   83CHL1  H21A 8601   7.237  -0.009   7.498  0.4479 -1.3707  0.0945
   83CHL1  H21B 8602   7.106  -0.120   7.557  0.2607 -1.6769  1.3025
   83CHL1  H21C 8603   7.256  -0.092   7.647 -0.4202 -0.8086 -0.1975
   83CHL1   C22 8604   7.115   0.071   7.813  0.1322 -0.3716  0.0445
   83CHL1  H22A 8605   7.220   0.075   7.849  0.1400 -2.3284  0.3169
   83CHL1  H22B 8606   7.061   0.163   7.844 -2.1112 -1.3391 -0.7516
   83CHL1   C23 8607   7.050  -0.058   7.872 -0.3463 -0.1342 -0.0277
   83CHL1  H23A 8608   6.950  -0.052   7.825 -0.1690 -0.8347 -0.5178
   83CHL1  H23B 8609   7.092  -0.150   7.826 -1.4611 -0.3080 -0.7509
   83CHL1   C24 8610   7.047  -0.071   8.023  0.0128 -0.0116 -0.5562
   83CHL1  H24A 8611   6.957  -0.021   8.066 -0.0089 -0.8628  0.4494
   83CHL1  H24B 8612   7.027  -0.175   8.057 -0.9598  0.5351  0.6149
   83CHL1   C25 8613   7.183  -0.027   8.097 -0.4908 -0.8204 -0.2944
   83CHL1   H25 8614   7.223   0.054   8.032 -0.2948 -1.1580 -0.6008
   83CHL1   C26 8615   7.164   0.015   8.248  0.8619  0.3600  0.8974
   83CHL1  H26A 8616   7.091   0.099   8.242 -0.7433 -1.0497 -0.4363
   83CHL1  H26B 8617   7.124  -0.071   8.306 -1.0209  0.8317  0.3766
   83CHL1  H26C 8618   7.262   0.047   8.288  1.0419 -0.9032  1.5165
   83CHL1   C27 8619   7.286  -0.136   8.096  0.9706 -0.0789  0.1949
   83CHL1  H27A 8620   7.291  -0.164   7.988  1.1150 -0.4255  0.2889
   83CHL1  H27B 8621   7.390  -0.113   8.129  1.2127 -1.3140  0.3432
   83CHL1  H27C 8622   7.240  -0.220   8.152 -0.5950 -1.4094 -2.8412
   84CHL1    C3 8623   4.031   3.479   6.853  0.6203 -0.1856  0.1756
   84CHL1    H3 8624   3.931   3.453   6.895 -0.2667 -0.5450 -2.0043
   84CHL1    O3 8625   4.020   3.481   6.710  0.0196 -0.0070  0.0480
   84CHL1   H3' 8626   4.107   3.475   6.668  0.3328 -0.3559  0.7264
   84CHL1    C4 8627   4.071   3.618   6.916 -0.2690  0.3898 -0.0882
   84CHL1   H4A 8628   4.159   3.644   6.853  0.9357 -2.4279  0.2738
   84CHL1   H4B 8629   3.986   3.688   6.905 -0.1322  0.5807  0.0560
   84CHL1    C5 8630   4.101   3.610   7.062  0.1726  0.9152 -0.0858
   84CHL1    C6 8631   4.043   3.687   7.154 -0.3419 -0.2472  0.2852
   84CHL1    H6 8632   3.976   3.769   7.124  2.3268  1.4132 -1.5333
   84CHL1    C7 8633   4.072   3.675   7.303 -0.6038 -0.3892 -0.1773
   84CHL1   H7A 8634   4.051   3.778   7.340 -0.5699 -0.2432 -0.5627
   84CHL1   H7B 8635   3.995   3.608   7.346  0.0463 -1.1217 -0.1371
   84CHL1    C8 8636   4.209   3.611   7.328  0.6819  0.0899 -0.1915
   84CHL1    H8 8637   4.282   3.691   7.304  1.0426  0.5758  2.2436
   84CHL1   C14 8638   4.216   3.581   7.482 -0.5536  0.1296  0.2936
   84CHL1   H14 8639   4.130   3.514   7.502 -1.0763 -0.0040 -2.1229
   84CHL1   C15 8640   4.198   3.705   7.566  0.7891 -0.5572  1.1563
   84CHL1  H15A 8641   4.253   3.788   7.517 -0.8196 -0.6451 -0.9441
   84CHL1  H15B 8642   4.096   3.747   7.580  0.8059  0.3479 -0.9890
   84CHL1   C16 8643   4.257   3.658   7.699  0.1367  0.1478  0.0763
   84CHL1  H16A 8644   4.337   3.735   7.704  0.3820  0.4347 -4.3487
   84CHL1  H16B 8645   4.191   3.678   7.786  1.3470 -0.7002  1.2196
   84CHL1   C17 8646   4.318   3.516   7.686  0.2671 -0.1150  0.7084
   84CHL1   H17 8647   4.227   3.455   7.703  0.5602 -0.0841  2.6530
   84CHL1   C13 8648   4.342   3.508   7.532  0.3037 -0.5034  0.9659
   84CHL1   C18 8649   4.459   3.584   7.497  0.2917 -0.2262  1.0251
   84CHL1  H18A 8650   4.452   3.683   7.545 -1.8941  0.9856 -1.5275
   84CHL1  H18B 8651   4.559   3.539   7.515 -0.0323 -1.8853 -0.9084
   84CHL1  H18C 8652   4.464   3.606   7.388 -0.5744  0.2851  1.0856
   84CHL1   C12 8653   4.351   3.373   7.467  0.5378 -0.3873 -0.9418
   84CHL1  H12A 8654   4.445   3.320   7.493 -0.4220 -1.7122 -0.0163
   84CHL1  H12B 8655   4.267   3.310   7.504  0.1898  1.2805  1.2790
   84CHL1   C11 8656   4.339   3.387   7.308 -0.2768  0.2187 -0.4297
   84CHL1  H11A 8657   4.437   3.422   7.269  1.2515 -3.8515 -0.6740
   84CHL1  H11B 8658   4.336   3.288   7.257 -0.5516  1.1604 -2.3579
   84CHL1    C9 8659   4.214   3.474   7.266 -0.6083  0.0525  1.0350
   84CHL1    H9 8660   4.124   3.420   7.300 -0.8532  0.1241  0.5235
   84CHL1   C10 8661   4.196   3.496   7.109 -0.2391 -0.5379  0.8612
   84CHL1   C19 8662   4.338   3.531   7.054 -0.4860 -0.8557 -0.1840
   84CHL1  H19A 8663   4.416   3.454   7.071  1.6450  0.9792 -1.1266
   84CHL1  H19B 8664   4.352   3.554   6.947  1.0623  2.0691  0.5609
   84CHL1  H19C 8665   4.361   3.626   7.107 -1.9507 -0.7702  0.3459
   84CHL1    C1 8666   4.151   3.365   7.041 -0.2023 -0.2657 -0.1845
   84CHL1   H1A 8667   4.221   3.282   7.067  1.0859  0.6188 -0.7305
   84CHL1   H1B 8668   4.052   3.327   7.075 -1.7881 -0.3188 -4.2704
   84CHL1    C2 8669   4.134   3.379   6.888  0.4493  0.5556 -0.6024
   84CHL1   H2A 8670   4.117   3.280   6.840  1.4046  1.0153 -1.9454
   84CHL1   H2B 8671   4.233   3.402   6.844  0.1300 -1.1823 -2.3630
   84CHL1   C20 8672   4.421   3.479   7.794  0.6800 -0.1945  0.3265
   84CHL1   H20 8673   4.496   3.560   7.780  0.0254  1.2788  4.0612
   84CHL1   C21 8674   4.494   3.346   7.759 -0.1172 -0.1649 -1.0405
   84CHL1  H21A 8675   4.425   3.260   7.751  0.7801 -0.8245 -1.9689
   84CHL1  H21B 8676   4.554   3.325   7.851 -1.7172  1.3023  0.3955
   84CHL1  H21C 8677   4.557   3.350   7.668  0.5207 -1.2348 -0.6787
   84CHL1   C22 8678   4.374   3.497   7.944  0.3515  0.1701 -0.2956
   84CHL1  H22A 8679   4.316   3.591   7.957 -0.3440 -0.2804 -0.0838
   84CHL1  H22B 8680   4.306   3.415   7.975  1.1504 -0.0767  0.8912
   84CHL1   C23 8681   4.489   3.527   8.039  0.0019 -0.2062 -0.4896
   84CHL1  H23A 8682   4.559   3.441   8.028 -1.1068 -1.3501  1.1043
   84CHL1  H23B 8683   4.544   3.619   8.006  0.3231 -0.3069 -0.2388
   84CHL1   C24 8684   4.444   3.545   8.187 -0.0380 -0.2381  0.6129
   84CHL1  H24A 8685   4.379   3.634   8.198  0.1017  0.3191 -2.3162
   84CHL1  H24B 8686   4.370   3.466   8.209 -0.5591  0.8131  2.8937
   84CHL1   C25 8687   4.555   3.552   8.290  0.3289 -0.5780 -0.4134
   84CHL1   H25 8688   4.630   3.625   8.252  0.4369 -1.0021 -1.0403
   84CHL1   C26 8689   4.493   3.613   8.420 -0.1854 -0.0570  1.0873
   84CHL1  H26A 8690   4.451   3.715   8.403  1.2868  0.3850 -0.1270
   84CHL1  H26B 8691   4.415   3.543   8.458 -0.4643 -1.6042 -2.0132
   84CHL1  H26C 8692   4.573   3.620   8.496  4.0686  3.2061 -3.0813
   84CHL1   C27 8693   4.622   3.412   8.303  0.4759  0.2776  0.6636
   84CHL1  H27A 8694   4.543   3.337   8.327  2.3815 -1.6109  1.3837
   84CHL1  H27B 8695   4.661   3.386   8.202 -1.3354  0.2134 -0.0557
   84CHL1  H27C 8696   4.708   3.411   8.374  1.6030 -1.9872 -0.5992
   85CHL1    C3 8697   2.547   0.681   6.579  0.7521 -0.2194  0.5519
   85CHL1    H3 8698   2.494   0.583   6.573 -3.0492  1.6431  0.6793
   85CHL1    O3 8699   2.579   0.710   6.446  0.4177  0.3740 -0.1477
   85CHL1   H3' 8700   2.618   0.798   6.453  2.1501 -0.3997  0.5603
   85CHL1    C4 8701   2.440   0.774   6.626  0.3586 -0.1594  0.1553
   85CHL1   H4A 8702   2.478   0.876   6.606  0.6048 -0.4126 -0.7356
   85CHL1   H4B 8703   2.347   0.781   6.566  0.3671 -0.1996  0.1372
   85CHL1    C5 8704   2.408   0.742   6.773  0.1527  0.0367 -0.6963
   85CHL1    C6 8705   2.281   0.708   6.803 -0.0084  0.1767  0.4601
   85CHL1    H6 8706   2.210   0.695   6.720  2.7374 -2.0568 -1.7241
   85CHL1    C7 8707   2.226   0.674   6.936  0.0028 -0.8097 -0.0910
   85CHL1   H7A 8708   2.125   0.718   6.945  0.1853 -0.3925 -0.0797
   85CHL1   H7B 8709   2.206   0.565   6.941 -0.9426 -0.7491 -1.8436
   85CHL1    C8 8710   2.322   0.731   7.046 -0.1717  0.5961  0.4688
   85CHL1    H8 8711   2.314   0.841   7.035  1.7783  0.6272 -0.9316
   85CHL1   C14 8712   2.284   0.661   7.171  0.3863 -0.1748 -0.5526
   85CHL1   H14 8713   2.305   0.554   7.153  1.7045  0.1608 -1.1550
   85CHL1   C15 8714   2.138   0.671   7.225  1.3743  0.5043  0.4066
   85CHL1  H15A 8715   2.097   0.772   7.204  2.8101  0.6953 -1.7852
   85CHL1  H15B 8716   2.076   0.598   7.169  0.2260  1.0939  0.8647
   85CHL1   C16 8717   2.132   0.628   7.373 -0.2312  0.3500 -0.0803
   85CHL1  H16A 8718   2.091   0.709   7.437 -0.2541  0.8059 -0.6565
   85CHL1  H16B 8719   2.078   0.534   7.395  1.7395 -0.8714 -0.2009
   85CHL1   C17 8720   2.283   0.621   7.409 -0.0895  0.5704 -0.0072
   85CHL1   H17 8721   2.294   0.513   7.388 -0.9702  0.5379 -0.3423
   85CHL1   C13 8722   2.362   0.698   7.294 -0.1744  1.2922  0.4959
   85CHL1   C18 8723   2.356   0.843   7.325  0.0619  0.4073  0.5510
   85CHL1  H18A 8724   2.432   0.865   7.403  0.5564 -2.0528  0.8438
   85CHL1  H18B 8725   2.388   0.902   7.236 -0.3223 -2.1420 -1.3655
   85CHL1  H18C 8726   2.252   0.864   7.357 -0.3971 -1.3694  0.2970
   85CHL1   C12 8727   2.510   0.660   7.264  0.1585  0.4956 -0.0555
   85CHL1  H12A 8728   2.582   0.666   7.348  1.8749 -2.1579 -1.1848
   85CHL1  H12B 8729   2.519   0.550   7.246 -1.0009  0.2363  0.8124
   85CHL1   C11 8730   2.563   0.724   7.138  1.0897 -0.0792  0.1034
   85CHL1  H11A 8731   2.571   0.833   7.154 -2.5056  0.1696  0.9694
   85CHL1  H11B 8732   2.658   0.667   7.124  0.9486 -0.5758  1.1440
   85CHL1    C9 8733   2.467   0.696   7.013 -0.1784  0.1143  0.6004
   85CHL1    H9 8734   2.463   0.586   6.998 -1.1128  0.3448 -1.1180
   85CHL1   C10 8735   2.523   0.736   6.871  1.2942 -0.6812 -0.5674
   85CHL1   C19 8736   2.576   0.885   6.882  0.1632  0.4676  0.4078
   85CHL1  H19A 8737   2.500   0.958   6.916  0.1802  1.3069 -1.2577
   85CHL1  H19B 8738   2.671   0.880   6.941  0.0112 -0.4489  0.5782
   85CHL1  H19C 8739   2.607   0.923   6.783 -2.0606  2.0799  0.2501
   85CHL1    C1 8740   2.622   0.629   6.814 -0.5460  0.2411  0.1464
   85CHL1   H1A 8741   2.715   0.625   6.874  0.0323  2.4264 -0.5154
   85CHL1   H1B 8742   2.580   0.527   6.817  0.8258 -0.3692 -0.4797
   85CHL1    C2 8743   2.674   0.667   6.672  0.6434  0.6614 -0.1886
   85CHL1   H2A 8744   2.749   0.590   6.642  0.4692  0.4096  0.0169
   85CHL1   H2B 8745   2.729   0.764   6.670  1.2653  0.4482  2.5172
   85CHL1   C20 8746   2.314   0.633   7.565 -0.2949 -0.0120  0.2234
   85CHL1   H20 8747   2.288   0.736   7.600  1.7205 -0.5145  3.6965
   85CHL1   C21 8748   2.467   0.603   7.586 -0.8231 -0.1284 -0.0405
   85CHL1  H21A 8749   2.517   0.701   7.573  0.5362 -0.9195 -0.9775
   85CHL1  H21B 8750   2.505   0.530   7.511  0.6397 -0.0953  0.6338
   85CHL1  H21C 8751   2.490   0.581   7.693  0.2984  1.4574  0.0677
   85CHL1   C22 8752   2.222   0.534   7.648 -0.1594 -0.3715  0.4079
   85CHL1  H22A 8753   2.123   0.583   7.657 -0.0429 -0.2746  1.1745
   85CHL1  H22B 8754   2.210   0.444   7.584  0.8058 -2.4402  2.9719
   85CHL1   C23 8755   2.274   0.502   7.795 -0.0502 -0.5287  0.9273
   85CHL1  H23A 8756   2.368   0.445   7.782  0.8971  1.3661 -1.0699
   85CHL1  H23B 8757   2.291   0.604   7.835 -1.7607  0.8931 -1.6793
   85CHL1   C24 8758   2.176   0.414   7.876 -0.2564  0.4037  0.6121
   85CHL1  H24A 8759   2.086   0.479   7.887  0.8848  2.5638 -1.8433
   85CHL1  H24B 8760   2.159   0.314   7.830  0.5440  0.6137 -0.1631
   85CHL1   C25 8761   2.234   0.385   8.019 -0.6988 -0.8203  0.7652
   85CHL1   H25 8762   2.342   0.410   8.015 -1.2421  1.6634 -2.2544
   85CHL1   C26 8763   2.178   0.466   8.133  1.0277 -0.3577  0.5693
   85CHL1  H26A 8764   2.067   0.474   8.126  0.8736 -1.7124  1.1373
   85CHL1  H26B 8765   2.195   0.428   8.236 -0.6629 -2.2013  0.2282
   85CHL1  H26C 8766   2.215   0.570   8.124 -0.4016  0.2246  1.0571
   85CHL1   C27 8767   2.227   0.242   8.061  0.3189 -0.4535 -0.4125
   85CHL1  H27A 8768   2.118   0.225   8.077  0.4701  1.1662  3.1286
   85CHL1  H27B 8769   2.277   0.185   7.979  0.1477 -0.3458 -0.5920
   85CHL1  H27C 8770   2.284   0.224   8.155 -1.5410 -1.2910  0.6115
   86CHL1    C3 8771   0.154   4.330   7.028 -0.3064  0.6334  0.5485
   86CHL1    H3 8772   0.229   4.248   7.022 -0.0558  0.8724  0.3299
   86CHL1    O3 8773   0.136   4.379   6.889  0.3426 -0.4513  0.1806
   86CHL1   H3' 8774   0.087   4.461   6.896  2.0217  0.5481  0.9325
   86CHL1    C4 8775   0.008   4.284   7.079 -0.8585  0.4666  0.5123
   86CHL1   H4A 8776  -0.050   4.378   7.078  1.2609  1.8446 -1.2829
   86CHL1   H4B 8777  -0.042   4.219   7.004  0.8021  1.0560 -1.1639
   86CHL1    C5 8778   0.016   4.236   7.221  0.5522  0.3501 -0.0268
   86CHL1    C6 8779  -0.027   4.115   7.252 -0.4871 -0.3064 -0.8325
   86CHL1    H6 8780  -0.069   4.040   7.184 -0.9871  0.2789 -1.1793
   86CHL1    C7 8781  -0.020   4.059   7.398  0.3907 -0.0254  0.3126
   86CHL1   H7A 8782  -0.118   4.017   7.426  0.8655 -1.2985  0.1433
   86CHL1   H7B 8783   0.048   3.970   7.398  1.0460  0.3666  3.2604
   86CHL1    C8 8784   0.010   4.160   7.503 -0.7435 -0.0929 -0.9296
   86CHL1    H8 8785  -0.085   4.213   7.528 -0.7481 -0.6774  0.3984
   86CHL1   C14 8786   0.063   4.094   7.627  0.8338 -0.5669 -0.1444
   86CHL1   H14 8787   0.160   4.046   7.603  0.9340 -2.0255  2.7586
   86CHL1   C15 8788  -0.015   3.975   7.686  0.0609  0.0190  0.0972
   86CHL1  H15A 8789  -0.122   4.006   7.681 -0.2902 -1.3184 -1.6242
   86CHL1  H15B 8790  -0.016   3.880   7.628  0.2905  0.3894 -0.5111
   86CHL1   C16 8791   0.026   3.968   7.832  0.2873  0.4024  0.7117
   86CHL1  H16A 8792  -0.061   3.969   7.902  0.7092 -3.2467  1.4637
   86CHL1  H16B 8793   0.082   3.874   7.851 -1.1257 -0.7842 -0.7510
   86CHL1   C17 8794   0.133   4.086   7.859 -0.4755  0.2880 -0.1014
   86CHL1   H17 8795   0.237   4.055   7.835 -0.9358 -2.2710  0.9062
   86CHL1   C13 8796   0.094   4.187   7.748 -1.6019  0.5211 -0.7471
   86CHL1   C18 8797  -0.036   4.260   7.788 -0.4361 -0.5549  0.2417
   86CHL1  H18A 8798  -0.019   4.313   7.884  2.1221 -0.1770 -0.3577
   86CHL1  H18B 8799  -0.067   4.341   7.719 -0.6759 -0.5694  0.3306
   86CHL1  H18C 8800  -0.122   4.191   7.802 -0.1383 -0.7963  0.9712
   86CHL1   C12 8801   0.211   4.280   7.700 -0.3015  0.2930 -0.2371
   86CHL1  H12A 8802   0.241   4.349   7.781 -1.2772  0.8352 -0.3319
   86CHL1  H12B 8803   0.303   4.224   7.670 -1.0328  0.1379 -2.4193
   86CHL1   C11 8804   0.163   4.346   7.568  0.6768  0.7539 -0.5281
   86CHL1  H11A 8805   0.084   4.419   7.597  1.0760  0.5993  1.0432
   86CHL1  H11B 8806   0.237   4.422   7.536  2.4421 -0.9649 -0.7116
   86CHL1    C9 8807   0.114   4.254   7.460 -0.3943 -0.6148 -0.2212
   86CHL1    H9 8808   0.200   4.187   7.435  1.0745  1.5412 -1.2533
   86CHL1   C10 8809   0.084   4.325   7.326  0.5661  0.6266 -0.1336
   86CHL1   C19 8810  -0.003   4.449   7.360  0.4605  0.4109  0.0102
   86CHL1  H19A 8811  -0.049   4.491   7.268  0.9392  1.1320  0.0904
   86CHL1  H19B 8812  -0.085   4.412   7.425 -1.2060  1.2836 -1.4806
   86CHL1  H19C 8813   0.068   4.528   7.394  2.3004 -0.3500 -1.8961
   86CHL1    C1 8814   0.220   4.379   7.269 -0.1413  0.3662 -0.1718
   86CHL1   H1A 8815   0.258   4.449   7.346 -1.2168 -0.3607  1.0827
   86CHL1   H1B 8816   0.288   4.291   7.275  1.2160  1.4789  1.3457
   86CHL1    C2 8817   0.219   4.433   7.123 -0.1646 -0.5019 -0.9037
   86CHL1   H2A 8818   0.321   4.466   7.093 -1.0437  1.0694 -2.3617
   86CHL1   H2B 8819   0.148   4.518   7.113  1.2361  1.1026  1.5923
   86CHL1   C20 8820   0.134   4.122   8.012  0.7774 -0.3695  0.3526
   86CHL1   H20 8821   0.032   4.160   8.035  1.1087  0.2366  0.8427
   86CHL1   C21 8822   0.217   4.253   8.044 -0.5776  0.4206 -0.0386
   86CHL1  H21A 8823   0.223   4.267   8.154  0.2828  0.7510 -0.1157
   86CHL1  H21B 8824   0.180   4.348   7.999 -0.9431  1.7795  2.9084
   86CHL1  H21C 8825   0.324   4.244   8.016 -0.5773 -0.8613  0.3402
   86CHL1   C22 8826   0.161   4.004   8.107  0.3812 -0.1051  0.9006
   86CHL1  H22A 8827   0.174   4.043   8.210 -1.9867  1.1786  0.7698
   86CHL1  H22B 8828   0.071   3.939   8.120  1.0467 -0.6974  3.0529
   86CHL1   C23 8829   0.285   3.926   8.078 -0.4771 -0.3392  0.8515
   86CHL1  H23A 8830   0.284   3.884   7.975 -0.5141 -1.2456  1.2099
   86CHL1  H23B 8831   0.378   3.985   8.095 -1.3027  0.5487  2.5530
   86CHL1   C24 8832   0.308   3.798   8.163  0.1867  0.1154  0.4679
   86CHL1  H24A 8833   0.224   3.729   8.139 -0.8157  1.6334 -0.5461
   86CHL1  H24B 8834   0.405   3.754   8.133 -0.1993 -1.8382  1.8649
   86CHL1   C25 8835   0.311   3.819   8.317 -0.3262 -0.1527 -0.9388
   86CHL1   H25 8836   0.223   3.884   8.335  0.3134  1.0923 -2.0415
   86CHL1   C26 8837   0.300   3.687   8.392  0.0937  1.0193  0.2594
   86CHL1  H26A 8838   0.392   3.628   8.373 -1.9288 -2.0282 -0.7581
   86CHL1  H26B 8839   0.299   3.713   8.500 -1.8221  0.3200  0.4340
   86CHL1  H26C 8840   0.221   3.619   8.354  0.7755  1.2248 -1.5956
   86CHL1   C27 8841   0.431   3.905   8.360 -0.0352 -0.2046  0.5521
   86CHL1  H27A 8842   0.408   4.010   8.334  1.3462 -0.0051  0.0780
   86CHL1  H27B 8843   0.440   3.906   8.471 -3.1241 -0.0831  0.8764
   86CHL1  H27C 8844   0.523   3.881   8.302 -1.1593 -0.0331 -1.3538
   87CHL1    C3 8845   5.150   2.997   6.910  0.2956  0.3880 -0.1199
   87CHL1    H3 8846   5.049   3.010   6.954  0.9445  0.1419  1.4957
   87CHL1    O3 8847   5.141   2.980   6.767  0.0131  0.4986  0.1313
   87CHL1   H3' 8848   5.228   2.953   6.736 -0.1932 -0.5695  0.4424
   87CHL1    C4 8849   5.239   3.126   6.936  0.4901  0.2554  0.6688
   87CHL1   H4A 8850   5.331   3.112   6.875  0.4521 -1.8670  1.0229
   87CHL1   H4B 8851   5.195   3.214   6.886 -0.2574  0.6554  1.9995
   87CHL1    C5 8852   5.269   3.141   7.079  0.7791  0.2653 -0.0048
   87CHL1    C6 8853   5.245   3.258   7.140 -0.4376  1.0759  0.7157
   87CHL1    H6 8854   5.198   3.338   7.081  1.8658  1.1432 -1.1626
   87CHL1    C7 8855   5.278   3.274   7.289  0.4310  0.0050 -0.6293
   87CHL1   H7A 8856   5.345   3.361   7.306 -0.7766  1.0560 -1.0642
   87CHL1   H7B 8857   5.187   3.275   7.352 -0.3970  0.1599 -1.7898
   87CHL1    C8 8858   5.343   3.150   7.367 -0.5591  0.1443  0.2426
   87CHL1    H8 8859   5.452   3.162   7.350 -0.3438 -1.4525  0.3194
   87CHL1   C14 8860   5.317   3.151   7.521  0.4394  0.3654 -0.0372
   87CHL1   H14 8861   5.206   3.145   7.532  0.4720  0.6664  0.4824
   87CHL1   C15 8862   5.352   3.281   7.592  0.0159 -0.4343 -0.3546
   87CHL1  H15A 8863   5.446   3.321   7.548  0.0785 -1.1820 -0.9075
   87CHL1  H15B 8864   5.283   3.368   7.582  0.4916 -0.0261 -0.1589
   87CHL1   C16 8865   5.363   3.245   7.739 -0.0862 -0.1455  0.2123
   87CHL1  H16A 8866   5.468   3.260   7.772  0.9286  1.6266 -3.2944
   87CHL1  H16B 8867   5.293   3.293   7.810  0.0957 -1.9888  1.7284
   87CHL1   C17 8868   5.352   3.084   7.742 -0.2795 -0.4964 -0.0647
   87CHL1   H17 8869   5.241   3.077   7.751 -0.2444 -0.0753  0.8778
   87CHL1   C13 8870   5.387   3.042   7.599 -1.0947  0.3357 -0.4850
   87CHL1   C18 8871   5.539   3.045   7.588  0.1679 -0.5300  0.1143
   87CHL1  H18A 8872   5.584   2.965   7.651  1.7948  1.2005  1.2708
   87CHL1  H18B 8873   5.583   3.031   7.487  0.3930  3.2332 -0.4202
   87CHL1  H18C 8874   5.574   3.136   7.641  2.4460 -0.9594 -0.5454
   87CHL1   C12 8875   5.335   2.906   7.541 -0.2051  0.3635 -0.0392
   87CHL1  H12A 8876   5.386   2.817   7.584 -1.5084 -0.2122  0.3495
   87CHL1  H12B 8877   5.227   2.907   7.567 -0.5332  0.7735 -1.3273
   87CHL1   C11 8878   5.341   2.902   7.392 -0.3401  0.3565  0.0974
   87CHL1  H11A 8879   5.444   2.876   7.361 -0.7032  1.4088 -2.1126
   87CHL1  H11B 8880   5.285   2.809   7.369  0.8817 -0.5818  0.7716
   87CHL1    C9 8881   5.297   3.020   7.307  0.2970 -0.4205 -0.2095
   87CHL1    H9 8882   5.188   3.021   7.329  0.7171 -1.1070  2.1877
   87CHL1   C10 8883   5.319   3.017   7.159 -0.3036 -0.3383  0.0422
   87CHL1   C19 8884   5.475   3.004   7.124 -0.3975 -0.0267  0.5740
   87CHL1  H19A 8885   5.528   2.918   7.170  0.0054 -0.7038 -1.0895
   87CHL1  H19B 8886   5.498   2.994   7.015  2.0155  1.0266  0.9235
   87CHL1  H19C 8887   5.523   3.096   7.162  3.4031 -0.9963 -1.3736
   87CHL1    C1 8888   5.236   2.890   7.118 -0.4440 -0.1757  0.4557
   87CHL1   H1A 8889   5.281   2.797   7.160  0.1328 -0.3735 -0.5626
   87CHL1   H1B 8890   5.131   2.902   7.150 -1.2130 -2.0899 -1.1734
   87CHL1    C2 8891   5.226   2.869   6.961 -0.2135 -0.2834  0.7685
   87CHL1   H2A 8892   5.172   2.774   6.939 -0.9238 -0.2581  2.2533
   87CHL1   H2B 8893   5.327   2.864   6.914 -0.8652  1.0954 -0.8904
   87CHL1   C20 8894   5.411   3.013   7.863  0.5409  0.4614 -0.1285
   87CHL1   H20 8895   5.521   3.006   7.849  0.1767 -1.7867 -2.7862
   87CHL1   C21 8896   5.354   2.870   7.879 -0.0039 -0.1053  0.4750
   87CHL1  H21A 8897   5.361   2.812   7.785 -0.3343  2.0872 -0.9792
   87CHL1  H21B 8898   5.252   2.862   7.923 -0.3675  0.4030 -0.2546
   87CHL1  H21C 8899   5.412   2.805   7.948 -0.6506 -1.2247  0.0035
   87CHL1   C22 8900   5.397   3.095   7.995  0.1913  0.5632 -0.0294
   87CHL1  H22A 8901   5.469   3.180   7.988  1.4309 -0.2016  2.3443
   87CHL1  H22B 8902   5.293   3.131   8.007  0.0973 -0.2118  1.8851
   87CHL1   C23 8903   5.449   3.023   8.123  0.2869 -0.5864  0.0885
   87CHL1  H23A 8904   5.382   2.935   8.135  1.5996 -1.4355  1.6626
   87CHL1  H23B 8905   5.553   2.987   8.105  1.2028  1.2179  1.5330
   87CHL1   C24 8906   5.445   3.115   8.250  0.9598 -0.0733 -0.0404
   87CHL1  H24A 8907   5.467   3.219   8.215  1.9464 -0.2555  0.0101
   87CHL1  H24B 8908   5.342   3.110   8.290  1.1497 -0.3016  0.4165
   87CHL1   C25 8909   5.539   3.078   8.358 -0.2249 -0.5851  0.5244
   87CHL1   H25 8910   5.542   2.967   8.364  1.8945 -0.5842  0.2218
   87CHL1   C26 8911   5.681   3.123   8.319 -0.1737 -0.9287  0.1842
   87CHL1  H26A 8912   5.720   3.052   8.243 -0.5434 -1.7193  0.7199
   87CHL1  H26B 8913   5.685   3.219   8.264 -0.1112 -1.5366 -0.9000
   87CHL1  H26C 8914   5.761   3.133   8.396 -1.1359  3.2350  0.8728
   87CHL1   C27 8915   5.504   3.132   8.495 -0.3283 -0.2987 -0.4120
   87CHL1  H27A 8916   5.405   3.094   8.526 -0.1122 -0.6264 -0.1196
   87CHL1  H27B 8917   5.586   3.100   8.563 -0.5157 -2.8762 -1.2988
   87CHL1  H27C 8918   5.498   3.243   8.495 -1.3098 -0.3355 -1.1018
   88CHL1    C3 8919   2.124   2.361   6.838  0.2791  0.2324 -0.4446
   88CHL1    H3 8920   2.022   2.401   6.857  0.6900  1.1890 -0.1964
   88CHL1    O3 8921   2.119   2.291   6.715 -0.3093  0.1367 -0.4048
   88CHL1   H3' 8922   2.194   2.232   6.715  1.4819  2.2275  0.5163
   88CHL1    C4 8923   2.236   2.475   6.832  0.2295 -0.0459  0.0513
   88CHL1   H4A 8924   2.339   2.441   6.809  0.4908  0.3182  0.6604
   88CHL1   H4B 8925   2.195   2.546   6.757 -2.5505 -0.2738  1.2306
   88CHL1    C5 8926   2.254   2.543   6.967 -0.2565  0.4818 -1.0773
   88CHL1    C6 8927   2.238   2.678   6.976  0.3634  0.5904 -0.7694
   88CHL1    H6 8928   2.222   2.738   6.884  1.9864  1.5349 -0.4815
   88CHL1    C7 8929   2.257   2.761   7.095  0.3759  0.4042 -0.2696
   88CHL1   H7A 8930   2.309   2.856   7.068 -0.9145  0.5624 -2.4550
   88CHL1   H7B 8931   2.161   2.783   7.146  1.5699  0.4386  2.0717
   88CHL1    C8 8932   2.338   2.675   7.193 -0.1452 -0.8331 -0.3719
   88CHL1    H8 8933   2.446   2.671   7.166 -0.2764 -3.0170 -0.7504
   88CHL1   C14 8934   2.334   2.741   7.339  0.4631  0.6840  0.0738
   88CHL1   H14 8935   2.230   2.740   7.378  0.9336 -0.9072  1.3996
   88CHL1   C15 8936   2.367   2.886   7.351  0.8726 -0.1671  0.1472
   88CHL1  H15A 8937   2.463   2.909   7.300  2.1744 -0.9190  2.1557
   88CHL1  H15B 8938   2.291   2.963   7.324 -1.2146 -2.2134 -0.1158
   88CHL1   C16 8939   2.394   2.911   7.495  0.3636  0.2142 -0.6041
   88CHL1  H16A 8940   2.496   2.954   7.509  1.2297 -1.3759 -1.6527
   88CHL1  H16B 8941   2.319   2.984   7.532 -1.5520 -1.3490 -1.2694
   88CHL1   C17 8942   2.394   2.780   7.568 -0.3622 -0.4339 -0.0048
   88CHL1   H17 8943   2.291   2.765   7.608  0.2249 -0.9152  1.4033
   88CHL1   C13 8944   2.408   2.673   7.455 -0.5529  0.5771 -0.6962
   88CHL1   C18 8945   2.561   2.666   7.420  0.4755 -0.4250 -0.4664
   88CHL1  H18A 8946   2.573   2.616   7.322  1.1655 -0.8009 -0.2008
   88CHL1  H18B 8947   2.609   2.764   7.400  1.2943 -0.6666  0.2327
   88CHL1  H18C 8948   2.611   2.606   7.499  0.4052 -0.3068 -0.3292
   88CHL1   C12 8949   2.345   2.535   7.470 -0.1688 -0.4753 -0.6563
   88CHL1  H12A 8950   2.393   2.471   7.547  1.8707  1.6278 -0.0402
   88CHL1  H12B 8951   2.243   2.556   7.509 -0.6735 -0.4969 -1.9357
   88CHL1   C11 8952   2.340   2.449   7.337 -0.4132 -0.3347 -0.1748
   88CHL1  H11A 8953   2.448   2.430   7.319 -0.9930 -3.1658 -1.1961
   88CHL1  H11B 8954   2.281   2.360   7.368 -1.9733  0.9144  0.5901
   88CHL1    C9 8955   2.279   2.533   7.211  0.1178 -0.1793  0.2847
   88CHL1    H9 8956   2.172   2.547   7.236 -0.5876  0.3266 -2.7071
   88CHL1   C10 8957   2.279   2.452   7.085  0.1498 -0.0783  0.5428
   88CHL1   C19 8958   2.416   2.397   7.066  0.1487 -0.0835  0.7033
   88CHL1  H19A 8959   2.426   2.336   6.974  1.6405  0.9067  0.1549
   88CHL1  H19B 8960   2.495   2.476   7.062  0.4266 -0.3383  1.1366
   88CHL1  H19C 8961   2.444   2.317   7.138  1.9638 -0.9699 -0.8994
   88CHL1    C1 8962   2.175   2.324   7.085  0.7776  0.3910  0.5788
   88CHL1   H1A 8963   2.196   2.241   7.155 -0.6822 -1.2225 -0.8043
   88CHL1   H1B 8964   2.075   2.368   7.107  1.2853  2.0855 -0.2971
   88CHL1    C2 8965   2.151   2.258   6.944 -0.2175 -0.6919 -0.2389
   88CHL1   H2A 8966   2.066   2.186   6.949 -1.0125  0.2220 -0.1669
   88CHL1   H2B 8967   2.241   2.200   6.917  1.9920  2.0704  0.6475
   88CHL1   C20 8968   2.490   2.762   7.688 -0.1749  0.9432  0.0785
   88CHL1   H20 8969   2.596   2.760   7.653 -0.4581  1.2804 -0.7984
   88CHL1   C21 8970   2.468   2.623   7.761  0.4581 -0.0867  0.8277
   88CHL1  H21A 8971   2.501   2.612   7.867  0.4451 -1.0154  0.7376
   88CHL1  H21B 8972   2.516   2.551   7.692 -2.5426 -1.3933 -0.0331
   88CHL1  H21C 8973   2.361   2.594   7.771  0.5179 -1.4360 -1.6549
   88CHL1   C22 8974   2.491   2.879   7.790  0.7332 -0.1180  0.5146
   88CHL1  H22A 8975   2.578   2.873   7.859  0.3169  1.4225  1.2127
   88CHL1  H22B 8976   2.527   2.971   7.738  1.0481 -0.7861 -0.4728
   88CHL1   C23 8977   2.359   2.906   7.866 -0.0957  0.7850  1.0849
   88CHL1  H23A 8978   2.283   2.902   7.785  1.8976  1.3536 -0.9164
   88CHL1  H23B 8979   2.325   2.828   7.938  0.2996  0.2315  0.6722
   88CHL1   C24 8980   2.364   3.041   7.936  0.8565  0.3676  0.1323
   88CHL1  H24A 8981   2.397   3.116   7.861 -0.3368  1.3017  0.5154
   88CHL1  H24B 8982   2.264   3.066   7.978  0.8509 -0.6267  0.7560
   88CHL1   C25 8983   2.460   3.039   8.061 -0.2735  0.3510 -0.2390
   88CHL1   H25 8984   2.542   2.968   8.035 -1.2288 -0.6990 -0.4458
   88CHL1   C26 8985   2.514   3.179   8.095 -0.0493  0.1399 -0.4911
   88CHL1  H26A 8986   2.426   3.240   8.123  1.2379  3.3514 -2.7942
   88CHL1  H26B 8987   2.593   3.168   8.172  0.2043 -3.0812 -1.0589
   88CHL1  H26C 8988   2.572   3.215   8.007 -0.2538  0.0578 -0.6593
   88CHL1   C27 8989   2.395   2.981   8.189  0.5822 -0.1405 -0.4782
   88CHL1  H27A 8990   2.475   2.955   8.261 -0.2661 -2.5713 -0.3168
   88CHL1  H27B 8991   2.316   3.044   8.234 -0.7224 -0.2883 -2.4299
   88CHL1  H27C 8992   2.335   2.891   8.160 -0.6968  0.7529 -0.6901
   89CHL1    C3 8993   5.881   5.367   6.812  0.7763  0.0435  0.5018
   89CHL1    H3 8994   5.836   5.267   6.827  0.9378 -0.3555 -1.4026
   89CHL1    O3 8995   5.881   5.400   6.674  0.6021  0.3399 -0.4449
   89CHL1   H3' 8996   5.927   5.483   6.659  1.4387 -0.4094 -2.5519
   89CHL1    C4 8997   5.802   5.465   6.902  0.1349 -0.2436  0.1574
   89CHL1   H4A 8998   5.840   5.566   6.877  0.9902 -0.6040 -0.0129
   89CHL1   H4B 8999   5.695   5.469   6.872  0.1936  0.9714  0.0444
   89CHL1    C5 9000   5.815   5.461   7.052 -0.5062 -0.7378  0.5950
   89CHL1    C6 9001   5.708   5.442   7.131 -0.5069 -0.9366  0.9827
   89CHL1    H6 9002   5.613   5.451   7.076  1.2149 -0.9387 -2.2721
   89CHL1    C7 9003   5.717   5.439   7.280  0.7081  0.1902  0.3071
   89CHL1   H7A 9004   5.641   5.506   7.325 -0.3770 -0.6134 -0.2709
   89CHL1   H7B 9005   5.676   5.336   7.295 -3.0734  1.1005 -2.2314
   89CHL1    C8 9006   5.860   5.467   7.332  0.4848  0.0713  0.0312
   89CHL1    H8 9007   5.870   5.578   7.333 -0.9424  0.2192  0.3134
   89CHL1   C14 9008   5.869   5.413   7.470  0.0533 -0.9282 -0.0127
   89CHL1   H14 9009   5.846   5.305   7.466 -1.4547 -0.7557  2.1969
   89CHL1   C15 9010   5.770   5.466   7.579  0.4054 -0.3843  0.8819
   89CHL1  H15A 9011   5.730   5.566   7.552  1.9236  0.0867  0.2715
   89CHL1  H15B 9012   5.685   5.395   7.576 -1.5463  1.8234  0.6890
   89CHL1   C16 9013   5.844   5.473   7.711  0.3664  0.2091 -0.0469
   89CHL1  H16A 9014   5.873   5.577   7.738  2.0753 -0.0505 -0.7713
   89CHL1  H16B 9015   5.770   5.446   7.790  0.8707 -4.3496 -0.8615
   89CHL1   C17 9016   5.980   5.400   7.685 -0.3426 -0.4939  0.3942
   89CHL1   H17 9017   5.965   5.290   7.685  1.0052 -0.7161  1.7177
   89CHL1   C13 9018   6.008   5.439   7.537 -0.0721 -0.5809  0.5728
   89CHL1   C18 9019   6.053   5.585   7.526 -0.3237 -0.6100  0.3372
   89CHL1  H18A 9020   5.988   5.651   7.588  1.7830 -1.3487  3.5879
   89CHL1  H18B 9021   6.156   5.594   7.566 -0.1278 -1.0095 -0.0744
   89CHL1  H18C 9022   6.051   5.631   7.425  0.5041 -1.7093 -0.1990
   89CHL1   C12 9023   6.113   5.356   7.466  0.5466  0.0218 -0.2729
   89CHL1  H12A 9024   6.215   5.377   7.502  0.8944 -0.9876 -0.6264
   89CHL1  H12B 9025   6.102   5.247   7.486  0.8758 -0.4884 -2.6066
   89CHL1   C11 9026   6.110   5.382   7.314  0.9673 -0.1013  0.5969
   89CHL1  H11A 9027   6.168   5.477   7.304  1.3672 -0.2488  1.3717
   89CHL1  H11B 9028   6.176   5.314   7.257 -2.2030 -0.6158 -2.7665
   89CHL1    C9 9029   5.971   5.396   7.245  0.7172  0.6653 -0.0157
   89CHL1    H9 9030   5.934   5.292   7.243 -1.4233  1.3690 -2.4762
   89CHL1   C10 9031   5.961   5.443   7.096  0.3247 -0.4338  0.4079
   89CHL1   C19 9032   6.025   5.578   7.095 -0.1808 -0.1577 -0.0462
   89CHL1  H19A 9033   6.135   5.564   7.107 -0.2963 -1.6068 -0.4149
   89CHL1  H19B 9034   6.013   5.640   7.004  0.0280 -0.1114 -0.0430
   89CHL1  H19C 9035   5.998   5.638   7.184  3.3712  1.7138 -0.0311
   89CHL1    C1 9036   6.047   5.343   7.006  0.5605  0.2552 -0.1952
   89CHL1   H1A 9037   6.156   5.358   7.022  0.3316  0.6167  1.1877
   89CHL1   H1B 9038   6.010   5.240   7.024 -1.0211  0.7524 -0.4649
   89CHL1    C2 9039   6.027   5.373   6.855 -0.1214 -0.2658 -0.3498
   89CHL1   H2A 9040   6.090   5.301   6.798 -0.5546 -2.2092  1.5207
   89CHL1   H2B 9041   6.063   5.474   6.826 -0.0787 -0.0708  0.3655
   89CHL1   C20 9042   6.091   5.433   7.793  0.7634 -0.0860 -0.3890
   89CHL1   H20 9043   6.127   5.535   7.767 -0.3091  0.5207  0.4682
   89CHL1   C21 9044   6.202   5.328   7.792 -0.6350  0.2360  0.7176
   89CHL1  H21A 9045   6.150   5.232   7.774 -2.0595  1.1730 -0.4100
   89CHL1  H21B 9046   6.263   5.329   7.885 -0.9928  1.5202  0.9652
   89CHL1  H21C 9047   6.266   5.343   7.703 -1.1877 -0.1247  0.2506
   89CHL1   C22 9048   6.033   5.438   7.938  0.0794  0.0730 -0.2160
   89CHL1  H22A 9049   5.938   5.494   7.940 -1.6307 -2.5157 -2.1642
   89CHL1  H22B 9050   5.985   5.340   7.962  0.9357 -0.1219  0.7841
   89CHL1   C23 9051   6.122   5.476   8.053  0.2107 -0.5420 -0.1991
   89CHL1  H23A 9052   6.215   5.416   8.042 -0.9492 -2.4760  0.0671
   89CHL1  H23B 9053   6.154   5.581   8.037  0.3304 -0.5712 -0.1446
   89CHL1   C24 9054   6.060   5.450   8.195 -0.3949 -0.4129 -0.1927
   89CHL1  H24A 9055   5.960   5.498   8.192 -2.1011 -3.7017 -2.7202
   89CHL1  H24B 9056   6.034   5.347   8.229  1.2478 -0.7804  0.0201
   89CHL1   C25 9057   6.148   5.503   8.316  0.5382 -0.7110  0.4525
   89CHL1   H25 9058   6.097   5.478   8.412 -2.6499 -0.0588 -0.9263
   89CHL1   C26 9059   6.278   5.420   8.310  0.0823 -0.0701  0.2360
   89CHL1  H26A 9060   6.348   5.463   8.385  2.6941 -1.0367 -1.5086
   89CHL1  H26B 9061   6.266   5.312   8.337  1.7819 -0.2733  0.2710
   89CHL1  H26C 9062   6.325   5.432   8.211 -0.3897 -0.3081 -0.0187
   89CHL1   C27 9063   6.171   5.655   8.301 -0.1836 -0.2590 -0.3415
   89CHL1  H27A 9064   6.264   5.685   8.354  0.4594 -1.3670 -0.7984
   89CHL1  H27B 9065   6.190   5.694   8.198  1.3362  2.7522  0.9631
   89CHL1  H27C 9066   6.083   5.706   8.345 -0.7284 -2.2293  1.0021
   90CHL1    C3 9067   6.433   5.881   6.928  0.0131  0.2126  0.2341
   90CHL1    H3 9068   6.419   5.773   6.948 -1.0064 -0.1380 -2.0783
   90CHL1    O3 9069   6.463   5.887   6.785  0.5558  0.4441 -0.1634
   90CHL1   H3' 9070   6.465   5.982   6.774 -1.4813  0.7028  1.0059
   90CHL1    C4 9071   6.311   5.961   6.957  0.7929  0.3560  0.0938
   90CHL1   H4A 9072   6.322   6.064   6.917 -0.7488  0.7797  0.7171
   90CHL1   H4B 9073   6.223   5.919   6.905 -0.6222  2.5604  0.5613
   90CHL1    C5 9074   6.298   5.971   7.110  0.3934 -0.9995 -0.3525
   90CHL1    C6 9075   6.178   5.934   7.165 -0.4215 -0.4708 -0.1483
   90CHL1    H6 9076   6.092   5.895   7.108 -0.8468 -0.0164  0.1707
   90CHL1    C7 9077   6.141   5.949   7.312  0.1626 -0.0164  0.3205
   90CHL1   H7A 9078   6.046   6.003   7.331 -0.4946 -0.9678 -0.1496
   90CHL1   H7B 9079   6.123   5.848   7.357  0.9027  0.0068  0.6767
   90CHL1    C8 9080   6.243   6.036   7.383 -0.4491 -0.1646  0.6093
   90CHL1    H8 9081   6.215   6.140   7.357  0.4501  0.0612  0.5161
   90CHL1   C14 9082   6.230   6.001   7.528  0.3245  0.2882 -0.0983
   90CHL1   H14 9083   6.262   5.895   7.526  0.2789  0.2590 -2.2467
   90CHL1   C15 9084   6.090   6.000   7.592  0.0838 -0.6701 -0.1952
   90CHL1  H15A 9085   6.028   6.090   7.567  0.5936  0.4571  2.2875
   90CHL1  H15B 9086   6.037   5.905   7.569 -0.2136 -0.1421 -1.8779
   90CHL1   C16 9087   6.105   6.003   7.742  0.4907 -0.8386 -0.4295
   90CHL1  H16A 9088   6.041   6.087   7.777  1.3545  0.1997 -1.2755
   90CHL1  H16B 9089   6.073   5.905   7.785 -1.8685  0.3091  0.6639
   90CHL1   C17 9090   6.258   6.027   7.762  0.9949 -0.3035  0.4568
   90CHL1   H17 9091   6.312   5.929   7.763 -0.3353 -1.1275 -1.6255
   90CHL1   C13 9092   6.320   6.083   7.626 -0.3833  0.7163 -0.1239
   90CHL1   C18 9093   6.277   6.232   7.616 -0.2564 -0.1134 -0.1791
   90CHL1  H18A 9094   6.171   6.246   7.644 -0.3054  0.0414 -0.4382
   90CHL1  H18B 9095   6.345   6.284   7.686  0.3463  1.0297 -1.5679
   90CHL1  H18C 9096   6.297   6.275   7.516 -1.3605  0.3280 -0.2238
   90CHL1   C12 9097   6.475   6.055   7.591  0.0016  0.5820  0.0752
   90CHL1  H12A 9098   6.538   6.134   7.637 -0.5028  1.3324 -0.5118
   90CHL1  H12B 9099   6.497   5.950   7.620  2.9343  1.5347  1.7776
   90CHL1   C11 9100   6.487   6.075   7.434  0.7024 -1.1472 -0.1818
   90CHL1  H11A 9101   6.481   6.184   7.412  3.6718 -0.9281 -0.4302
   90CHL1  H11B 9102   6.592   6.052   7.406  1.1725 -1.0575  1.4010
   90CHL1    C9 9103   6.387   6.004   7.344  0.4423 -0.3111 -0.7346
   90CHL1    H9 9104   6.412   5.899   7.372 -0.0619 -0.7957 -2.0281
   90CHL1   C10 9105   6.418   6.017   7.194  0.5151  0.0451  0.3768
   90CHL1   C19 9106   6.441   6.167   7.158  0.3377  0.1560 -0.3115
   90CHL1  H19A 9107   6.545   6.200   7.179  0.9417 -2.6529  1.6918
   90CHL1  H19B 9108   6.429   6.183   7.049 -0.6050 -1.8361 -0.5584
   90CHL1  H19C 9109   6.371   6.230   7.217  0.6545 -0.0865  0.3374
   90CHL1    C1 9110   6.533   5.926   7.157  0.8065  0.4537  0.4536
   90CHL1   H1A 9111   6.627   5.945   7.215  0.3032  0.3546  1.3241
   90CHL1   H1B 9112   6.502   5.825   7.190 -0.7270  0.9104  0.4537
   90CHL1    C2 9113   6.561   5.923   7.006  0.0236 -0.5344  0.4615
   90CHL1   H2A 9114   6.647   5.856   6.986  0.3501  0.0614 -0.1931
   90CHL1   H2B 9115   6.592   6.023   6.968 -2.8859  1.2061  2.2603
   90CHL1   C20 9116   6.291   6.096   7.897  0.1442 -0.1020  0.8576
   90CHL1   H20 9117   6.263   6.203   7.883 -1.6054 -0.7719 -1.4384
   90CHL1   C21 9118   6.442   6.103   7.933 -0.0829  0.0679 -0.2972
   90CHL1  H21A 9119   6.497   6.146   7.847  3.2753 -3.4943 -0.1927
   90CHL1  H21B 9120   6.488   6.005   7.957  1.2167  0.8261  0.4081
   90CHL1  H21C 9121   6.445   6.176   8.018  0.4344 -0.1525 -0.1261
   90CHL1   C22 9122   6.214   6.042   8.019  0.1057  0.4007  0.1531
   90CHL1  H22A 9123   6.105   6.032   8.001 -0.0336 -2.4608  1.9655
   90CHL1  H22B 9124   6.251   5.941   8.044  3.4533  1.5740  0.4757
   90CHL1   C23 9125   6.226   6.115   8.148  0.3233  0.1547  0.3473
   90CHL1  H23A 9126   6.333   6.135   8.173  1.1933  0.7122 -3.2387
   90CHL1  H23B 9127   6.172   6.211   8.137  1.5065  0.8379  0.2966
   90CHL1   C24 9128   6.157   6.039   8.263 -0.1488 -0.0004  0.0656
   90CHL1  H24A 9129   6.070   5.983   8.222 -1.6368  2.9976 -1.1606
   90CHL1  H24B 9130   6.213   5.951   8.302 -2.9354 -2.0355 -0.1721
   90CHL1   C25 9131   6.104   6.131   8.366 -0.2661 -0.3082 -0.9384
   90CHL1   H25 9132   6.033   6.194   8.309 -1.0993 -0.1746  0.1938
   90CHL1   C26 9133   6.013   6.069   8.471 -1.7138 -0.1413  0.5828
   90CHL1  H26A 9134   6.045   5.974   8.518 -4.6612  0.0877  3.4827
   90CHL1  H26B 9135   6.004   6.142   8.555  0.3599  0.3850  0.4015
   90CHL1  H26C 9136   5.909   6.053   8.437 -1.6460 -0.6899  0.6325
   90CHL1   C27 9137   6.210   6.233   8.429  0.4366  0.8373 -0.1413
   90CHL1  H27A 9138   6.164   6.333   8.440 -1.2169  0.0842  0.0777
   90CHL1  H27B 9139   6.237   6.193   8.530 -0.4500  0.4255 -0.0546
   90CHL1  H27C 9140   6.307   6.230   8.374  1.2087 -0.5036  1.2118
   91CHL1    C3 9141   0.478   1.163   7.048  0.5514 -0.1174 -0.4062
   91CHL1    H3 9142   0.481   1.273   7.061  0.6358  0.1950 -2.5802
   91CHL1    O3 9143   0.469   1.132   6.912 -0.0757 -0.0055 -0.7721
   91CHL1   H3' 9144   0.444   1.039   6.910 -0.2483  0.0455 -1.6170
   91CHL1    C4 9145   0.613   1.096   7.093 -0.3795  0.9254  0.0447
   91CHL1   H4A 9146   0.615   0.989   7.063 -2.3528  0.9336 -0.2545
   91CHL1   H4B 9147   0.695   1.145   7.036 -1.0467  1.1801 -0.7187
   91CHL1    C5 9148   0.626   1.109   7.243  0.2041 -1.5258 -0.0142
   91CHL1    C6 9149   0.735   1.171   7.299  0.5263  0.1200  0.6204
   91CHL1    H6 9150   0.813   1.206   7.230  0.8438 -0.0286  0.9005
   91CHL1    C7 9151   0.761   1.185   7.444 -0.3038  0.4219 -0.0708
   91CHL1   H7A 9152   0.866   1.157   7.469 -0.6319 -4.1261 -2.6307
   91CHL1   H7B 9153   0.748   1.291   7.473 -0.7563  0.0883  0.9871
   91CHL1    C8 9154   0.656   1.105   7.533  0.0427 -0.6954 -0.4010
   91CHL1    H8 9155   0.690   0.999   7.530 -0.5507 -0.8706 -1.1039
   91CHL1   C14 9156   0.655   1.150   7.680 -1.0936 -0.0899 -0.2228
   91CHL1   H14 9157   0.608   1.250   7.673 -0.9990 -0.0565 -0.3840
   91CHL1   C15 9158   0.792   1.165   7.757  0.0498  0.5488 -0.3015
   91CHL1  H15A 9159   0.856   1.078   7.732  1.2586  1.4840 -0.5571
   91CHL1  H15B 9160   0.834   1.262   7.722  3.7660  0.0323  2.0690
   91CHL1   C16 9161   0.738   1.172   7.898  0.3276  0.1585 -0.3267
   91CHL1  H16A 9162   0.784   1.097   7.966 -1.5115 -0.5115  0.2238
   91CHL1  H16B 9163   0.748   1.275   7.938 -2.7490  1.0073 -1.4953
   91CHL1   C17 9164   0.588   1.140   7.902  0.6480  0.5077 -0.0172
   91CHL1   H17 9165   0.525   1.231   7.892  0.0471  0.0672 -0.3209
   91CHL1   C13 9166   0.562   1.067   7.766 -0.1356 -0.0250 -0.1932
   91CHL1   C18 9167   0.611   0.914   7.771  0.1664 -0.4929  0.7466
   91CHL1  H18A 9168   0.712   0.905   7.815  0.7607 -0.2873 -0.5350
   91CHL1  H18B 9169   0.542   0.847   7.827  0.7156 -1.4089  0.3615
   91CHL1  H18C 9170   0.610   0.873   7.667 -1.5605 -0.3995  0.6971
   91CHL1   C12 9171   0.414   1.072   7.711 -0.4646  1.1569 -0.3208
   91CHL1  H12A 9172   0.336   1.016   7.767  1.1153 -0.0489  0.7511
   91CHL1  H12B 9173   0.393   1.181   7.708 -2.1510  0.8610 -0.2269
   91CHL1   C11 9174   0.412   1.024   7.563 -0.3130 -0.4473 -0.4040
   91CHL1  H11A 9175   0.424   0.914   7.561 -1.7959 -0.6940  1.5908
   91CHL1  H11B 9176   0.304   1.035   7.536 -0.7465 -0.7239  1.1174
   91CHL1    C9 9177   0.513   1.104   7.480 -0.0967  0.1045  0.0918
   91CHL1    H9 9178   0.474   1.207   7.494  3.2681  1.2499  2.5283
   91CHL1   C10 9179   0.508   1.056   7.325  0.2358  0.0430  0.1167
   91CHL1   C19 9180   0.505   0.899   7.320  0.5534 -0.2896 -0.1152
   91CHL1  H19A 9181   0.403   0.865   7.349 -0.7215  0.9489 -2.7149
   91CHL1  H19B 9182   0.511   0.862   7.215 -0.9916  0.3958 -0.4880
   91CHL1  H19C 9183   0.589   0.852   7.374  1.1809  0.8051 -0.0986
   91CHL1    C1 9184   0.375   1.112   7.271 -0.2448  0.0105 -0.0249
   91CHL1   H1A 9185   0.285   1.070   7.321 -2.0299  2.0016 -1.3729
   91CHL1   H1B 9186   0.380   1.221   7.295 -3.5809  0.1751  0.3053
   91CHL1    C2 9187   0.359   1.094   7.121 -0.5561  0.2647  0.5779
   91CHL1   H2A 9188   0.269   1.152   7.089  0.4681  0.7777 -1.5726
   91CHL1   H2B 9189   0.343   0.985   7.105 -2.5703  0.7825 -1.5970
   91CHL1   C20 9190   0.544   1.080   8.038  0.4448 -0.2652  0.2690
   91CHL1   H20 9191   0.590   0.981   8.056 -0.2082 -0.6947 -0.3786
   91CHL1   C21 9192   0.392   1.051   8.035  0.2021 -0.1886 -0.2860
   91CHL1  H21A 9193   0.365   1.007   8.134 -1.9950 -0.9791 -1.1834
   91CHL1  H21B 9194   0.378   0.976   7.954 -2.3981  0.5105 -0.5761
   91CHL1  H21C 9195   0.329   1.140   8.017 -0.4192 -0.2523  1.3528
   91CHL1   C22 9196   0.572   1.171   8.157 -0.0184  0.5011  0.3063
   91CHL1  H22A 9197   0.527   1.125   8.247 -2.6321 -0.6097 -1.4707
   91CHL1  H22B 9198   0.679   1.192   8.183  0.4550 -0.3070 -0.9067
   91CHL1   C23 9199   0.510   1.309   8.144  0.7444 -0.2173  0.0765
   91CHL1  H23A 9200   0.558   1.360   8.058 -1.5641  1.8754 -0.0711
   91CHL1  H23B 9201   0.401   1.304   8.122  0.7583 -1.8689  0.2117
   91CHL1   C24 9202   0.535   1.391   8.275  0.0155 -0.2577  0.0478
   91CHL1  H24A 9203   0.486   1.322   8.347 -0.2027 -0.2671 -0.1057
   91CHL1  H24B 9204   0.642   1.384   8.304  0.1714  1.6198  0.0786
   91CHL1   C25 9205   0.465   1.528   8.285  0.1620  0.4833 -0.0885
   91CHL1   H25 9206   0.491   1.585   8.192  0.4547 -3.6543 -2.8205
   91CHL1   C26 9207   0.310   1.509   8.274  0.4528 -0.5039  0.1908
   91CHL1  H26A 9208   0.263   1.432   8.339  1.7336 -0.1129  1.6294
   91CHL1  H26B 9209   0.256   1.606   8.278  0.3109 -0.2318 -3.9846
   91CHL1  H26C 9210   0.288   1.467   8.173  0.9445  0.3919 -0.3062
   91CHL1   C27 9211   0.505   1.596   8.411 -0.5238  0.2003 -0.0958
   91CHL1  H27A 9212   0.489   1.530   8.498  0.0234 -0.0754 -0.1972
   91CHL1  H27B 9213   0.614   1.616   8.412 -0.5152  0.1404  0.4319
   91CHL1  H27C 9214   0.447   1.691   8.417 -0.5820  0.3574 -2.1874
   92CHL1    C3 9215   3.675   4.020   6.723 -0.3849 -0.5323 -0.3913
   92CHL1    H3 9216   3.615   3.928   6.739  1.6824 -1.5453  2.3244
   92CHL1    O3 9217   3.692   4.058   6.591  0.7633 -0.4092  0.2218
   92CHL1   H3' 9218   3.767   4.001   6.571  0.0184 -2.1488  2.0354
   92CHL1    C4 9219   3.600   4.127   6.811 -0.1587 -1.2444  0.0975
   92CHL1   H4A 9220   3.626   4.226   6.769 -2.3501 -0.7569 -0.2364
   92CHL1   H4B 9221   3.494   4.116   6.781 -0.5596  3.9778 -1.3330
   92CHL1    C5 9222   3.605   4.120   6.959  0.1170 -0.5428  0.0251
   92CHL1    C6 9223   3.492   4.130   7.036 -0.8343  0.8747 -0.0161
   92CHL1    H6 9224   3.402   4.167   6.986 -0.1379  1.1883 -1.0601
   92CHL1    C7 9225   3.495   4.142   7.188 -0.0911  0.2903 -0.5204
   92CHL1   H7A 9226   3.440   4.231   7.224 -0.3637 -1.1454  2.9796
   92CHL1   H7B 9227   3.456   4.051   7.237  0.1908  1.1844  1.4347
   92CHL1    C8 9228   3.641   4.150   7.244  0.3220 -0.3325 -0.1037
   92CHL1    H8 9229   3.675   4.255   7.232  1.0044 -0.4498  0.7118
   92CHL1   C14 9230   3.636   4.100   7.395  0.2811 -0.4368  0.5561
   92CHL1   H14 9231   3.601   3.995   7.392 -0.3476 -0.2213 -0.1139
   92CHL1   C15 9232   3.525   4.161   7.487 -0.2832  0.1302 -0.4433
   92CHL1  H15A 9233   3.540   4.271   7.478 -2.5836  0.6273  1.0586
   92CHL1  H15B 9234   3.424   4.128   7.455 -0.5329 -0.0857  0.5325
   92CHL1   C16 9235   3.568   4.105   7.629 -0.4240 -0.5869 -0.4338
   92CHL1  H16A 9236   3.562   4.189   7.701  0.4041  0.3181 -1.3749
   92CHL1  H16B 9237   3.495   4.022   7.641  0.9426 -1.3954  4.0906
   92CHL1   C17 9238   3.711   4.035   7.612  0.1694 -0.3106  0.0289
   92CHL1   H17 9239   3.702   3.926   7.592  1.4406 -0.4832  0.3427
   92CHL1   C13 9240   3.765   4.093   7.474  0.8288  0.4976  0.1017
   92CHL1   C18 9241   3.825   4.237   7.492  0.4551  0.1223  0.4686
   92CHL1  H18A 9242   3.809   4.296   7.399  0.1413 -0.5458  0.0904
   92CHL1  H18B 9243   3.775   4.307   7.562  2.1106  1.9439 -0.1008
   92CHL1  H18C 9244   3.931   4.233   7.525 -0.2102 -0.1032  2.7339
   92CHL1   C12 9245   3.858   4.001   7.392 -0.2101  0.2230  0.1138
   92CHL1  H12A 9246   3.961   4.006   7.433  0.5981  1.8142 -1.9602
   92CHL1  H12B 9247   3.825   3.895   7.403  0.1711 -0.0119 -0.9220
   92CHL1   C11 9248   3.873   4.045   7.248 -0.1466  0.1763  0.5237
   92CHL1  H11A 9249   3.928   4.141   7.260 -0.2962  0.4003 -0.4874
   92CHL1  H11B 9250   3.928   3.971   7.187 -1.9892 -1.5030  0.7744
   92CHL1    C9 9251   3.737   4.058   7.168  0.3265 -0.3151 -0.0473
   92CHL1    H9 9252   3.701   3.953   7.160 -0.5240  0.0421 -0.9326
   92CHL1   C10 9253   3.746   4.104   7.012 -0.0967  0.7000 -0.7052
   92CHL1   C19 9254   3.831   4.235   6.996  0.5300  0.5080  0.5120
   92CHL1  H19A 9255   3.938   4.211   7.009  0.5020  0.2891  0.3478
   92CHL1  H19B 9256   3.817   4.274   6.893 -0.6485  0.5875  0.6802
   92CHL1  H19C 9257   3.805   4.307   7.077  0.4359  1.5448 -0.4130
   92CHL1    C1 9258   3.811   3.984   6.927  0.8212 -0.5859  0.7726
   92CHL1   H1A 9259   3.914   3.968   6.966  0.1823 -0.8922  2.4354
   92CHL1   H1B 9260   3.764   3.887   6.951 -2.2070  1.0056  1.7409
   92CHL1    C2 9261   3.816   4.012   6.775  0.1204 -0.2073 -0.2093
   92CHL1   H2A 9262   3.873   3.927   6.731 -0.5252 -0.8444  0.1588
   92CHL1   H2B 9263   3.880   4.102   6.762 -0.8055  0.3826 -0.7786
   92CHL1   C20 9264   3.801   4.057   7.729  0.0508  0.0634 -0.1943
   92CHL1   H20 9265   3.845   4.159   7.726 -1.4069  0.7234 -2.3906
   92CHL1   C21 9266   3.915   3.955   7.721 -0.3036  0.0808 -0.0408
   92CHL1  H21A 9267   3.987   3.976   7.804  3.3327 -1.4106 -2.5508
   92CHL1  H21B 9268   3.974   3.952   7.627 -0.8127 -2.0151 -0.3367
   92CHL1  H21C 9269   3.881   3.850   7.733  0.4825 -0.1053  0.7322
   92CHL1   C22 9270   3.723   4.036   7.869 -0.6567 -0.4173  0.1203
   92CHL1  H22A 9271   3.638   4.106   7.883  1.1839  2.4329 -1.9821
   92CHL1  H22B 9272   3.677   3.935   7.873 -0.8913 -0.3148  0.0071
   92CHL1   C23 9273   3.808   4.046   8.002  0.1604  0.3263 -0.0390
   92CHL1  H23A 9274   3.741   4.023   8.088  1.5762  0.1883  1.0660
   92CHL1  H23B 9275   3.887   3.968   8.015 -0.3766 -0.7067 -2.4131
   92CHL1   C24 9276   3.860   4.188   8.016  0.1549  0.1524  0.1270
   92CHL1  H24A 9277   3.913   4.228   7.927 -4.1225  4.4478 -0.9438
   92CHL1  H24B 9278   3.778   4.263   8.030 -1.1613 -1.6335  3.0876
   92CHL1   C25 9279   3.929   4.204   8.154  0.2037  0.3788  0.8630
   92CHL1   H25 9280   3.989   4.114   8.179  2.1969  1.1259 -0.9685
   92CHL1   C26 9281   4.016   4.329   8.160  0.4354 -0.1241 -0.4766
   92CHL1  H26A 9282   4.037   4.349   8.267 -0.7246 -1.4259  0.0313
   92CHL1  H26B 9283   4.116   4.303   8.121  0.2344 -1.9348  0.1509
   92CHL1  H26C 9284   3.988   4.420   8.102  1.5197  1.4210  1.2914
   92CHL1   C27 9285   3.818   4.214   8.263 -0.1613 -0.1481 -0.0450
   92CHL1  H27A 9286   3.751   4.299   8.240  1.2967  0.9219 -0.4778
   92CHL1  H27B 9287   3.757   4.122   8.274 -1.7304  0.6874 -1.3869
   92CHL1  H27C 9288   3.867   4.240   8.360  0.0597 -0.3174 -0.1129
   93CHL1    C3 9289   0.980   0.501   6.799 -0.6140  0.6544  0.2551
   93CHL1    H3 9290   0.886   0.456   6.838 -2.3511  1.7856 -2.3719
   93CHL1    O3 9291   0.973   0.482   6.663 -0.3356 -0.4760 -0.2174
   93CHL1   H3' 9292   1.056   0.516   6.630 -0.5643  0.6696  0.3353
   93CHL1    C4 9293   0.999   0.650   6.817  0.3443  0.3319 -0.5606
   93CHL1   H4A 9294   1.099   0.671   6.772  0.0340 -0.6342 -1.7314
   93CHL1   H4B 9295   0.913   0.701   6.770 -0.2679 -0.1727 -0.0213
   93CHL1    C5 9296   1.014   0.687   6.965  0.1561  0.4200 -0.1718
   93CHL1    C6 9297   0.923   0.768   7.022 -0.4466 -0.3903 -0.5900
   93CHL1    H6 9298   0.843   0.816   6.964 -2.1044 -0.0263  1.8764
   93CHL1    C7 9299   0.929   0.806   7.170 -0.8526  0.1988  0.4114
   93CHL1   H7A 9300   0.897   0.910   7.193  0.4440  0.7625 -0.2196
   93CHL1   H7B 9301   0.858   0.736   7.218  0.2696 -0.3356  1.3328
   93CHL1    C8 9302   1.058   0.755   7.249  0.4406 -0.0702  0.7278
   93CHL1    H8 9303   1.139   0.829   7.234  2.2479 -2.1882 -0.6338
   93CHL1   C14 9304   1.027   0.728   7.393  0.1620  0.2092 -1.1049
   93CHL1   H14 9305   0.959   0.640   7.404 -0.1814  0.6866  1.2039
   93CHL1   C15 9306   0.948   0.839   7.461 -0.3891  0.0120  0.6866
   93CHL1  H15A 9307   0.988   0.934   7.419 -0.9745  0.0487  0.2013
   93CHL1  H15B 9308   0.839   0.834   7.437 -0.2074 -3.1908  0.0770
   93CHL1   C16 9309   0.987   0.827   7.607  0.1678  0.2212  0.5066
   93CHL1  H16A 9310   1.041   0.915   7.645 -0.7786  0.9684  0.1728
   93CHL1  H16B 9311   0.885   0.817   7.651 -0.6979  0.3290 -1.3552
   93CHL1   C17 9312   1.077   0.698   7.617 -0.0234 -0.5144 -0.1463
   93CHL1   H17 9313   1.012   0.608   7.620 -0.6399 -0.0816 -0.3095
   93CHL1   C13 9314   1.149   0.694   7.479  0.0888  0.1616 -0.1652
   93CHL1   C18 9315   1.262   0.803   7.475 -0.8016  0.3122  0.9648
   93CHL1  H18A 9316   1.358   0.765   7.518  0.2423 -1.3213 -2.4581
   93CHL1  H18B 9317   1.282   0.830   7.370  1.5357  3.2729  2.0488
   93CHL1  H18C 9318   1.233   0.899   7.524  2.5914  1.0981  1.6576
   93CHL1   C12 9319   1.190   0.550   7.435 -0.1537 -0.6560  0.2408
   93CHL1  H12A 9320   1.281   0.521   7.493 -0.9387 -1.7865  0.9434
   93CHL1  H12B 9321   1.105   0.481   7.450  0.3000 -0.9416  1.6763
   93CHL1   C11 9322   1.228   0.551   7.287  0.3603 -0.6632 -0.2138
   93CHL1  H11A 9323   1.322   0.608   7.278  1.1005 -1.8324 -0.1338
   93CHL1  H11B 9324   1.256   0.452   7.244  2.6421  1.0946 -3.1132
   93CHL1    C9 9325   1.105   0.619   7.201 -0.3384  0.1933  0.2267
   93CHL1    H9 9326   1.015   0.554   7.208 -0.7785  0.8207  0.5981
   93CHL1   C10 9327   1.122   0.615   7.045 -0.7037  0.1884 -0.9835
   93CHL1   C19 9328   1.261   0.673   7.017  0.1104  0.0079  0.4614
   93CHL1  H19A 9329   1.273   0.775   7.061  0.0106  0.0067  0.4925
   93CHL1  H19B 9330   1.338   0.605   7.058 -0.2015 -0.5462  0.1353
   93CHL1  H19C 9331   1.268   0.684   6.907 -0.3029 -1.2598  0.2910
   93CHL1    C1 9332   1.122   0.467   7.008 -0.5157 -0.1270 -0.3748
   93CHL1   H1A 9333   1.210   0.409   7.044 -0.7988 -1.4844 -1.7380
   93CHL1   H1B 9334   1.043   0.412   7.063  3.2012 -2.2394  3.4713
   93CHL1    C2 9335   1.110   0.435   6.854  0.5549  0.0172 -0.0614
   93CHL1   H2A 9336   1.112   0.325   6.836  0.0133 -0.3591  1.9254
   93CHL1   H2B 9337   1.201   0.474   6.802  1.3768 -0.9478  0.6152
   93CHL1   C20 9338   1.157   0.706   7.754  0.4222 -0.3718  0.0242
   93CHL1   H20 9339   1.224   0.795   7.755  0.2950 -0.2820  0.8257
   93CHL1   C21 9340   1.246   0.581   7.776 -0.4566 -0.9880 -0.2602
   93CHL1  H21A 9341   1.183   0.494   7.751 -1.9415  0.1308 -0.5260
   93CHL1  H21B 9342   1.276   0.582   7.883  1.5719  0.1165 -0.7726
   93CHL1  H21C 9343   1.337   0.586   7.712  0.2097  0.2293  0.7248
   93CHL1   C22 9344   1.060   0.714   7.878 -0.5209  0.4601  0.3956
   93CHL1  H22A 9345   1.127   0.722   7.967  1.8622 -0.9000 -1.1603
   93CHL1  H22B 9346   1.003   0.809   7.884 -0.7412  0.3957 -0.5569
   93CHL1   C23 9347   0.962   0.597   7.912  0.7901 -0.7426 -0.0666
   93CHL1  H23A 9348   0.888   0.600   7.830 -1.1797  0.3488  1.6492
   93CHL1  H23B 9349   1.021   0.504   7.923 -0.1252 -1.2207  1.0235
   93CHL1   C24 9350   0.871   0.633   8.037 -0.2082  0.9878  0.0568
   93CHL1  H24A 9351   0.807   0.712   7.992 -1.3675 -0.8219 -1.7055
   93CHL1  H24B 9352   0.812   0.542   8.063  1.7729 -0.7107 -1.0679
   93CHL1   C25 9353   0.944   0.678   8.164 -0.2138 -0.5414 -0.2381
   93CHL1   H25 9354   1.010   0.765   8.144 -1.4452  0.5925  0.4575
   93CHL1   C26 9355   0.851   0.730   8.276  0.7420  0.3407 -0.2949
   93CHL1  H26A 9356   0.801   0.822   8.239  2.6059  0.5883 -2.4327
   93CHL1  H26B 9357   0.771   0.653   8.282  0.0421  1.0215 -0.6982
   93CHL1  H26C 9358   0.903   0.742   8.373 -0.3145  1.0026  0.2100
   93CHL1   C27 9359   1.036   0.567   8.214 -0.1535 -0.0273  0.0176
   93CHL1  H27A 9360   1.129   0.556   8.154 -0.5991  0.4884 -0.7720
   93CHL1  H27B 9361   1.070   0.590   8.317  0.7892 -1.6720  0.1188
   93CHL1  H27C 9362   0.966   0.481   8.215 -1.3985  0.9135 -1.7853
   94CHL1    C3 9363   4.845   3.210   6.745  0.2764  0.4358 -0.1404
   94CHL1    H3 9364   4.940   3.154   6.758  1.2229  2.3704  1.9104
   94CHL1    O3 9365   4.815   3.265   6.617 -0.2767  0.7512  0.0909
   94CHL1   H3' 9366   4.873   3.341   6.601 -0.0978  1.9759  5.0561
   94CHL1    C4 9367   4.721   3.129   6.801 -0.5350  0.6349 -0.6657
   94CHL1   H4A 9368   4.626   3.188   6.797  0.7346  2.6923 -3.2512
   94CHL1   H4B 9369   4.712   3.042   6.732  0.3667 -0.2632  0.3064
   94CHL1    C5 9370   4.741   3.072   6.942 -0.2656 -0.6027 -0.9114
   94CHL1    C6 9371   4.740   2.940   6.972 -0.2976 -0.0418 -0.0167
   94CHL1    H6 9372   4.710   2.873   6.890 -0.5626 -2.6776  2.0642
   94CHL1    C7 9373   4.759   2.889   7.113 -0.2591 -0.9411 -0.0991
   94CHL1   H7A 9374   4.684   2.809   7.132 -1.3852  0.1181  0.0316
   94CHL1   H7B 9375   4.863   2.854   7.128 -0.0264 -0.5579 -0.8111
   94CHL1    C8 9376   4.761   2.998   7.223  0.2180  0.3673  0.5953
   94CHL1    H8 9377   4.655   3.029   7.235 -0.0823 -0.5091  0.2758
   94CHL1   C14 9378   4.816   2.948   7.360 -0.2365 -0.5358  0.1748
   94CHL1   H14 9379   4.925   2.945   7.342  0.0277  2.1415  0.8575
   94CHL1   C15 9380   4.755   2.825   7.420 -0.3248  0.4267  0.7488
   94CHL1  H15A 9381   4.646   2.823   7.401 -0.3158 -0.8900  0.7469
   94CHL1  H15B 9382   4.813   2.738   7.382  1.5553  0.9447  2.2547
   94CHL1   C16 9383   4.775   2.845   7.570  0.4499 -0.1814 -0.3117
   94CHL1  H16A 9384   4.672   2.864   7.606  0.0511 -0.5618 -1.2434
   94CHL1  H16B 9385   4.807   2.756   7.628 -0.1599  1.3276  2.5278
   94CHL1   C17 9386   4.855   2.970   7.593 -0.4091  0.1803 -0.1890
   94CHL1   H17 9387   4.964   2.953   7.582 -0.2078 -0.0241  1.7073
   94CHL1   C13 9388   4.812   3.058   7.468 -0.9330 -0.2312 -0.4842
   94CHL1   C18 9389   4.670   3.107   7.497 -0.8359 -0.3766 -0.0274
   94CHL1  H18A 9390   4.594   3.026   7.492 -1.1448 -0.0775 -0.1356
   94CHL1  H18B 9391   4.665   3.145   7.601 -2.1789 -0.4250 -0.0662
   94CHL1  H18C 9392   4.640   3.180   7.420  0.5927 -0.7562 -0.9976
   94CHL1   C12 9393   4.915   3.172   7.424  0.6464 -0.0552 -0.3705
   94CHL1  H12A 9394   4.924   3.258   7.494 -0.1013  1.0132 -1.5460
   94CHL1  H12B 9395   5.012   3.118   7.417  1.7515  1.7005  0.6301
   94CHL1   C11 9396   4.871   3.224   7.283  0.0416  0.7251  0.5043
   94CHL1  H11A 9397   4.791   3.299   7.301  0.0520  0.9657 -0.3694
   94CHL1  H11B 9398   4.962   3.280   7.252  0.2572 -0.1501 -0.5157
   94CHL1    C9 9399   4.840   3.118   7.172  0.1933 -0.5125  0.1107
   94CHL1    H9 9400   4.945   3.094   7.145 -0.1714 -1.9178 -0.1450
   94CHL1   C10 9401   4.777   3.179   7.040 -0.1342  0.2667 -0.1669
   94CHL1   C19 9402   4.643   3.259   7.073 -0.5602 -0.2229  0.7933
   94CHL1  H19A 9403   4.612   3.299   6.975  0.6481 -1.4767 -0.1344
   94CHL1  H19B 9404   4.569   3.182   7.103 -0.4288 -0.9351 -0.6447
   94CHL1  H19C 9405   4.667   3.334   7.152 -0.6936  1.6159 -0.8611
   94CHL1    C1 9406   4.888   3.275   6.988 -0.6745  0.0121  0.2167
   94CHL1   H1A 9407   4.883   3.366   7.052  0.8684  0.5885 -0.4585
   94CHL1   H1B 9408   4.990   3.234   7.003 -1.2439 -0.5993  3.0671
   94CHL1    C2 9409   4.864   3.330   6.841  0.2121  0.0927  0.6534
   94CHL1   H2A 9410   4.951   3.390   6.808  0.4518 -0.5928  0.0134
   94CHL1   H2B 9411   4.766   3.383   6.837 -1.2457 -2.4993 -0.7025
   94CHL1   C20 9412   4.850   3.023   7.739 -0.7578 -0.2952  0.6672
   94CHL1   H20 9413   4.741   3.028   7.760 -1.4369 -0.0262 -2.4857
   94CHL1   C21 9414   4.925   3.164   7.732  0.9674 -0.0808 -0.3765
   94CHL1  H21A 9415   4.972   3.184   7.830  1.6540 -1.5687 -0.3637
   94CHL1  H21B 9416   4.861   3.248   7.698  2.2409  0.5392 -1.3268
   94CHL1  H21C 9417   5.006   3.147   7.657  1.1596 -0.6277 -0.0496
   94CHL1   C22 9418   4.936   2.925   7.836  0.9753  0.0282 -0.2260
   94CHL1  H22A 9419   4.902   2.819   7.842  1.3040 -0.0358  0.7220
   94CHL1  H22B 9420   5.039   2.923   7.793  0.8957 -2.7227 -0.4729
   94CHL1   C23 9421   4.944   2.977   7.978 -0.4682  0.0569  0.5007
   94CHL1  H23A 9422   5.006   2.914   8.044  0.2051  0.0676 -0.1151
   94CHL1  H23B 9423   5.000   3.070   8.001 -0.5040 -0.2415  1.9121
   94CHL1   C24 9424   4.805   2.997   8.043 -0.7698  0.0743  0.3383
   94CHL1  H24A 9425   4.765   3.092   8.003 -2.3953 -0.5032  0.5156
   94CHL1  H24B 9426   4.732   2.917   8.017 -0.6266  0.2575 -0.6764
   94CHL1   C25 9427   4.824   3.014   8.201 -0.3632  0.1456 -0.7311
   94CHL1   H25 9428   4.890   3.100   8.227  0.3760 -0.9641  1.3427
   94CHL1   C26 9429   4.685   3.042   8.266  0.1719 -0.0036  0.2436
   94CHL1  H26A 9430   4.611   2.973   8.219 -0.9160  0.8683  0.6641
   94CHL1  H26B 9431   4.685   3.037   8.377 -1.5495  2.4939  0.4256
   94CHL1  H26C 9432   4.653   3.145   8.240 -3.8826 -1.5314 -1.6951
   94CHL1   C27 9433   4.873   2.887   8.269  0.4243  0.2057 -0.5515
   94CHL1  H27A 9434   4.851   2.886   8.378 -1.3137 -1.1122 -0.8771
   94CHL1  H27B 9435   4.820   2.801   8.223  0.9434  0.6116 -1.9527
   94CHL1  H27C 9436   4.982   2.879   8.246  0.3846  0.7159 -0.9133
   95CHL1    C3 9437   4.147   1.770   6.562 -0.5974  0.1616 -0.0108
   95CHL1    H3 9438   4.050   1.717   6.574 -1.1681  1.0378 -0.6192
   95CHL1    O3 9439   4.180   1.780   6.427 -0.8945  0.1945 -0.1510
   95CHL1   H3' 9440   4.098   1.821   6.398 -0.7951  0.7919  0.3824
   95CHL1    C4 9441   4.134   1.915   6.612 -0.4276 -0.2851  0.3981
   95CHL1   H4A 9442   4.216   1.981   6.577  0.0734 -1.8487 -1.6153
   95CHL1   H4B 9443   4.040   1.952   6.566 -0.4236 -0.8980 -0.1183
   95CHL1    C5 9444   4.149   1.931   6.764  0.4802  0.1364  0.3767
   95CHL1    C6 9445   4.056   2.005   6.834 -0.0481  0.5612  0.1078
   95CHL1    H6 9446   3.973   2.058   6.785 -1.2377 -0.4648  0.9304
   95CHL1    C7 9447   4.053   2.019   6.985 -0.6886  0.6757  0.0203
   95CHL1   H7A 9448   4.031   2.125   7.010 -0.8810  0.5801  0.2596
   95CHL1   H7B 9449   3.977   1.962   7.042  0.2641  0.5734  1.2138
   95CHL1    C8 9450   4.199   1.985   7.047 -0.1704 -0.3193  0.5575
   95CHL1    H8 9451   4.265   2.069   7.014 -0.7688 -0.1824 -0.3267
   95CHL1   C14 9452   4.183   1.980   7.194  0.2440 -0.2498 -0.0026
   95CHL1   H14 9453   4.114   1.899   7.227 -0.7785  1.6790  2.9532
   95CHL1   C15 9454   4.126   2.092   7.279 -0.5025 -0.1877  0.1607
   95CHL1  H15A 9455   4.158   2.189   7.236 -0.6616 -0.0455  0.3598
   95CHL1  H15B 9456   4.015   2.093   7.273 -0.7611 -0.5623  3.1731
   95CHL1   C16 9457   4.187   2.080   7.421 -0.0089 -0.9467 -0.0109
   95CHL1  H16A 9458   4.237   2.177   7.440  2.2196 -1.8383 -1.0022
   95CHL1  H16B 9459   4.108   2.062   7.497 -0.0683 -2.9443 -0.4922
   95CHL1   C17 9460   4.280   1.952   7.411  0.4729  0.3538  0.2320
   95CHL1   H17 9461   4.218   1.866   7.442  0.0179  1.3177  2.0951
   95CHL1   C13 9462   4.318   1.933   7.256  0.0238 -0.3502 -0.9132
   95CHL1   C18 9463   4.430   2.040   7.224  0.0326 -0.2123 -0.0332
   95CHL1  H18A 9464   4.387   2.142   7.236 -1.0474 -0.1690 -3.2621
   95CHL1  H18B 9465   4.518   2.026   7.290  0.4481 -1.5576 -0.8288
   95CHL1  H18C 9466   4.455   2.026   7.116 -1.6419  0.7616 -0.5874
   95CHL1   C12 9467   4.352   1.789   7.217  0.1683  0.1879  0.9439
   95CHL1  H12A 9468   4.453   1.754   7.246  0.8962  0.8941 -0.6635
   95CHL1  H12B 9469   4.276   1.712   7.243 -0.7710  1.1391  1.0655
   95CHL1   C11 9470   4.361   1.780   7.063  0.0279  0.5209 -0.0207
   95CHL1  H11A 9471   4.458   1.831   7.041 -0.7421  1.3435 -1.7934
   95CHL1  H11B 9472   4.359   1.671   7.042  0.0456  0.2862  1.1192
   95CHL1    C9 9473   4.241   1.848   6.990 -0.2837 -0.2664 -0.3889
   95CHL1    H9 9474   4.148   1.789   7.005  0.0385 -0.9626 -1.0229
   95CHL1   C10 9475   4.262   1.851   6.837  0.8116 -0.1922  0.1274
   95CHL1   C19 9476   4.398   1.919   6.805  0.0202  0.1109  0.3054
   95CHL1  H19A 9477   4.415   1.918   6.696  0.9940  0.0939  0.4467
   95CHL1  H19B 9478   4.403   2.028   6.824  0.4344  0.0731  0.4430
   95CHL1  H19C 9479   4.488   1.865   6.844 -0.3025 -1.7349 -1.3281
   95CHL1    C1 9480   4.244   1.706   6.783 -0.6716 -0.0606  0.2285
   95CHL1   H1A 9481   4.331   1.651   6.825 -0.6658 -0.3266 -0.1284
   95CHL1   H1B 9482   4.155   1.659   6.829 -0.4261 -0.7916 -0.0355
   95CHL1    C2 9483   4.252   1.689   6.630 -0.6259 -0.0920 -0.3550
   95CHL1   H2A 9484   4.227   1.583   6.607 -2.6258  0.0072  1.0392
   95CHL1   H2B 9485   4.351   1.729   6.602 -0.6867 -0.7628 -1.5878
   95CHL1   C20 9486   4.393   1.960   7.512 -0.0465 -0.2761 -0.4552
   95CHL1   H20 9487   4.459   2.049   7.501 -2.0849  1.7129  2.0804
   95CHL1   C21 9488   4.485   1.829   7.517  0.4170  0.3415 -0.3256
   95CHL1  H21A 9489   4.413   1.758   7.564 -0.9932  2.5487  1.0360
   95CHL1  H21B 9490   4.560   1.833   7.599 -1.3356 -0.7041  1.4121
   95CHL1  H21C 9491   4.530   1.807   7.418 -1.3261 -1.7581 -0.7316
   95CHL1   C22 9492   4.334   1.984   7.656  0.2721  0.3156  0.0464
   95CHL1  H22A 9493   4.265   2.070   7.662 -1.1079 -0.7998  0.7171
   95CHL1  H22B 9494   4.274   1.893   7.679  0.6870  0.0770  0.2030
   95CHL1   C23 9495   4.425   2.004   7.784  0.0448  0.0489 -0.0947
   95CHL1  H23A 9496   4.475   1.907   7.802  3.4928  1.4941 -1.0274
   95CHL1  H23B 9497   4.505   2.080   7.769  0.2345  0.1892  1.5452
   95CHL1   C24 9498   4.344   2.037   7.907  0.6605  0.0906  0.0019
   95CHL1  H24A 9499   4.290   2.128   7.873  2.8007  1.2534 -0.4592
   95CHL1  H24B 9500   4.284   1.949   7.937  0.8273 -0.0071  0.0545
   95CHL1   C25 9501   4.427   2.076   8.032 -0.3011  0.6989 -0.1338
   95CHL1   H25 9502   4.516   2.141   8.015  1.1468 -1.1461  0.0117
   95CHL1   C26 9503   4.334   2.115   8.140  0.2380 -0.0776 -0.0809
   95CHL1  H26A 9504   4.305   2.219   8.112  2.8332  0.1620 -2.2055
   95CHL1  H26B 9505   4.241   2.054   8.140 -0.1018  0.4360 -0.2162
   95CHL1  H26C 9506   4.370   2.127   8.244  0.3657 -0.4724 -0.0802
   95CHL1   C27 9507   4.493   1.942   8.083 -0.2924  0.4580  0.4596
   95CHL1  H27A 9508   4.542   1.962   8.180  1.2881  2.9480 -0.7517
   95CHL1  H27B 9509   4.419   1.859   8.097  1.1036 -0.6759  1.3682
   95CHL1  H27C 9510   4.572   1.914   8.009 -0.0985  2.1306  0.0040
   96CHL1    C3 9511   4.476   1.292   6.660 -0.2194 -0.3600 -0.0606
   96CHL1    H3 9512   4.495   1.401   6.652 -1.8684  0.1240  1.9179
   96CHL1    O3 9513   4.494   1.224   6.536  0.4373  0.1570  0.0476
   96CHL1   H3' 9514   4.583   1.243   6.505  0.4107 -0.8768 -0.7149
   96CHL1    C4 9515   4.578   1.241   6.764  0.0215 -0.4628 -0.2771
   96CHL1   H4A 9516   4.586   1.130   6.761  1.1542 -0.3745 -1.9165
   96CHL1   H4B 9517   4.679   1.273   6.729  0.3896  0.4056  1.4551
   96CHL1    C5 9518   4.557   1.282   6.903 -0.2426 -0.1415 -0.5490
   96CHL1    C6 9519   4.652   1.346   6.975  0.2559 -0.4284  0.3646
   96CHL1    H6 9520   4.749   1.365   6.925 -1.2861  0.4944 -2.5402
   96CHL1    C7 9521   4.641   1.383   7.120 -0.3893 -0.0620  0.2935
   96CHL1   H7A 9522   4.733   1.342   7.167  0.3528 -0.0410 -1.0861
   96CHL1   H7B 9523   4.642   1.492   7.142  1.0039  0.1051 -0.4693
   96CHL1    C8 9524   4.513   1.318   7.189 -0.7852  0.2921 -0.8074
   96CHL1    H8 9525   4.533   1.212   7.216  0.4728  1.0873  1.6412
   96CHL1   C14 9526   4.483   1.403   7.316 -0.6451 -0.5476  0.4811
   96CHL1   H14 9527   4.485   1.511   7.288  2.9350 -0.6834 -0.3503
   96CHL1   C15 9528   4.591   1.419   7.427 -0.6820 -0.2837  0.3467
   96CHL1  H15A 9529   4.656   1.330   7.438  0.1178 -0.2583 -3.1068
   96CHL1  H15B 9530   4.670   1.493   7.405 -0.1755 -0.5664  1.1797
   96CHL1   C16 9531   4.507   1.454   7.554  0.8681  0.5486  0.5875
   96CHL1  H16A 9532   4.523   1.385   7.639  1.0141 -0.6736 -0.4101
   96CHL1  H16B 9533   4.530   1.556   7.591  2.1706  0.7553 -0.7251
   96CHL1   C17 9534   4.352   1.455   7.509 -0.5935  0.9240  0.1031
   96CHL1   H17 9535   4.336   1.560   7.479  1.4415  1.3291  0.2690
   96CHL1   C13 9536   4.353   1.368   7.377  0.7461 -0.0203 -0.7443
   96CHL1   C18 9537   4.366   1.220   7.419  0.2567  0.8117 -0.0453
   96CHL1  H18A 9538   4.429   1.199   7.508 -2.1686 -1.1891  1.3305
   96CHL1  H18B 9539   4.271   1.175   7.455  1.4659 -0.7795  1.3093
   96CHL1  H18C 9540   4.413   1.152   7.344  2.8860  1.8486  0.5734
   96CHL1   C12 9541   4.240   1.390   7.286 -0.7242 -0.4167 -0.1989
   96CHL1  H12A 9542   4.148   1.342   7.327 -1.1176 -0.5759 -1.2294
   96CHL1  H12B 9543   4.220   1.498   7.268 -0.7256 -0.6493 -1.7376
   96CHL1   C11 9544   4.261   1.313   7.155 -0.1781 -0.2870  0.3353
   96CHL1  H11A 9545   4.254   1.206   7.186  2.4523 -0.0176  2.2030
   96CHL1  H11B 9546   4.180   1.340   7.084 -0.5323  0.1238  0.8994
   96CHL1    C9 9547   4.396   1.338   7.089 -0.1174 -0.2036 -0.8647
   96CHL1    H9 9548   4.393   1.446   7.064 -0.7949  0.2029  0.8519
   96CHL1   C10 9549   4.422   1.267   6.959 -0.1886  0.5973 -0.7747
   96CHL1   C19 9550   4.403   1.111   6.984 -0.0901  0.2702 -0.1780
   96CHL1  H19A 9551   4.299   1.089   7.015 -0.1538  0.2790 -0.3881
   96CHL1  H19B 9552   4.426   1.043   6.899  0.3415 -2.4532  1.9424
   96CHL1  H19C 9553   4.463   1.083   7.074  1.7796 -0.6972 -1.6420
   96CHL1    C1 9554   4.317   1.324   6.862  1.0402  0.2872 -0.0229
   96CHL1   H1A 9555   4.218   1.296   6.905  1.2275 -1.2835 -0.5523
   96CHL1   H1B 9556   4.314   1.434   6.849 -0.8195  0.2959  0.2502
   96CHL1    C2 9557   4.332   1.277   6.714 -0.4047 -0.3415  0.4246
   96CHL1   H2A 9558   4.272   1.317   6.630 -1.7994 -4.5914 -0.8563
   96CHL1   H2B 9559   4.311   1.168   6.715 -0.4652 -0.3351  1.6753
   96CHL1   C20 9560   4.257   1.415   7.622  0.4338  0.9930 -0.1216
   96CHL1   H20 9561   4.295   1.321   7.668 -0.8723  1.6253  2.4748
   96CHL1   C21 9562   4.104   1.404   7.585  0.0863 -0.7496  0.2525
   96CHL1  H21A 9563   4.040   1.372   7.671 -0.2640  1.9539  1.0749
   96CHL1  H21B 9564   4.086   1.315   7.521 -2.0136 -1.1276  1.2691
   96CHL1  H21C 9565   4.062   1.488   7.527 -0.2642  0.4206  2.1207
   96CHL1   C22 9566   4.258   1.525   7.740  0.1212 -0.1361  0.2080
   96CHL1  H22A 9567   4.344   1.595   7.741 -0.0665  0.1093 -0.3323
   96CHL1  H22B 9568   4.182   1.598   7.706  0.1344 -1.2409 -2.4729
   96CHL1   C23 9569   4.238   1.470   7.883  0.2345  0.4399  0.7598
   96CHL1  H23A 9570   4.136   1.426   7.888  1.2051 -1.9458  0.9555
   96CHL1  H23B 9571   4.309   1.386   7.899 -0.6035 -1.1472 -2.9024
   96CHL1   C24 9572   4.260   1.576   7.991  0.6394  0.2875 -0.6857
   96CHL1  H24A 9573   4.368   1.604   7.986  1.2321 -1.8370 -0.8399
   96CHL1  H24B 9574   4.202   1.667   7.964 -0.5867 -0.0524  0.6838
   96CHL1   C25 9575   4.217   1.522   8.135 -0.6330 -1.1691 -0.4350
   96CHL1   H25 9576   4.111   1.489   8.128 -1.1046  0.3125 -0.6368
   96CHL1   C26 9577   4.314   1.416   8.177 -0.7667  0.3827 -0.2640
   96CHL1  H26A 9578   4.419   1.453   8.168  0.5563 -2.5555  1.7227
   96CHL1  H26B 9579   4.307   1.395   8.285 -1.2319 -0.6413 -0.4768
   96CHL1  H26C 9580   4.299   1.318   8.128 -0.1899  0.2125 -0.1071
   96CHL1   C27 9581   4.226   1.644   8.240 -0.5003 -0.3278  0.2803
   96CHL1  H27A 9582   4.137   1.708   8.225 -0.9729 -0.5867  1.8335
   96CHL1  H27B 9583   4.221   1.613   8.346 -0.3444  1.0794  0.7170
   96CHL1  H27C 9584   4.322   1.694   8.216 -1.1367  0.0055 -1.7694
   97OSM      N 9585   2.000   4.057  11.255 -0.2300  0.1609  0.3797
   97OSM    C15 9586   2.083   4.128  11.351  0.0678  0.6767  0.2688
   97OSM   H15A 9587   2.079   4.092  11.453  1.7351  0.3725  0.2654
   97OSM   H15B 9588   2.057   4.231  11.368  1.1663  0.9221  0.6034
   97OSM   H15C 9589   2.183   4.127  11.311  0.6085  2.7994  1.3721
   97OSM    C14 9590   2.044   3.910  11.238  0.0647 -0.6460  0.4695
   97OSM   H14A 9591   2.137   3.901  11.182  0.5119 -1.9204  1.3545
   97OSM   H14B 9592   1.963   3.856  11.191 -0.4016 -0.1374  0.6824
   97OSM   H14C 9593   2.050   3.871  11.338  3.3595  0.6693  0.9015
   97OSM    C13 9594   1.860   4.058  11.302  0.1124  0.5159  0.7745
   97OSM   H13A 9595   1.820   4.155  11.277  0.3261  0.4912  0.3172
   97OSM   H13B 9596   1.862   4.034  11.407  0.9752 -0.1303  0.6115
   97OSM   H13C 9597   1.800   3.984  11.251  0.8353 -0.0592  0.7539
   97OSM    C12 9598   2.016   4.113  11.111  0.4776  0.1388 -0.8762
   97OSM   H12A 9599   1.945   4.052  11.058 -0.5632  1.1796 -0.7246
   97OSM   H12B 9600   2.120   4.104  11.083 -0.0095  0.6827 -3.0416
   97OSM    C11 9601   1.956   4.258  11.087 -0.0429  0.9202  0.8617
   97OSM   H11A 9602   1.985   4.294  10.986 -2.0987 -0.4145 -0.2658
   97OSM   H11B 9603   1.990   4.333  11.162 -1.4492  1.2031  1.2509
   97OSM      P 9604   1.719   4.177  10.983  0.4745  0.7648  0.6025
   97OSM    O13 9605   1.773   4.038  10.970  0.0761  0.3340 -0.1355
   97OSM    O14 9606   1.581   4.187  11.024  0.3468 -0.4044 -0.2486
   97OSM    O11 9607   1.752   4.254  10.853  0.3187  0.0002  0.0902
   97OSM    O12 9608   1.810   4.255  11.084  0.9347 -0.0146  0.4841
   97OSM    C1S 9609   1.716   4.397  10.844  0.3881  0.7236 -0.1628
   97OSM    H1S 9610   1.750   4.449  10.936  1.5803  0.3478 -0.3726
   97OSM    H1T 9611   1.607   4.411  10.830  0.7080  1.3678 -2.5203
   97OSM     NF 9612   1.786   4.607  10.726  0.3845  0.1667 -0.0086
   97OSM    HNF 9613   1.730   4.659  10.662  1.3160 -0.8902 -1.7727
   97OSM    C2S 9614   1.789   4.461  10.718  0.5419 -0.2714  0.8256
   97OSM    H2S 9615   1.886   4.411  10.699 -0.7513 -2.2025 -1.2782
   97OSM    C3S 9616   1.717   4.395  10.592 -0.8413 -0.4275 -0.4978
   97OSM    H3S 9617   1.610   4.425  10.604 -0.8400 -0.2573 -0.9086
   97OSM     O3 9618   1.718   4.250  10.587  0.0233  0.1078 -0.3304
   97OSM    HO3 9619   1.729   4.225  10.679  1.0921  0.8204 -0.2529
   97OSM    C4S 9620   1.771   4.444  10.461 -0.4469 -0.3573  0.6869
   97OSM    H4S 9621   1.714   4.531  10.425 -1.7983 -0.6249  2.0916
   97OSM    C5S 9622   1.872   4.402  10.388  0.4422  0.0679  0.3478
   97OSM    H5S 9623   1.932   4.317  10.425 -0.1762 -0.2352  0.6693
   97OSM    C6S 9624   1.903   4.459  10.256 -0.1061 -0.2373  0.0684
   97OSM    H6S 9625   1.999   4.513  10.263  0.9631 -1.8883 -1.0178
   97OSM    H6T 9626   1.826   4.531  10.224  0.3669  0.7977  1.1915
   97OSM    C7S 9627   1.929   4.348  10.146 -0.4920  0.0812  0.3776
   97OSM    H7S 9628   1.842   4.283  10.124  0.4686 -0.9368 -0.5596
   97OSM    H7T 9629   2.019   4.288  10.170 -0.6161 -0.6376 -0.8847
   97OSM    C8S 9630   1.953   4.418  10.012  0.0959 -0.5027  0.3794
   97OSM    H8S 9631   2.021   4.504  10.026 -0.4975  0.1687 -0.7703
   97OSM    H8T 9632   1.855   4.464   9.986 -0.1107 -0.8365  0.5575
   97OSM    C9S 9633   1.997   4.320   9.899  0.0564  0.9498  0.1274
   97OSM    H9S 9634   1.920   4.245   9.870  0.8015  0.5634 -0.9051
   97OSM    H9T 9635   2.076   4.255   9.943 -0.1872  0.8387  0.4055
   97OSM   C10S 9636   2.048   4.391   9.768 -0.4830  0.0209  0.0676
   97OSM   H10S 9637   2.107   4.479   9.800  0.3558 -0.0565 -1.2052
   97OSM   H10T 9638   1.957   4.425   9.714 -0.8330 -2.0666 -0.7540
   97OSM   C11S 9639   2.136   4.306   9.680  0.4667 -0.4598 -0.0467
   97OSM   H11S 9640   2.072   4.219   9.654  0.5213 -0.6863  0.5719
   97OSM   H11T 9641   2.224   4.257   9.727 -0.0721 -1.5732 -0.1723
   97OSM   C12S 9642   2.180   4.367   9.541  0.3960  0.3081 -0.0550
   97OSM   H12S 9643   2.228   4.295   9.472  1.8797  0.9135  0.3054
   97OSM   H12T 9644   2.258   4.444   9.559  0.8245 -0.1963  0.2826
   97OSM   C13S 9645   2.073   4.448   9.466  0.4227  0.4068  0.0023
   97OSM   H13S 9646   2.059   4.540   9.527  2.1027 -0.2296  1.4071
   97OSM   H13T 9647   1.980   4.387   9.473  1.9444 -1.9124  1.7437
   97OSM   C14S 9648   2.099   4.464   9.318  0.6389 -0.2305  0.5685
   97OSM   H14S 9649   2.098   4.358   9.283  1.0180  0.2233 -0.8658
   97OSM   H14T 9650   2.198   4.511   9.301 -0.7592  1.7251 -3.0833
   97OSM   C15S 9651   1.996   4.543   9.234  0.4620 -0.5442 -0.7685
   97OSM   H15S 9652   1.983   4.644   9.281  2.9082 -0.1243 -0.8407
   97OSM   H15T 9653   1.902   4.484   9.245  0.0632 -0.0061 -1.2215
   97OSM   C16S 9654   2.036   4.545   9.087  0.0319 -0.1766  0.0103
   97OSM   H16S 9655   2.088   4.460   9.039  1.1122  0.8809 -0.7628
   97OSM   H16T 9656   2.094   4.639   9.072 -0.3037  0.0140 -0.1162
   97OSM   C17S 9657   1.909   4.541   8.995  0.2713 -0.0558 -0.1876
   97OSM   H17S 9658   1.847   4.613   9.053  3.5061  3.1489 -0.3388
   97OSM   H17T 9659   1.864   4.439   8.989 -0.7676  0.3400  0.6630
   97OSM   C18S 9660   1.919   4.597   8.856 -0.4422  0.5432 -0.4532
   97OSM   H18S 9661   1.951   4.704   8.858 -0.7441  0.6343 -0.2894
   97OSM   H18T 9662   1.821   4.586   8.805  0.8535  0.0965 -2.9761
   97OSM   H18U 9663   1.986   4.556   8.778 -0.9729  0.9556 -1.1447
   97OSM    C1F 9664   1.870   4.678  10.795 -0.4232 -0.1140 -0.7196
   97OSM     OF 9665   1.947   4.631  10.877 -0.8647 -0.2151  0.8506
   97OSM    C2F 9666   1.856   4.830  10.781  0.3595 -0.2624  0.1198
   97OSM    H2F 9667   1.930   4.883  10.844 -2.1921 -0.1545  3.2538
   97OSM    H2G 9668   1.755   4.859  10.817  0.5530  2.6659 -1.3785
   97OSM    C3F 9669   1.846   4.882  10.643 -0.5483 -0.1839 -0.4497
   97OSM    H3F 9670   1.825   4.991  10.644 -1.3063 -0.3253 -0.2675
   97OSM    H3G 9671   1.770   4.836  10.576 -1.0209  1.4455 -1.0773
   97OSM    C4F 9672   1.985   4.881  10.572 -0.0028  0.3746  0.6858
   97OSM    H4F 9673   2.061   4.909  10.649 -0.3793 -0.5953  1.4253
   97OSM    H4G 9674   1.992   4.971  10.508 -1.3234 -0.3606 -0.5397
   97OSM    C5F 9675   2.015   4.756  10.486 -0.0170  0.0357 -0.3443
   97OSM    H5F 9676   1.945   4.776  10.402 -0.7405  1.1544  0.4935
   97OSM    H5G 9677   1.993   4.659  10.536 -0.9831 -0.2011 -1.1810
   97OSM    C6F 9678   2.152   4.754  10.420  0.0499 -0.1465  0.2467
   97OSM    H6F 9679   2.172   4.653  10.380  2.4983 -0.0759  1.1227
   97OSM    H6G 9680   2.227   4.779  10.498 -0.4005  0.0378  0.6263
   97OSM    C7F 9681   2.174   4.864  10.314 -0.0527  0.2034 -0.4880
   97OSM    H7F 9682   2.284   4.877  10.297  0.0104 -0.5968 -0.7199
   97OSM    H7G 9683   2.135   4.961  10.353  1.6044 -0.5261  3.4501
   97OSM    C8F 9684   2.105   4.830  10.179 -0.6849 -0.6409 -0.2283
   97OSM    H8F 9685   2.104   4.919  10.113 -0.1842  0.3892  1.1044
   97OSM    H8G 9686   1.999   4.799  10.194 -0.2550 -1.8777  0.5033
   97OSM    C9F 9687   2.180   4.713  10.109  0.3383 -0.4015  0.4715
   97OSM    H9F 9688   2.227   4.639  10.175  1.8985 -1.0456 -1.2801
   97OSM   C10F 9689   2.197   4.695   9.973 -0.8292  0.4985 -0.4810
   97OSM   H10F 9690   2.247   4.601   9.946 -0.2175  0.0128  2.0611
   97OSM   C11F 9691   2.141   4.780   9.862  0.3068 -0.2742 -0.1690
   97OSM   H11F 9692   2.120   4.878   9.910 -0.8872 -1.3590  1.6661
   97OSM   H11G 9693   2.055   4.732   9.811  0.8950 -0.9451 -0.5483
   97OSM   C12F 9694   2.239   4.805   9.748 -0.3858  0.0711  0.7429
   97OSM   H12F 9695   2.257   4.707   9.699  1.9348  1.6887 -1.9664
   97OSM   H12G 9696   2.335   4.848   9.785  1.2852 -2.1395 -0.8044
   97OSM   C13F 9697   2.172   4.895   9.645  0.2767  0.1737  0.1943
   97OSM   H13F 9698   2.152   4.994   9.693  1.0376  0.0467  0.7946
   97OSM   H13G 9699   2.069   4.858   9.627  0.6399 -0.6286 -0.2753
   97OSM   C14F 9700   2.234   4.898   9.507  0.2753  0.0220  0.4250
   97OSM   H14F 9701   2.278   4.798   9.483 -0.9618 -0.2982 -0.6292
   97OSM   H14G 9702   2.302   4.985   9.499 -0.3533  0.3850 -1.4557
   97OSM   C15F 9703   2.131   4.926   9.395 -0.2217  0.0634  0.2283
   97OSM   H15F 9704   2.077   5.023   9.390 -1.0945 -0.4135  0.2069
   97OSM   H15G 9705   2.052   4.849   9.402 -0.4153  0.3452  1.2691
   97OSM   C16F 9706   2.205   4.917   9.257 -0.1844  0.4562  0.0065
   97OSM   H16F 9707   2.253   4.817   9.247 -0.1241  0.6486 -2.0165
   97OSM   H16G 9708   2.283   4.995   9.253 -1.7402  2.0072 -1.3997
   97OSM   C17F 9709   2.101   4.941   9.140 -0.5411  0.4038 -0.4152
   97OSM   H17F 9710   2.048   5.036   9.164 -0.4868  0.3383 -0.0364
   97OSM   H17G 9711   2.019   4.866   9.145 -1.5311  1.4227 -0.7343
   97OSM   C18F 9712   2.156   4.934   8.998 -0.1274 -0.2087 -0.0864
   97OSM   H18F 9713   2.196   4.831   8.989  0.3704  0.1453 -2.5119
   97OSM   H18G 9714   2.236   5.011   8.986  0.9507 -1.2317  0.3415
   97OSM   H18H 9715   2.077   4.941   8.920 -0.0217 -2.3594 -0.4596
   98OSM      N 9716   1.588   4.770  11.175 -0.1873 -0.2106 -0.4760
   98OSM    C15 9717   1.669   4.750  11.303 -0.3348 -0.7109 -0.2109
   98OSM   H15A 9718   1.629   4.666  11.358  1.1253 -1.1264  0.2646
   98OSM   H15B 9719   1.673   4.842  11.359 -0.3035  0.6100 -2.2811
   98OSM   H15C 9720   1.774   4.733  11.281 -0.4493  0.5392 -1.9656
   98OSM    C14 9721   1.610   4.648  11.087 -0.2234  0.0094  0.4547
   98OSM   H14A 9722   1.714   4.645  11.055  0.5203  1.3056  2.5118
   98OSM   H14B 9723   1.551   4.648  10.997  0.1062  0.9635  0.2197
   98OSM   H14C 9724   1.578   4.561  11.141 -0.1249 -0.8011 -0.7500
   98OSM    C13 9725   1.441   4.778  11.207  0.1464 -0.0370 -1.1460
   98OSM   H13A 9726   1.407   4.686  11.252  2.5009  0.0001  0.9289
   98OSM   H13B 9727   1.388   4.801  11.115  0.9771 -1.9936 -2.1663
   98OSM   H13C 9728   1.427   4.863  11.272  0.5835 -0.3953 -0.5780
   98OSM    C12 9729   1.622   4.898  11.101  0.1190  0.5005  0.8280
   98OSM   H12A 9730   1.729   4.901  11.087  0.0396  1.0808  0.2518
   98OSM   H12B 9731   1.608   4.980  11.170  2.3011 -0.1352  2.1337
   98OSM    C11 9732   1.541   4.937  10.972  0.8407 -0.2569 -0.8854
   98OSM   H11A 9733   1.557   4.861  10.893  1.2801 -2.3603  1.1371
   98OSM   H11B 9734   1.587   5.034  10.941 -2.4608  1.8486  0.1884
   98OSM      P 9735   1.315   5.024  10.871  0.0355 -0.3597  0.3688
   98OSM    O13 9736   1.169   5.004  10.898 -0.1377  0.5205  0.2557
   98OSM    O14 9737   1.360   5.162  10.850  0.0248 -0.2190  0.1257
   98OSM    O11 9738   1.367   4.937  10.749 -0.0686  0.3757  0.0254
   98OSM    O12 9739   1.399   4.962  10.997 -0.7599 -0.4324 -0.3080
   98OSM    C1S 9740   1.280   4.889  10.646  1.0359  0.1859 -0.4587
   98OSM    H1S 9741   1.203   4.963  10.615  1.1524 -0.4429 -2.4054
   98OSM    H1T 9742   1.227   4.792  10.662 -0.0648  0.4374 -2.2377
   98OSM     NF 9743   1.271   4.855  10.389  0.2548 -0.4839  0.7428
   98OSM    HNF 9744   1.283   4.781  10.323  1.8008 -0.6834  1.1922
   98OSM    C2S 9745   1.354   4.863  10.509 -0.9006 -0.4723  0.6553
   98OSM    H2S 9746   1.418   4.953  10.494 -1.5196 -0.1430 -0.1020
   98OSM    C3S 9747   1.462   4.748  10.519  0.1070 -0.2166 -0.6469
   98OSM    H3S 9748   1.409   4.650  10.524  1.5971 -1.0520 -0.8149
   98OSM     O3 9749   1.544   4.750  10.631  0.3046 -0.2324 -0.5957
   98OSM    HO3 9750   1.512   4.821  10.687  2.1698 -1.1042  1.7333
   98OSM    C4S 9751   1.545   4.743  10.398 -0.0128  0.6971  0.0440
   98OSM    H4S 9752   1.521   4.650  10.346 -0.3846 -0.0571  1.5259
   98OSM    C5S 9753   1.641   4.830  10.352  0.4863 -0.0540 -0.5339
   98OSM    H5S 9754   1.666   4.915  10.417 -0.8130 -0.8264  1.0229
   98OSM    C6S 9755   1.707   4.813  10.221  0.3402 -0.1254  0.2140
   98OSM    H6S 9756   1.804   4.764  10.242  0.0880  0.0065  1.8495
   98OSM    H6T 9757   1.728   4.913  10.178  1.6503  0.2495  1.6387
   98OSM    C7S 9758   1.631   4.727  10.115  0.5051 -0.8583  0.1246
   98OSM    H7S 9759   1.528   4.765  10.099  1.5148  1.5432 -1.1972
   98OSM    H7T 9760   1.631   4.623  10.154  0.9946 -1.2142 -0.7905
   98OSM    C8S 9761   1.702   4.730   9.980  0.3400  0.0531  1.0575
   98OSM    H8S 9762   1.806   4.689   9.980 -0.6281 -2.6427 -0.7530
   98OSM    H8T 9763   1.708   4.828   9.929  1.2414 -1.3497 -1.7237
   98OSM    C9S 9764   1.632   4.646   9.876 -0.1698  0.2961 -0.8694
   98OSM    H9S 9765   1.522   4.663   9.879 -0.3626 -0.9793 -0.2056
   98OSM    H9T 9766   1.641   4.538   9.899  0.9056  0.2315 -1.5242
   98OSM   C10S 9767   1.678   4.663   9.727 -0.0391 -0.4650  0.2166
   98OSM   H10S 9768   1.789   4.663   9.725 -0.0500 -0.3810 -0.3738
   98OSM   H10T 9769   1.647   4.765   9.698 -2.0578 -0.7847  1.0851
   98OSM   C11S 9770   1.612   4.560   9.634 -0.2290  0.1515  0.3480
   98OSM   H11S 9771   1.503   4.556   9.653 -0.3853  0.5969 -0.4099
   98OSM   H11T 9772   1.657   4.459   9.637 -1.9427 -0.6735 -0.6254
   98OSM   C12S 9773   1.638   4.593   9.486 -0.1827 -0.2709 -0.7251
   98OSM   H12S 9774   1.747   4.575   9.479 -0.0026  0.5593 -0.0838
   98OSM   H12T 9775   1.614   4.701   9.475 -1.1569 -0.4212 -0.1417
   98OSM   C13S 9776   1.574   4.501   9.382  0.3216  0.3001  0.1269
   98OSM   H13S 9777   1.468   4.481   9.409 -0.2880  0.1358 -2.1751
   98OSM   H13T 9778   1.624   4.402   9.369 -0.3986 -0.1400  0.6118
   98OSM   C14S 9779   1.567   4.560   9.238  0.1241  0.1068 -0.8666
   98OSM   H14S 9780   1.663   4.612   9.218 -0.5114  2.6888  1.9554
   98OSM   H14T 9781   1.492   4.642   9.241  1.0051  0.9108  0.6060
   98OSM   C15S 9782   1.520   4.455   9.139 -0.5068 -0.2887  0.8388
   98OSM   H15S 9783   1.432   4.401   9.179  1.0119 -4.9644 -1.4437
   98OSM   H15T 9784   1.598   4.379   9.115  0.6509  0.5491  1.8397
   98OSM   C16S 9785   1.472   4.523   9.005 -0.1881  0.5426  0.0146
   98OSM   H16S 9786   1.556   4.587   8.971  0.5589 -0.4289 -0.0103
   98OSM   H16T 9787   1.384   4.583   9.038  0.1964  0.7531  0.6910
   98OSM   C17S 9788   1.432   4.422   8.899 -0.2851  0.4772  0.5340
   98OSM   H17S 9789   1.369   4.345   8.948 -0.7594  2.8155  4.0119
   98OSM   H17T 9790   1.525   4.378   8.858 -1.0173 -1.5992  1.0202
   98OSM   C18S 9791   1.359   4.480   8.778  0.2983  0.2733  0.1545
   98OSM   H18S 9792   1.421   4.549   8.717  1.7434 -2.2079 -1.3568
   98OSM   H18T 9793   1.270   4.529   8.822 -1.0606 -1.2423 -0.7712
   98OSM   H18U 9794   1.322   4.390   8.724  0.2996 -0.1428  0.8469
   98OSM    C1F 9795   1.187   4.944  10.349 -0.6536  0.2804  0.0727
   98OSM     OF 9796   1.192   5.060  10.392 -0.2333  0.3089 -0.1230
   98OSM    C2F 9797   1.090   4.906  10.238  0.5496  0.3084  0.5034
   98OSM    H2F 9798   1.101   4.795  10.235  2.5896  0.4938 -0.3223
   98OSM    H2G 9799   1.128   4.933  10.137  0.1205  1.7140  0.6949
   98OSM    C3F 9800   0.947   4.946  10.268 -0.2866 -0.1459  0.3315
   98OSM    H3F 9801   0.928   5.055  10.272 -2.1444 -0.4199 -0.1711
   98OSM    H3G 9802   0.911   4.908  10.366 -0.0939  1.1509  0.9182
   98OSM    C4F 9803   0.846   4.904  10.162  0.0920  0.6002  0.3927
   98OSM    H4F 9804   0.746   4.915  10.209  0.1498  2.0301  0.2064
   98OSM    H4G 9805   0.856   4.798  10.130 -2.9234  0.8817 -1.9156
   98OSM    C5F 9806   0.861   4.976  10.024 -0.3094 -0.4786  0.1032
   98OSM    H5F 9807   0.792   4.927   9.952 -0.3372  0.3934 -0.4904
   98OSM    H5G 9808   0.962   4.964   9.981 -0.4277  0.0255 -0.3270
   98OSM    C6F 9809   0.836   5.127  10.027 -0.5565 -0.0758  0.1573
   98OSM    H6F 9810   0.904   5.175  10.100 -0.0666  0.9315 -0.9240
   98OSM    H6G 9811   0.732   5.153  10.057  0.2020 -0.2448  3.2334
   98OSM    C7F 9812   0.857   5.194   9.894 -0.5866 -0.3598  0.1214
   98OSM    H7F 9813   0.834   5.300   9.914 -2.3383 -0.7361  0.2731
   98OSM    H7G 9814   0.785   5.158   9.817 -0.1895  0.1839 -0.5107
   98OSM    C8F 9815   0.999   5.194   9.835  0.2503 -0.1933 -0.1125
   98OSM    H8F 9816   1.021   5.090   9.801 -1.4260 -0.7599  0.4214
   98OSM    H8G 9817   1.073   5.229   9.909  0.5960 -0.9355 -0.0955
   98OSM    C9F 9818   1.013   5.303   9.728  0.7708  0.3413  0.0084
   98OSM    H9F 9819   1.039   5.399   9.773  0.0108  1.3384 -1.5945
   98OSM   C10F 9820   0.984   5.299   9.595 -0.0640 -0.1752 -0.2921
   98OSM   H10F 9821   0.993   5.395   9.541 -1.6236  1.1089  1.6038
   98OSM   C11F 9822   0.946   5.180   9.517  0.5703  0.4220 -0.2826
   98OSM   H11F 9823   0.839   5.178   9.488 -0.0219  3.8712  1.0669
   98OSM   H11G 9824   0.969   5.087   9.573  1.3559 -0.2316 -1.6665
   98OSM   C12F 9825   1.031   5.154   9.388 -0.3790  0.6691  0.3560
   98OSM   H12F 9826   0.988   5.063   9.341 -0.2978  0.7154  0.1928
   98OSM   H12G 9827   1.132   5.127   9.424  0.2169 -0.5237 -2.0428
   98OSM   C13F 9828   1.028   5.271   9.289 -0.2895  0.2102  0.1846
   98OSM   H13F 9829   1.050   5.372   9.329 -0.6720  0.0383  0.8351
   98OSM   H13G 9830   0.931   5.288   9.237  0.3473  1.0732 -0.7696
   98OSM   C14F 9831   1.128   5.239   9.173  0.2664 -0.2639  0.1211
   98OSM   H14F 9832   1.100   5.148   9.116  3.3197  0.8500 -3.4693
   98OSM   H14G 9833   1.225   5.216   9.222 -0.3687 -0.9019  1.1238
   98OSM   C15F 9834   1.126   5.348   9.070  0.2553  0.1955 -0.4902
   98OSM   H15F 9835   1.152   5.449   9.108 -1.8420  1.4737 -2.2026
   98OSM   H15G 9836   1.019   5.354   9.040 -0.5084  2.8749  2.2360
   98OSM   C16F 9837   1.202   5.297   8.947 -0.3375  0.2150 -0.1292
   98OSM   H16F 9838   1.147   5.209   8.908 -0.6164  1.1068 -1.8330
   98OSM   H16G 9839   1.306   5.264   8.969 -0.3698 -1.3484 -2.0720
   98OSM   C17F 9840   1.204   5.400   8.826 -0.4634 -0.3027  0.0679
   98OSM   H17F 9841   1.240   5.493   8.876  0.8215  0.3117 -1.8835
   98OSM   H17G 9842   1.108   5.416   8.774  0.8132  1.0224 -1.9965
   98OSM   C18F 9843   1.286   5.356   8.709 -0.8133  0.2108  0.1951
   98OSM   H18F 9844   1.229   5.288   8.643  0.7878 -0.1439 -0.8703
   98OSM   H18G 9845   1.383   5.307   8.736  0.1251  1.8767 -0.0220
   98OSM   H18H 9846   1.327   5.447   8.660 -0.3889  0.3552  0.7958
   99OSM      N 9847   3.106   3.140  10.885 -0.3376  0.1966  0.0725
   99OSM    C15 9848   3.224   3.131  10.804  0.0856 -0.3375  0.1638
   99OSM   H15A 9849   3.270   3.035  10.815  0.0090 -0.4287 -0.2929
   99OSM   H15B 9850   3.300   3.203  10.829  0.3074  0.5072 -2.5753
   99OSM   H15C 9851   3.206   3.142  10.698  1.9592  1.6124 -0.0065
   99OSM    C14 9852   3.154   3.116  11.029 -0.5126 -0.6920 -0.4795
   99OSM   H14A 9853   3.171   3.013  11.056  0.5227 -0.3977  0.0628
   99OSM   H14B 9854   3.069   3.148  11.086 -0.1583 -0.0911 -0.2776
   99OSM   H14C 9855   3.241   3.172  11.061 -0.3877 -0.9148 -0.4255
   99OSM    C13 9856   3.048   3.279  10.877 -0.1719  0.0750 -0.2020
   99OSM   H13A 9857   3.032   3.312  10.775  2.0422 -1.4123 -1.1034
   99OSM   H13B 9858   3.103   3.357  10.925 -0.1027  0.1619 -0.4209
   99OSM   H13C 9859   2.945   3.281  10.909 -1.3201  0.5771 -3.5199
   99OSM    C12 9860   2.995   3.036  10.855 -0.3926  0.5147  0.4892
   99OSM   H12A 9861   3.035   2.937  10.866 -0.6078  0.3499 -0.1461
   99OSM   H12B 9862   2.967   3.046  10.751 -0.6640 -1.5244  0.3284
   99OSM    C11 9863   2.880   3.045  10.950  0.0826  0.5323 -0.0027
   99OSM   H11A 9864   2.915   3.032  11.054  0.9234  2.1888 -0.0426
   99OSM   H11B 9865   2.822   2.952  10.934  1.0778 -0.5929  2.5028
   99OSM      P 9866   2.677   3.172  10.841  0.3725  0.6422 -0.0717
   99OSM    O13 9867   2.572   3.083  10.895 -0.9992  0.1030  0.0493
   99OSM    O14 9868   2.648   3.315  10.824  0.3240 -0.1019  0.0066
   99OSM    O11 9869   2.746   3.110  10.712 -0.1981 -0.2707 -0.4580
   99OSM    O12 9870   2.802   3.160  10.938  0.0116 -0.3879 -0.0672
   99OSM    C1S 9871   2.817   3.191  10.613 -0.6281  0.9792 -0.1016
   99OSM    H1S 9872   2.926   3.179  10.624 -0.8056  0.9616  2.1528
   99OSM    H1T 9873   2.818   3.298  10.645  0.8533  1.0154 -0.2213
   99OSM     NF 9874   2.681   3.313  10.437 -0.2311 -0.4964  0.0663
   99OSM    HNF 9875   2.584   3.292  10.429  0.1134 -1.6630 -1.4634
   99OSM    C2S 9876   2.762   3.194  10.470  0.1295  0.5384  0.2399
   99OSM    H2S 9877   2.853   3.191  10.406  0.2908 -4.4814  0.3454
   99OSM    C3S 9878   2.688   3.056  10.436  0.9565 -0.2346 -0.9199
   99OSM    H3S 9879   2.603   3.037  10.505  1.2344 -0.8630 -0.7475
   99OSM     O3 9880   2.779   2.947  10.428 -0.0257 -0.1979  0.0620
   99OSM    HO3 9881   2.842   2.978  10.494 -1.0734  0.7924  0.6534
   99OSM    C4S 9882   2.625   3.059  10.298 -0.3076  0.2600 -0.7985
   99OSM    H4S 9883   2.699   3.082  10.220  1.3031  1.6449  1.0391
   99OSM    C5S 9884   2.496   3.042  10.273  1.0295 -0.1917  0.3742
   99OSM    H5S 9885   2.430   2.997  10.348  0.3046  0.1497 -0.0482
   99OSM    C6S 9886   2.442   3.042  10.133  0.6935  0.4998 -0.2025
   99OSM    H6S 9887   2.343   3.092  10.144  1.0648  1.5048 -1.1604
   99OSM    H6T 9888   2.427   2.936  10.106  0.5062  0.3362  0.5398
   99OSM    C7S 9889   2.517   3.112  10.028 -0.9215  0.2214  0.4327
   99OSM    H7S 9890   2.627   3.092  10.024 -0.8111  0.9896 -2.0655
   99OSM    H7T 9891   2.508   3.221  10.050  1.8125  0.3798  1.2205
   99OSM    C8S 9892   2.463   3.089   9.884 -0.1027  0.3634 -0.0441
   99OSM    H8S 9893   2.352   3.096   9.879 -0.3815 -3.2007 -0.9731
   99OSM    H8T 9894   2.490   2.985   9.855  2.1001  0.9821 -0.4422
   99OSM    C9S 9895   2.531   3.181   9.774 -0.0971  0.1926 -0.6828
   99OSM    H9S 9896   2.636   3.209   9.797  0.0897 -0.1572 -1.0911
   99OSM    H9T 9897   2.481   3.280   9.768  0.6758  0.6279 -0.0598
   99OSM   C10S 9898   2.520   3.122   9.629 -0.7702 -0.0461 -0.0682
   99OSM   H10S 9899   2.415   3.089   9.614 -0.9004  0.8689 -1.3495
   99OSM   H10T 9900   2.589   3.035   9.618 -0.1926  0.4082 -0.0855
   99OSM   C11S 9901   2.565   3.222   9.513 -0.6697 -0.4355  0.1078
   99OSM   H11S 9902   2.676   3.233   9.512 -0.3759 -2.5237  1.8609
   99OSM   H11T 9903   2.518   3.322   9.528 -1.2394 -0.1410 -2.9550
   99OSM   C12S 9904   2.516   3.186   9.373 -0.3789 -0.5119  0.6606
   99OSM   H12S 9905   2.566   3.092   9.340 -0.9751 -0.3746 -0.6930
   99OSM   H12T 9906   2.409   3.154   9.378 -0.6163  0.2887  0.7585
   99OSM   C13S 9907   2.528   3.292   9.257  0.2535 -0.3974 -0.4912
   99OSM   H13S 9908   2.632   3.328   9.243  0.6055  0.5078  3.4278
   99OSM   H13T 9909   2.471   3.385   9.277  1.8492  0.9282 -1.7785
   99OSM   C14S 9910   2.470   3.246   9.124  0.0386 -0.1678  0.5263
   99OSM   H14S 9911   2.359   3.250   9.119  0.0268  1.4022  1.3451
   99OSM   H14T 9912   2.494   3.138   9.113  2.5927  0.1646  1.9277
   99OSM   C15S 9913   2.536   3.333   9.014 -1.1296  0.2664 -0.1395
   99OSM   H15S 9914   2.641   3.303   8.996 -0.7263  0.9669  0.9326
   99OSM   H15T 9915   2.545   3.438   9.050 -0.4135 -0.0167  0.5192
   99OSM   C16S 9916   2.459   3.335   8.877  0.1516  0.5436  0.1309
   99OSM   H16S 9917   2.513   3.385   8.794  2.0541 -0.5310  0.6682
   99OSM   H16T 9918   2.366   3.395   8.876 -0.5204 -0.4658 -1.0548
   99OSM   C17S 9919   2.415   3.195   8.829 -0.4776 -0.1195 -0.7850
   99OSM   H17S 9920   2.344   3.231   8.752 -0.7104 -0.3220 -0.6662
   99OSM   H17T 9921   2.365   3.141   8.912  1.1451 -0.1588  0.2088
   99OSM   C18S 9922   2.523   3.109   8.763 -0.2344  0.0312  0.5143
   99OSM   H18S 9923   2.584   3.167   8.690 -0.9439  1.2733  0.8722
   99OSM   H18T 9924   2.487   3.016   8.715  3.1048 -1.7062  1.0706
   99OSM   H18U 9925   2.587   3.073   8.847  1.7729  1.7600 -0.1946
   99OSM    C1F 9926   2.726   3.440  10.426  0.5563  0.8829 -0.4480
   99OSM     OF 9927   2.841   3.475  10.449 -0.0936  0.2192  0.5717
   99OSM    C2F 9928   2.622   3.529  10.368  0.7174 -0.3900 -0.3211
   99OSM    H2F 9929   2.670   3.629  10.370 -1.5137  0.8090  2.7923
   99OSM    H2G 9930   2.534   3.528  10.437 -0.2614  1.0991 -1.4804
   99OSM    C3F 9931   2.570   3.498  10.226 -0.9006 -0.3387  0.5118
   99OSM    H3F 9932   2.665   3.510  10.170 -0.8259 -1.1817  0.4537
   99OSM    H3G 9933   2.534   3.394  10.216 -0.9013 -0.1531 -2.3098
   99OSM    C4F 9934   2.453   3.591  10.194  0.1188 -0.2004  0.0157
   99OSM    H4F 9935   2.489   3.694  10.215  1.4057 -0.3624 -1.2487
   99OSM    H4G 9936   2.369   3.559  10.259 -0.4588 -2.3102 -1.6432
   99OSM    C5F 9937   2.405   3.587  10.047 -0.0305 -0.0934  0.2951
   99OSM    H5F 9938   2.346   3.679  10.027  0.5231  0.3152  0.5087
   99OSM    H5G 9939   2.336   3.501  10.036 -0.4061  0.4369 -2.2875
   99OSM    C6F 9940   2.518   3.586   9.947 -0.3052 -0.1243  0.6504
   99OSM    H6F 9941   2.572   3.490   9.963  0.5404  0.3923  0.9632
   99OSM    H6G 9942   2.593   3.664   9.970  2.0925 -2.6867  2.2779
   99OSM    C7F 9943   2.473   3.606   9.802 -0.0053  0.1303  0.2305
   99OSM    H7F 9944   2.431   3.707   9.781  0.6006  0.1957 -0.7081
   99OSM    H7G 9945   2.386   3.539   9.784 -0.7864  1.1018  0.3178
   99OSM    C8F 9946   2.594   3.578   9.711 -0.4204 -0.2484 -0.7473
   99OSM    H8F 9947   2.627   3.472   9.717  0.6338  0.0010 -1.7046
   99OSM    H8G 9948   2.683   3.640   9.736 -1.3268  0.9252 -0.3191
   99OSM    C9F 9949   2.550   3.611   9.570 -0.0182 -0.6530 -0.1012
   99OSM    H9F 9950   2.444   3.610   9.542  0.8068  0.8662 -3.8515
   99OSM   C10F 9951   2.637   3.653   9.476  0.9322 -0.0909 -0.1348
   99OSM   H10F 9952   2.608   3.686   9.375 -0.5021 -1.3378 -0.1676
   99OSM   C11F 9953   2.787   3.676   9.493 -0.1684  0.2051 -0.0580
   99OSM   H11F 9954   2.828   3.605   9.419 -1.4314  0.3857 -0.9745
   99OSM   H11G 9955   2.816   3.642   9.595 -0.5480 -0.5032 -0.1744
   99OSM   C12F 9956   2.829   3.822   9.484  0.1443 -0.1882 -0.3991
   99OSM   H12F 9957   2.805   3.877   9.390 -2.2836  0.8174  0.7450
   99OSM   H12G 9958   2.940   3.816   9.488  0.1292 -0.2805 -0.0910
   99OSM   C13F 9959   2.769   3.902   9.594 -0.2680 -0.4646 -0.0342
   99OSM   H13F 9960   2.812   3.854   9.684  3.1678  1.4624 -0.4627
   99OSM   H13G 9961   2.658   3.897   9.598 -0.3550 -0.8029 -1.9700
   99OSM   C14F 9962   2.804   4.054   9.602  0.0191 -0.4002  0.3077
   99OSM   H14F 9963   2.780   4.085   9.706 -0.4288  2.1538 -0.4780
   99OSM   H14G 9964   2.736   4.104   9.530 -0.9323  2.2645  2.8338
   99OSM   C15F 9965   2.950   4.088   9.570 -0.1707  0.3605  0.4658
   99OSM   H15F 9966   2.976   4.047   9.470 -0.0359 -1.0481  1.0442
   99OSM   H15G 9967   3.027   4.048   9.640 -0.8948 -0.3389  0.8699
   99OSM   C16F 9968   2.990   4.240   9.564 -0.6214  1.2915 -0.2468
   99OSM   H16F 9969   3.095   4.240   9.527 -0.7724  0.6329 -0.6802
   99OSM   H16G 9970   2.991   4.273   9.670  1.1782 -1.3820  0.6933
   99OSM   C17F 9971   2.904   4.319   9.468 -0.3663 -0.5019  0.0014
   99OSM   H17F 9972   2.797   4.295   9.483 -0.2472 -0.9520  0.1449
   99OSM   H17G 9973   2.943   4.272   9.375  3.7700 -1.4860  1.9796
   99OSM   C18F 9974   2.938   4.469   9.484 -0.1942  0.0072 -0.6800
   99OSM   H18F 9975   2.862   4.528   9.429 -1.8797  0.7115  2.2349
   99OSM   H18G 9976   3.030   4.480   9.423  0.7455 -1.8248  0.3285
   99OSM   H18H 9977   2.942   4.499   9.591  0.1924  0.6162 -0.8595
  100OSM      N 9978   5.051   4.607  10.779 -0.2059 -0.2928 -0.0755
  100OSM    C15 9979   5.009   4.714  10.680 -0.6359 -0.1463  0.0785
  100OSM   H15A 9980   4.908   4.751  10.688 -1.3308 -1.4002 -1.9308
  100OSM   H15B 9981   5.014   4.680  10.577  2.5182 -0.9275  0.3956
  100OSM   H15C 9982   5.079   4.795  10.671 -1.5208  0.4387 -2.7772
  100OSM    C14 9983   5.062   4.659  10.912  0.3170 -0.2377 -0.1448
  100OSM   H14A 9984   5.091   4.581  10.981  2.3809  1.4093  0.9662
  100OSM   H14B 9985   4.968   4.704  10.940 -0.1548 -1.5575  0.4748
  100OSM   H14C 9986   5.134   4.740  10.911  0.9414 -0.7581  0.7073
  100OSM    C13 9987   4.948   4.500  10.780 -0.4670  0.3894  0.0080
  100OSM   H13A 9988   4.854   4.545  10.810  0.0021  1.5312 -0.1658
  100OSM   H13B 9989   4.972   4.413  10.839  2.1316  0.9473 -0.1077
  100OSM   H13C 9990   4.931   4.465  10.680 -1.1940  1.1613 -0.1482
  100OSM    C12 9991   5.185   4.542  10.739  0.2634 -0.4526 -0.1309
  100OSM   H12A 9992   5.201   4.454  10.799 -0.4336 -0.8195 -0.4718
  100OSM   H12B 9993   5.268   4.609  10.759 -0.4857  1.0240 -1.6219
  100OSM    C11 9994   5.202   4.488  10.593 -0.5161 -0.1944 -0.1673
  100OSM   H11A 9995   5.305   4.450  10.581 -0.0054 -0.2448  3.2710
  100OSM   H11B 9996   5.200   4.575  10.524  0.2063  0.2029  0.3058
  100OSM      P 9997   5.123   4.240  10.574  0.1947  0.1438 -0.1237
  100OSM    O13 9998   5.254   4.219  10.639 -0.9710  0.3272  0.0432
  100OSM    O14 9999   4.999   4.175  10.633 -0.0766  0.0398  0.2019
  100OSM    O1110000   5.137   4.196  10.420 -0.8484 -0.0860 -0.3095
  100OSM    O1210001   5.098   4.402  10.556 -0.1620 -0.0069 -0.0419
  100OSM    C1S10002   5.020   4.192  10.341 -0.4573  0.3784 -0.4200
  100OSM    H1S10003   4.935   4.259  10.365 -0.5293  1.4364 -3.3145
  100OSM    H1T10004   4.980   4.088  10.344 -3.0046  1.3053  0.1378
  100OSM     NF10005   4.927   4.216  10.115 -0.1035  0.1473 -0.3443
  100OSM    HNF10006   4.906   4.133  10.066  0.1999 -0.7323  0.9637
  100OSM    C2S10007   5.054   4.221  10.191 -0.1954 -0.0049 -0.4067
  100OSM    H2S10008   5.092   4.324  10.174  2.1895 -1.1474 -2.6076
  100OSM    C3S10009   5.166   4.124  10.141  0.2639  0.3537 -0.6181
  100OSM    H3S10010   5.109   4.028  10.141  0.5262  0.1691 -2.0973
  100OSM     O310011   5.273   4.098  10.227 -0.3382 -0.2126 -0.0663
  100OSM    HO310012   5.253   4.148  10.306 -0.1211  2.3558 -1.5420
  100OSM    C4S10013   5.207   4.148  10.001  0.5339  0.3367  0.1403
  100OSM    H4S10014   5.164   4.085   9.923  1.3455 -0.2416  0.1526
  100OSM    C5S10015   5.289   4.253   9.964 -0.3528 -0.3131 -0.5936
  100OSM    H5S10016   5.337   4.314  10.042 -0.4636  1.1577 -1.6328
  100OSM    C6S10017   5.322   4.266   9.822 -0.5639 -0.5814  0.4647
  100OSM    H6S10018   5.429   4.241   9.812 -0.6188 -0.5567 -0.1907
  100OSM    H6T10019   5.298   4.371   9.794 -3.1957 -1.0587  0.6713
  100OSM    C7S10020   5.247   4.185   9.722  0.4818  0.0577  0.3895
  100OSM    H7S10021   5.138   4.207   9.712  0.2812 -0.4635  1.2811
  100OSM    H7T10022   5.252   4.075   9.739 -2.3749 -0.7538 -2.8988
  100OSM    C8S10023   5.311   4.197   9.583  0.0985 -0.0934 -0.4529
  100OSM    H8S10024   5.415   4.159   9.595 -1.1479 -3.9096 -0.3417
  100OSM    H8T10025   5.322   4.302   9.550  2.1424  0.2643  1.1956
  100OSM    C9S10026   5.255   4.108   9.475 -0.1015  0.3645  0.6745
  100OSM    H9S10027   5.150   4.080   9.496  0.8071 -0.9464  4.0444
  100OSM    H9T10028   5.307   4.011   9.488  0.1911  0.3293 -0.6363
  100OSM   C10S10029   5.288   4.152   9.334  0.8119  0.5539 -0.1285
  100OSM   H10S10030   5.388   4.200   9.337 -0.0244  2.3744  2.2808
  100OSM   H10T10031   5.232   4.241   9.298  0.0297 -0.3422 -1.2376
  100OSM   C11S10032   5.257   4.041   9.231  0.9696  0.2354  0.3358
  100OSM   H11S10033   5.148   4.052   9.211  1.4046  2.7568 -1.0058
  100OSM   H11T10034   5.280   3.934   9.252  0.4555 -0.0301 -0.3818
  100OSM   C12S10035   5.329   4.076   9.102 -1.0208  0.8007 -0.6706
  100OSM   H12S10036   5.438   4.078   9.122 -0.8755 -1.1295 -1.0860
  100OSM   H12T10037   5.297   4.178   9.072 -0.1457  1.7512  1.4320
  100OSM   C13S10038   5.299   4.004   8.978  0.7071 -0.3028  0.4020
  100OSM   H13S10039   5.192   4.025   8.958  0.4650 -2.3731 -0.7776
  100OSM   H13T10040   5.323   3.896   8.991  2.2511  0.2119  2.4107
  100OSM   C14S10041   5.382   4.061   8.862  0.0192 -0.2142 -0.2825
  100OSM   H14S10042   5.370   4.171   8.860  2.5618  0.2088  1.8603
  100OSM   H14T10043   5.344   4.011   8.770 -0.6606 -4.1998  1.9102
  100OSM   C15S10044   5.534   4.009   8.872  0.7107  0.5850  0.4933
  100OSM   H15S10045   5.522   3.902   8.844  0.3600  0.8319 -0.3279
  100OSM   H15T10046   5.568   4.012   8.978 -0.7717 -0.0635  1.0284
  100OSM   C16S10047   5.617   4.080   8.767 -0.4975 -0.1319  0.8424
  100OSM   H16S10048   5.595   4.187   8.786 -1.0704  0.3657 -2.1338
  100OSM   H16T10049   5.562   4.062   8.672 -1.3921 -1.1824  1.5309
  100OSM   C17S10050   5.764   4.040   8.755  0.2879  0.3636 -0.4233
  100OSM   H17S10051   5.769   3.929   8.765 -0.8578  0.4079  0.9685
  100OSM   H17T10052   5.817   4.075   8.846  0.5723 -0.6965 -0.1720
  100OSM   C18S10053   5.828   4.085   8.628 -0.6574 -0.1723 -0.5121
  100OSM   H18S10054   5.935   4.054   8.629 -1.1468 -2.0291 -1.1741
  100OSM   H18T10055   5.824   4.196   8.624 -1.9625 -0.2449 -1.7323
  100OSM   H18U10056   5.780   4.043   8.537  0.0488  0.3494 -1.1417
  100OSM    C1F10057   4.833   4.305  10.138 -0.2584  0.3602  0.0042
  100OSM     OF10058   4.859   4.413  10.188  0.2654  0.8083 -0.4412
  100OSM    C2F10059   4.696   4.266  10.081 -0.1283 -0.0238 -0.1312
  100OSM    H2F10060   4.655   4.175  10.130 -0.7101  0.0498 -0.4745
  100OSM    H2G10061   4.710   4.258   9.972  0.7703  1.2286 -0.1372
  100OSM    C3F10062   4.586   4.379  10.092  0.0024  0.6679 -0.3134
  100OSM    H3F10063   4.639   4.472  10.062 -0.2330  0.1498 -2.4987
  100OSM    H3G10064   4.565   4.389  10.201  0.4962 -0.7575 -0.0690
  100OSM    C4F10065   4.466   4.366   9.999  0.1983  0.1709  0.6210
  100OSM    H4F10066   4.375   4.412  10.044 -0.5382  1.1689 -1.7264
  100OSM    H4G10067   4.439   4.260   9.983  2.1146 -0.3737  0.7411
  100OSM    C5F10068   4.483   4.432   9.860 -0.1076  0.4850  0.5455
  100OSM    H5F10069   4.575   4.381   9.824  0.1438  0.5582  1.0684
  100OSM    H5G10070   4.500   4.541   9.856  0.5413  0.3624 -2.9950
  100OSM    C6F10071   4.368   4.408   9.766 -0.5775  0.0922 -0.1579
  100OSM    H6F10072   4.276   4.455   9.809 -2.2978 -1.1776 -2.2322
  100OSM    H6G10073   4.335   4.302   9.770  1.7156 -0.6419  0.3300
  100OSM    C7F10074   4.401   4.451   9.629  0.5647  0.1490 -0.1034
  100OSM    H7F10075   4.470   4.379   9.582 -0.5243 -0.0194 -1.4958
  100OSM    H7G10076   4.465   4.542   9.636  2.4981 -0.9481 -2.2977
  100OSM    C8F10077   4.272   4.478   9.547  0.1910 -0.3271 -0.4319
  100OSM    H8F10078   4.300   4.500   9.441 -1.8600 -3.7263 -1.8615
  100OSM    H8G10079   4.214   4.564   9.587 -0.4355 -1.2736  0.7557
  100OSM    C9F10080   4.195   4.352   9.544  0.2808  0.0883  0.0210
  100OSM    H9F10081   4.224   4.272   9.614  2.3570  0.9988  0.2714
  100OSM   C10F10082   4.080   4.337   9.473 -0.6221  0.7138 -0.5800
  100OSM   H10F10083   4.025   4.241   9.465 -0.2404  0.5426 -1.2542
  100OSM   C11F10084   4.014   4.434   9.382  0.3376 -0.1543 -0.0590
  100OSM   H11F10085   4.021   4.539   9.417  2.3416 -0.0614 -0.6026
  100OSM   H11G10086   3.905   4.413   9.386  0.8241 -2.8858  1.1242
  100OSM   C12F10087   4.065   4.433   9.231  0.2656 -0.0629 -0.8860
  100OSM   H12F10088   4.091   4.329   9.201  1.6190 -0.0407  0.1230
  100OSM   H12G10089   4.162   4.487   9.225 -1.1740  2.8501  0.0859
  100OSM   C13F10090   3.972   4.498   9.150  0.0813 -0.4312  0.4487
  100OSM   H13F10091   3.941   4.596   9.193 -0.4604  0.6184 -2.1173
  100OSM   H13G10092   3.873   4.448   9.150  0.1899 -0.6551 -0.0072
  100OSM   C14F10093   4.014   4.538   9.001 -0.2548  0.5912  0.5700
  100OSM   H14F10094   4.123   4.555   8.988 -0.4677  0.3438 -2.1245
  100OSM   H14G10095   3.963   4.633   8.975  0.2578  0.2262 -2.1800
  100OSM   C15F10096   4.002   4.417   8.903 -0.0928  0.0624  0.1600
  100OSM   H15F10097   3.897   4.384   8.888 -0.1195  0.8843 -1.7071
  100OSM   H15G10098   4.062   4.339   8.955  0.7321 -0.3661 -1.3639
  100OSM   C16F10099   4.060   4.442   8.767 -0.1465  0.3314 -0.4448
  100OSM   H16F10100   4.166   4.477   8.771 -0.6410  1.8627 -0.1785
  100OSM   H16G10101   3.996   4.517   8.715  0.7770  1.7278  0.3486
  100OSM   C17F10102   4.063   4.321   8.671 -0.0753 -0.0202  0.2671
  100OSM   H17F10103   4.107   4.361   8.577 -1.0934 -0.5824 -0.4603
  100OSM   H17G10104   3.966   4.269   8.661  0.3867 -0.5963 -1.5625
  100OSM   C18F10105   4.174   4.218   8.708 -0.2770  0.2910  0.1190
  100OSM   H18F10106   4.179   4.143   8.626 -0.7827  0.5116 -0.1185
  100OSM   H18G10107   4.136   4.171   8.801  1.1236  1.2231  1.2159
  100OSM   H18H10108   4.266   4.274   8.735 -0.5183  1.3053 -1.0931
  101OSM      N10109   1.852   5.655  11.106  0.2467  0.0095 -1.3025
  101OSM    C1510110   1.940   5.777  11.129 -0.0589 -0.1509  0.4378
  101OSM   H15A10111   2.039   5.740  11.154  1.1825  2.7674  0.2777
  101OSM   H15B10112   1.901   5.852  11.196  0.3892 -1.3981  2.1783
  101OSM   H15C10113   1.961   5.811  11.029  2.6842 -1.3551  0.4983
  101OSM    C1410114   1.846   5.600  11.248 -0.0844  0.4019 -0.0468
  101OSM   H14A10115   1.789   5.509  11.258  1.3075 -0.6169 -1.0164
  101OSM   H14B10116   1.800   5.668  11.319  1.6867  0.7462  0.8369
  101OSM   H14C10117   1.946   5.586  11.286 -0.6849  2.3145  2.5176
  101OSM    C1310118   1.717   5.705  11.062 -0.2419  0.3495  0.1144
  101OSM   H13A10119   1.669   5.765  11.138  0.0770  0.4301  0.2532
  101OSM   H13B10120   1.649   5.626  11.035  0.4886 -0.2573  0.0202
  101OSM   H13C10121   1.717   5.766  10.973 -1.6780 -1.6527 -1.3267
  101OSM    C1210122   1.907   5.558  11.004 -0.5333 -0.3013  0.0338
  101OSM   H12A10123   1.853   5.465  11.002 -0.7217 -0.2082  0.7118
  101OSM   H12B10124   2.007   5.531  11.031  0.1669  1.2006 -0.9142
  101OSM    C1110125   1.928   5.598  10.853  0.1142  1.3416 -0.1557
  101OSM   H11A10126   1.830   5.639  10.821 -0.1328  1.0347  0.1955
  101OSM   H11B10127   1.949   5.512  10.787 -1.3466  0.7511  0.1198
  101OSM      P10128   2.178   5.676  10.832 -0.4785  0.0883  0.0124
  101OSM    O1310129   2.248   5.804  10.857  0.5750 -0.0896 -0.0247
  101OSM    O1410130   2.204   5.566  10.924 -0.5514  0.4656  0.3360
  101OSM    O1110131   2.214   5.636  10.682 -0.2630 -0.6856 -0.3899
  101OSM    O1210132   2.020   5.697  10.841 -0.3042 -0.4248  0.1874
  101OSM    C1S10133   2.131   5.684  10.576 -0.3539 -0.1764 -0.0132
  101OSM    H1S10134   2.153   5.791  10.554  0.8698 -0.6401 -1.1768
  101OSM    H1T10135   2.023   5.680  10.599 -0.3445  1.1396  0.3644
  101OSM     NF10136   2.072   5.662  10.335  0.5524  0.1272  0.0130
  101OSM    HNF10137   1.983   5.626  10.308  1.3829 -1.5247 -0.6679
  101OSM    C2S10138   2.145   5.603  10.442 -0.2453 -0.4897  0.6009
  101OSM    H2S10139   2.254   5.588  10.423 -0.6850 -3.3013 -0.1915
  101OSM    C3S10140   2.097   5.459  10.475  0.1119 -0.4054 -0.0522
  101OSM    H3S10141   1.993   5.478  10.509  0.1361 -0.3992  0.0188
  101OSM     O310142   2.153   5.394  10.596 -0.1675 -0.1589 -0.5888
  101OSM    HO310143   2.222   5.453  10.628 -2.8395  3.5706 -1.0553
  101OSM    C4S10144   2.105   5.370  10.355  0.4447 -0.2266 -0.1765
  101OSM    H4S10145   2.210   5.350  10.330  1.3009  0.0436  2.7886
  101OSM    C5S10146   1.999   5.302  10.299 -0.1113 -0.3044 -0.3140
  101OSM    H5S10147   1.901   5.303  10.349  0.8559  0.5966  1.6909
  101OSM    C6S10148   2.023   5.199  10.195  0.6995  0.2200 -0.3664
  101OSM    H6S10149   1.994   5.104  10.244 -1.1188  0.2491 -1.3033
  101OSM    H6T10150   2.127   5.182  10.160  0.5573 -1.2603 -0.1034
  101OSM    C7S10151   1.956   5.239  10.060 -0.5102  0.2096 -0.3958
  101OSM    H7S10152   2.014   5.319  10.009  0.2818 -0.8351 -1.1841
  101OSM    H7T10153   1.853   5.275  10.081 -0.6173  0.7140 -1.6834
  101OSM    C8S10154   1.958   5.124   9.957  0.3570 -0.0079 -0.9539
  101OSM    H8S10155   1.921   5.028   9.999  0.1887  1.2163  1.9438
  101OSM    H8T10156   2.064   5.110   9.929  1.1423  1.8912  0.8100
  101OSM    C9S10157   1.880   5.171   9.831  0.2572  0.3285 -0.1882
  101OSM    H9S10158   1.927   5.259   9.780  1.3571  0.3902  0.8927
  101OSM    H9T10159   1.791   5.221   9.873  1.4776  2.7046 -0.2088
  101OSM   C10S10160   1.855   5.061   9.730 -0.6599  0.2082  0.1845
  101OSM   H10S10161   1.786   4.983   9.771 -0.1299  0.8750  2.4375
  101OSM   H10T10162   1.945   5.002   9.704 -0.1831  0.9204  0.2245
  101OSM   C11S10163   1.794   5.110   9.602  0.3414  0.4617  0.5543
  101OSM   H11S10164   1.872   5.166   9.547 -0.0784  0.3925 -0.1190
  101OSM   H11T10165   1.712   5.177   9.634 -0.7728 -0.1187 -0.9407
  101OSM   C12S10166   1.733   4.996   9.518 -0.1979  0.6814  0.1929
  101OSM   H12S10167   1.665   4.928   9.573  1.9385 -0.1594  1.9366
  101OSM   H12T10168   1.811   4.925   9.485 -0.5040  0.9438 -1.1927
  101OSM   C13S10169   1.680   5.052   9.391  0.1629 -0.1605 -0.7497
  101OSM   H13S10170   1.756   5.129   9.365 -0.7506  0.7598 -0.7420
  101OSM   H13T10171   1.587   5.110   9.411  0.7318  0.2867  0.7778
  101OSM   C14S10172   1.677   4.946   9.289 -0.0786 -0.1225 -0.0323
  101OSM   H14S10173   1.618   4.861   9.330  2.2811 -1.2970  1.1328
  101OSM   H14T10174   1.777   4.901   9.272 -0.4021 -0.8804  0.0128
  101OSM   C15S10175   1.613   5.004   9.160  0.1123  0.4773  0.3082
  101OSM   H15S10176   1.668   5.098   9.139 -1.1081  1.2979  0.7413
  101OSM   H15T10177   1.506   5.028   9.173  0.0187 -0.4734  1.4251
  101OSM   C16S10178   1.627   4.891   9.047  0.0910 -0.1943 -0.1951
  101OSM   H16S10179   1.559   4.812   9.087 -0.8761  1.1535  0.9250
  101OSM   H16T10180   1.731   4.854   9.052 -0.3674 -1.7811 -1.4780
  101OSM   C17S10181   1.574   4.947   8.915 -0.0184 -0.2811 -0.2606
  101OSM   H17S10182   1.620   5.045   8.889 -3.7603  2.3055  1.7893
  101OSM   H17T10183   1.467   4.968   8.937 -0.2154 -0.1585 -1.2877
  101OSM   C18S10184   1.591   4.857   8.793  0.2418  0.3029 -1.2003
  101OSM   H18S10185   1.578   4.749   8.818  1.9815  0.5212  0.8865
  101OSM   H18T10186   1.695   4.866   8.757  1.1194  2.7177  1.5674
  101OSM   H18U10187   1.511   4.874   8.717 -1.5206 -1.6423  0.0922
  101OSM    C1F10188   2.113   5.770  10.279  0.2244 -0.2701 -0.3878
  101OSM     OF10189   2.220   5.804  10.322  0.1612  0.7430  0.1433
  101OSM    C2F10190   2.028   5.848  10.173 -0.2342 -0.1491 -0.1478
  101OSM    H2F10191   1.938   5.877  10.231 -0.4394  1.0283 -1.0176
  101OSM    H2G10192   2.005   5.783  10.085 -0.5965  1.1871 -1.0695
  101OSM    C3F10193   2.097   5.975  10.124  0.4555 -0.5934 -0.5599
  101OSM    H3F10194   2.201   5.945  10.101 -0.4016 -4.2503 -0.4081
  101OSM    H3G10195   2.098   6.043  10.212  0.3984 -0.3214 -0.7702
  101OSM    C4F10196   2.020   6.036  10.008 -0.3639  0.0530  0.0761
  101OSM    H4F10197   2.085   6.120   9.978  0.2028 -0.2596  0.4014
  101OSM    H4G10198   1.915   6.071  10.020  0.1538  1.6815 -0.0383
  101OSM    C5F10199   2.023   5.946   9.874  0.5830 -0.8280 -0.8290
  101OSM    H5F10200   1.967   5.853   9.895  0.4149 -0.9585 -1.7960
  101OSM    H5G10201   2.131   5.928   9.850  1.9054  2.7620  1.5743
  101OSM    C6F10202   1.968   6.022   9.750  0.2798 -0.2846  0.1268
  101OSM    H6F10203   1.885   6.087   9.783  1.3331  0.9685  0.4103
  101OSM    H6G10204   2.036   6.098   9.706 -1.5091  1.5110  0.3256
  101OSM    C7F10205   1.932   5.932   9.633  0.4411 -0.2661  0.2977
  101OSM    H7F10206   1.865   5.855   9.676  0.3661 -1.0431 -1.1612
  101OSM    H7G10207   2.013   5.882   9.577  0.6109  0.7121 -0.3580
  101OSM    C8F10208   1.851   6.015   9.525 -0.2122 -0.7473 -0.2028
  101OSM    H8F10209   1.917   6.096   9.488 -0.4147 -0.5414 -0.1186
  101OSM    H8G10210   1.779   6.079   9.581  0.3845 -1.6548  1.6738
  101OSM    C9F10211   1.774   5.934   9.423 -0.2515  0.3426 -0.4093
  101OSM    H9F10212   1.666   5.919   9.437 -0.1032 -0.4853 -0.0665
  101OSM   C10F10213   1.840   5.892   9.317  0.1019  0.0742  0.3194
  101OSM   H10F10214   1.777   5.818   9.264 -0.5752 -0.2966  1.6086
  101OSM   C11F10215   1.982   5.925   9.270 -0.1929  0.4260 -0.0885
  101OSM   H11F10216   2.012   5.838   9.207  0.8080  0.4608  0.3242
  101OSM   H11G10217   2.059   5.925   9.349 -0.3797  1.0515  0.1013
  101OSM   C12F10218   2.009   6.056   9.200  0.5068 -0.7985  0.1033
  101OSM   H12F10219   1.969   6.135   9.268 -0.3512 -1.0355 -0.1059
  101OSM   H12G10220   1.940   6.064   9.113 -1.2551  1.6481  1.5633
  101OSM   C13F10221   2.152   6.074   9.154  0.5850  0.4299 -0.0565
  101OSM   H13F10222   2.149   6.165   9.091 -1.3672  0.9944  0.7674
  101OSM   H13G10223   2.174   5.988   9.088 -0.0108  0.5748 -0.4563
  101OSM   C14F10224   2.266   6.058   9.262  0.3681 -0.8993  0.3430
  101OSM   H14F10225   2.365   6.084   9.218 -0.4828 -0.4022 -1.3718
  101OSM   H14G10226   2.274   5.949   9.281 -0.3468 -0.8564  0.9502
  101OSM   C15F10227   2.243   6.132   9.397 -0.0122  0.7739 -0.5463
  101OSM   H15F10228   2.145   6.102   9.438 -0.2003  0.5116 -1.1738
  101OSM   H15G10229   2.238   6.243   9.388 -0.5669  0.9063  1.0607
  101OSM   C16F10230   2.362   6.088   9.492  0.3482 -0.2045  0.1986
  101OSM   H16F10231   2.463   6.103   9.450  0.5262  0.8509  0.9704
  101OSM   H16G10232   2.347   5.978   9.504  1.5434 -0.4956 -0.8609
  101OSM   C17F10233   2.354   6.171   9.621  0.1738 -0.2876  0.1115
  101OSM   H17F10234   2.248   6.187   9.651  0.6278  1.1358  1.1040
  101OSM   H17G10235   2.405   6.270   9.615  0.6473 -0.4953  0.6029
  101OSM   C18F10236   2.417   6.086   9.730 -0.0553  0.0805  0.5197
  101OSM   H18F10237   2.391   5.978   9.729  0.1733  0.0268  0.2879
  101OSM   H18G10238   2.393   6.136   9.827 -0.0247 -1.8664  1.5900
  101OSM   H18H10239   2.528   6.096   9.728 -0.2190  3.5310  1.4524
  102OSM      N10240   3.150   0.078  10.817  0.6351 -0.4547  0.3675
  102OSM    C1510241   3.262  -0.023  10.807  0.6630 -0.2354 -0.0430
  102OSM   H15A10242   3.324  -0.023  10.896 -2.2126  2.1712  2.1763
  102OSM   H15B10243   3.318   0.001  10.717 -0.6407  1.7837 -0.3909
  102OSM   H15C10244   3.232  -0.124  10.787 -0.8880  0.5208 -1.8216
  102OSM    C1410245   3.068   0.040  10.935  0.5592  0.2195  0.6504
  102OSM   H14A10246   2.988   0.112  10.946 -0.2464 -0.4435 -0.7319
  102OSM   H14B10247   3.127   0.052  11.025  0.0540 -0.5021  1.0791
  102OSM   H14C10248   3.026  -0.059  10.934  0.3408  0.3074 -0.5348
  102OSM    C1310249   3.196   0.215  10.831 -0.7776 -0.1570 -0.7950
  102OSM   H13A10250   3.231   0.252  10.736 -0.3524  2.8073  0.4157
  102OSM   H13B10251   3.277   0.224  10.902 -1.3624  2.6817 -0.3828
  102OSM   H13C10252   3.111   0.273  10.863 -1.2231 -0.2754 -1.7333
  102OSM    C1210253   3.057   0.063  10.692 -0.6729 -1.0494  0.0235
  102OSM   H12A10254   2.983   0.140  10.705  0.7180 -0.0603  3.1466
  102OSM   H12B10255   3.009  -0.032  10.707 -0.5225 -0.7697  2.8444
  102OSM    C1110256   3.125   0.068  10.557 -0.8793  0.0610 -0.2127
  102OSM   H11A10257   3.049   0.035  10.483 -0.4035  0.8088 -1.0626
  102OSM   H11B10258   3.202  -0.011  10.560  0.1417  1.0053 -0.7556
  102OSM      P10259   3.087   0.319  10.482 -0.4857 -0.4371  0.2896
  102OSM    O1310260   2.981   0.341  10.574 -0.1424  0.1808 -0.1443
  102OSM    O1410261   3.177   0.430  10.452 -0.1126  0.3004 -0.0513
  102OSM    O1110262   3.029   0.264  10.352  0.4686  0.4106 -1.0218
  102OSM    O1210263   3.178   0.194  10.530  0.5265 -0.1179  0.0711
  102OSM    C1S10264   2.972   0.352  10.254  0.5946  0.1337  0.4433
  102OSM    H1S10265   3.032   0.445  10.251  0.4682  0.3567  2.8006
  102OSM    H1T10266   2.866   0.367  10.285 -0.8206 -0.5530 -3.4597
  102OSM     NF10267   2.901   0.377  10.019 -0.3252 -0.3393  0.1501
  102OSM    HNF10268   2.807   0.369   9.989 -0.0977  1.5367 -1.2858
  102OSM    C2S10269   2.961   0.283  10.113  1.1116 -0.3516 -0.1133
  102OSM    H2S10270   3.067   0.265  10.086  0.7862  1.7023 -3.4731
  102OSM    C3S10271   2.893   0.143  10.107  0.7252  0.3894 -0.5873
  102OSM    H3S10272   2.785   0.160  10.125  0.1385 -2.3384 -1.0580
  102OSM     O310273   2.934   0.046  10.207 -0.1429 -0.2264  0.1352
  102OSM    HO310274   2.977   0.095  10.277 -1.6643  1.2888  0.0771
  102OSM    C4S10275   2.899   0.086   9.968  0.0915 -1.0019  0.5228
  102OSM    H4S10276   2.817   0.119   9.902  0.8938  0.8107  0.3759
  102OSM    C5S10277   2.992   0.002   9.915 -0.7668 -0.4273  0.0456
  102OSM    H5S10278   3.088  -0.009   9.968 -0.3787  0.1654 -0.5065
  102OSM    C6S10279   2.966  -0.054   9.780  0.4290  0.2150 -0.5240
  102OSM    H6S10280   2.875  -0.023   9.724 -0.4176  2.2986  1.8425
  102OSM    H6T10281   2.972  -0.163   9.801 -0.3726  0.4050  0.8231
  102OSM    C7S10282   3.090  -0.018   9.689 -0.5371  0.1045 -0.0301
  102OSM    H7S10283   3.177  -0.043   9.754 -0.1919  1.8655  0.2545
  102OSM    H7T10284   3.105   0.092   9.677  2.2799 -0.0620  1.1973
  102OSM    C8S10285   3.088  -0.101   9.553 -0.0522 -0.2860 -0.7858
  102OSM    H8S10286   3.056  -0.206   9.571 -1.0801 -0.1452 -1.6438
  102OSM    H8T10287   3.190  -0.098   9.508  0.2159 -1.8367 -0.3394
  102OSM    C9S10288   2.978  -0.046   9.453  0.2154 -0.0535 -0.2730
  102OSM    H9S10289   2.994   0.057   9.413  0.1927  0.7503  1.6670
  102OSM    H9T10290   2.886  -0.049   9.515  0.9184 -1.9561  0.7441
  102OSM   C10S10291   2.969  -0.143   9.332  0.9592 -0.5069  0.5566
  102OSM   H10S10292   2.943  -0.246   9.364 -1.1315 -0.8920 -2.0063
  102OSM   H10T10293   3.067  -0.172   9.288  0.7910 -0.7657  0.3445
  102OSM   C11S10294   2.870  -0.092   9.221 -0.4104  0.4689 -0.5096
  102OSM   H11S10295   2.900   0.012   9.197  2.3394 -0.3773 -1.0494
  102OSM   H11T10296   2.761  -0.091   9.244 -0.3552 -0.4197 -0.1587
  102OSM   C12S10297   2.873  -0.167   9.094 -0.6251 -0.1350 -0.3787
  102OSM   H12S10298   2.882  -0.277   9.107 -0.4109  0.0228  0.9366
  102OSM   H12T10299   2.968  -0.148   9.039 -0.8775  0.0226 -0.7649
  102OSM   C13S10300   2.762  -0.142   9.002  0.3498 -0.1297 -0.5703
  102OSM   H13S10301   2.761  -0.041   8.956  0.1533 -0.2931 -0.9253
  102OSM   H13T10302   2.671  -0.169   9.059  0.8313  1.2522  0.9334
  102OSM   C14S10303   2.762  -0.236   8.884  0.8311  0.7436 -0.5483
  102OSM   H14S10304   2.760  -0.338   8.928  0.2046  0.4871 -1.1597
  102OSM   H14T10305   2.862  -0.226   8.837  2.4066  1.7004  2.7119
  102OSM   C15S10306   2.650  -0.213   8.786 -0.1717  0.5035 -0.0469
  102OSM   H15S10307   2.647  -0.104   8.768 -0.9932  0.5224  0.1293
  102OSM   H15T10308   2.554  -0.250   8.829 -0.9707  1.2659 -1.1409
  102OSM   C16S10309   2.686  -0.285   8.656 -0.1328  0.1160 -0.6534
  102OSM   H16S10310   2.670  -0.391   8.687  0.5681  0.4320  0.9159
  102OSM   H16T10311   2.792  -0.272   8.624 -0.0750 -1.1152 -1.0072
  102OSM   C17S10312   2.598  -0.241   8.537 -1.1458  0.7057 -0.1421
  102OSM   H17S10313   2.627  -0.137   8.507  0.0175 -0.0615 -1.8835
  102OSM   H17T10314   2.494  -0.252   8.572 -1.1033 -1.5786 -0.6092
  102OSM   C18S10315   2.626  -0.326   8.419  0.7247 -0.0997 -0.0885
  102OSM   H18S10316   2.703  -0.277   8.356 -0.0758  2.6836  0.9262
  102OSM   H18T10317   2.529  -0.339   8.366 -0.6752 -3.0005  2.8087
  102OSM   H18U10318   2.667  -0.422   8.457  0.1561 -0.1202  0.4928
  102OSM    C1F10319   2.979   0.477   9.983 -0.2330  0.3468 -0.3070
  102OSM     OF10320   3.099   0.481  10.017  0.3026 -0.2708  0.1616
  102OSM    C2F10321   2.923   0.599   9.921  0.7368 -0.3804 -0.8016
  102OSM    H2F10322   2.912   0.684   9.992  0.5239 -2.2715  1.5367
  102OSM    H2G10323   2.822   0.567   9.891  0.1015  0.6536  0.1552
  102OSM    C3F10324   3.005   0.641   9.802  0.3801 -0.2216  0.1254
  102OSM    H3F10325   3.103   0.679   9.838 -0.3068  0.7404  1.0660
  102OSM    H3G10326   2.954   0.719   9.742  0.5075  0.3652  0.7670
  102OSM    C4F10327   3.039   0.527   9.698  0.0205  0.0908 -0.2617
  102OSM    H4F10328   3.087   0.435   9.739  0.2947  0.5777  0.5437
  102OSM    H4G10329   3.109   0.572   9.624 -1.5400  0.6419 -1.4560
  102OSM    C5F10330   2.914   0.477   9.616 -0.7463  0.3276 -0.3584
  102OSM    H5F10331   2.867   0.566   9.568  2.1813  2.8024  0.9840
  102OSM    H5G10332   2.842   0.440   9.692 -1.0901  0.6328 -0.5344
  102OSM    C6F10333   2.944   0.351   9.529  0.8402  0.7012 -0.1413
  102OSM    H6F10334   2.855   0.288   9.509  1.9988 -0.7700 -0.9030
  102OSM    H6G10335   3.002   0.276   9.585 -1.1584 -1.9556 -1.4042
  102OSM    C7F10336   3.009   0.403   9.402  0.4470 -0.1311  0.4553
  102OSM    H7F10337   3.051   0.316   9.347 -3.0196 -1.3384 -0.5731
  102OSM    H7G10338   3.089   0.475   9.429 -0.7705  0.5983  2.3550
  102OSM    C8F10339   2.905   0.474   9.312  0.3242 -0.0940  0.2343
  102OSM    H8F10340   2.959   0.508   9.222  1.4515  2.0883  1.6469
  102OSM    H8G10341   2.871   0.571   9.353  0.7627  0.4134 -0.5855
  102OSM    C9F10342   2.787   0.387   9.266 -0.2925 -0.5317 -0.6448
  102OSM    H9F10343   2.698   0.390   9.331 -0.5359 -2.0613 -0.8819
  102OSM   C10F10344   2.775   0.299   9.165  0.0515 -0.1479  0.9286
  102OSM   H10F10345   2.680   0.248   9.143  0.2204 -0.0118 -0.2268
  102OSM   C11F10346   2.888   0.276   9.058 -0.1059 -0.3113 -0.1557
  102OSM   H11F10347   2.890   0.175   9.011  1.7611 -1.0095  1.2672
  102OSM   H11G10348   2.985   0.300   9.108  0.7197  0.7620 -2.1631
  102OSM   C12F10349   2.872   0.359   8.931 -0.8430 -0.6344 -0.4724
  102OSM   H12F10350   2.973   0.355   8.887 -0.6240  0.6903 -0.1502
  102OSM   H12G10351   2.859   0.469   8.943  2.2551 -0.1266 -0.9833
  102OSM   C13F10352   2.765   0.309   8.846 -0.5021  0.0514  0.6168
  102OSM   H13F10353   2.664   0.336   8.884 -1.0417 -1.4875  0.3310
  102OSM   H13G10354   2.757   0.200   8.831 -2.8504  0.2133  0.3102
  102OSM   C14F10355   2.783   0.373   8.707 -0.0657  0.3864  1.4619
  102OSM   H14F10356   2.869   0.330   8.652 -1.4799 -1.3789  0.5368
  102OSM   H14G10357   2.804   0.482   8.711 -0.3738  0.4332  1.8440
  102OSM   C15F10358   2.653   0.357   8.625  0.7727 -0.0363  0.3907
  102OSM   H15F10359   2.659   0.430   8.541  0.4616 -1.5951 -1.0371
  102OSM   H15G10360   2.566   0.380   8.690  1.5863  0.2314  1.4135
  102OSM   C16F10361   2.630   0.206   8.575 -0.0975  0.4655  0.3450
  102OSM   H16F10362   2.611   0.148   8.668  1.2564 -0.6587 -0.0481
  102OSM   H16G10363   2.727   0.171   8.535 -0.0981  0.3570  0.4370
  102OSM   C17F10364   2.522   0.181   8.471  0.7641 -0.2172 -0.2202
  102OSM   H17F10365   2.429   0.222   8.517  0.4468 -1.6460  0.4449
  102OSM   H17G10366   2.503   0.072   8.463  1.8198 -0.4770  0.7193
  102OSM   C18F10367   2.554   0.247   8.333 -0.5358 -0.2705 -0.8553
  102OSM   H18F10368   2.468   0.229   8.264 -1.1139  0.2213 -0.2826
  102OSM   H18G10369   2.642   0.213   8.274 -0.2763  0.8345 -1.1389
  102OSM   H18H10370   2.556   0.357   8.351 -0.3172 -0.4870  0.4823
  103OSM      N10371   2.189   3.321  11.018 -0.2842 -0.2176  0.7126
  103OSM    C1510372   2.237   3.211  11.118 -0.1268 -0.4699 -0.3273
  103OSM   H15A10373   2.156   3.165  11.172  1.8897 -1.0841  2.3574
  103OSM   H15B10374   2.293   3.256  11.199 -1.1101 -1.6474  1.0489
  103OSM   H15C10375   2.293   3.134  11.068 -0.9834 -2.2661  1.3524
  103OSM    C1410376   2.107   3.414  11.094 -0.4264  0.1024  0.8405
  103OSM   H14A10377   2.082   3.511  11.053 -1.7381 -0.4938  0.1920
  103OSM   H14B10378   2.159   3.438  11.186  0.3104 -0.6988  0.6459
  103OSM   H14C10379   2.014   3.367  11.123 -1.5872  1.5450 -0.4020
  103OSM    C1310380   2.308   3.394  10.968 -0.4614 -0.1705 -0.2735
  103OSM   H13A10381   2.351   3.446  11.052 -0.4034  0.9139 -0.9580
  103OSM   H13B10382   2.286   3.462  10.887  2.0602 -2.1683 -2.8472
  103OSM   H13C10383   2.373   3.320  10.924 -1.9193 -0.6141 -1.7877
  103OSM    C1210384   2.109   3.253  10.911  0.2962 -0.0278 -0.1411
  103OSM   H12A10385   2.025   3.216  10.969  2.6318  0.5658  4.0593
  103OSM   H12B10386   2.167   3.168  10.878  1.0868  0.6373 -0.5106
  103OSM    C1110387   2.078   3.347  10.796 -0.1352 -0.5179 -0.2065
  103OSM   H11A10388   2.017   3.298  10.717  1.7115  2.2870 -3.6419
  103OSM   H11B10389   2.177   3.361  10.748 -0.5319  0.6544 -0.7113
  103OSM      P10390   2.053   3.609  10.789  0.0833  0.1170  0.1472
  103OSM    O1310391   1.949   3.706  10.834  0.2413 -0.3258 -0.1507
  103OSM    O1410392   2.195   3.643  10.825 -0.4111  0.3606  0.1125
  103OSM    O1110393   2.055   3.599  10.635 -0.2053  0.0085  0.3737
  103OSM    O1210394   2.004   3.466  10.841  0.7242 -0.5260  0.2482
  103OSM    C1S10395   1.944   3.566  10.558  1.4913 -0.4681 -0.4567
  103OSM    H1S10396   1.861   3.636  10.584  1.8339 -0.5407  0.9004
  103OSM    H1T10397   1.900   3.465  10.577  1.9291 -0.9963 -2.1208
  103OSM     NF10398   1.872   3.526  10.318 -0.3613  0.1524 -0.6047
  103OSM    HNF10399   1.846   3.435  10.286  0.8683 -1.0386  1.5894
  103OSM    C2S10400   1.988   3.546  10.408 -0.0161  0.4759  0.0092
  103OSM    H2S10401   2.033   3.645  10.386  2.0389 -0.1666  1.0340
  103OSM    C3S10402   2.094   3.434  10.394 -0.8523 -0.0718  0.4560
  103OSM    H3S10403   2.052   3.339  10.433 -0.5760 -1.0764 -1.5258
  103OSM     O310404   2.219   3.449  10.460  0.7231  0.1226 -0.4210
  103OSM    HO310405   2.206   3.516  10.527 -2.1553 -0.3095 -0.4411
  103OSM    C4S10406   2.128   3.406  10.250  0.6321 -0.1781  0.0446
  103OSM    H4S10407   2.164   3.492  10.190  0.0282  0.6992  0.9157
  103OSM    C5S10408   2.118   3.297  10.183  0.0888 -0.4382 -0.4337
  103OSM    H5S10409   2.076   3.214  10.241 -1.5635 -0.2851 -1.3414
  103OSM    C6S10410   2.142   3.274  10.036 -0.1304  0.3030  0.1771
  103OSM    H6S10411   2.160   3.166  10.019 -3.5764 -0.5296  1.0338
  103OSM    H6T10412   2.229   3.332   9.997  0.5637 -0.9719 -0.2450
  103OSM    C7S10413   2.018   3.317   9.966  0.6078  0.1014  0.1037
  103OSM    H7S10414   1.991   3.418  10.005 -1.3147  0.6336 -2.3516
  103OSM    H7T10415   1.927   3.261   9.998 -1.9038  3.6170 -0.2370
  103OSM    C8S10416   2.008   3.310   9.812 -0.1721 -0.2974 -0.6646
  103OSM    H8S10417   1.904   3.302   9.775  0.0557 -2.0247 -1.0008
  103OSM    H8T10418   2.054   3.213   9.786  0.4944 -1.0955  2.9843
  103OSM    C9S10419   2.084   3.425   9.741  0.2450 -0.4603 -0.4767
  103OSM    H9S10420   2.181   3.452   9.787 -1.5591  0.6241  3.0095
  103OSM    H9T10421   2.010   3.507   9.755 -0.2855 -1.0610  0.3596
  103OSM   C10S10422   2.092   3.385   9.599 -0.0176 -0.5653  0.6945
  103OSM   H10S10423   1.998   3.334   9.566  1.3918 -1.3747 -2.4288
  103OSM   H10T10424   2.178   3.317   9.581 -0.5608 -1.2282  0.5304
  103OSM   C11S10425   2.121   3.513   9.508  0.5895  0.6064  0.4720
  103OSM   H11S10426   2.195   3.573   9.566 -1.0043  3.9376 -0.6919
  103OSM   H11T10427   2.032   3.579   9.503 -0.8262 -1.3433 -2.1559
  103OSM   C12S10428   2.171   3.489   9.367  0.0954  0.0012 -0.2330
  103OSM   H12S10429   2.085   3.460   9.304 -0.1934 -0.3888  0.3388
  103OSM   H12T10430   2.251   3.412   9.362  2.3556  2.2296 -1.0637
  103OSM   C13S10431   2.243   3.612   9.291  0.0485 -0.3813  0.2627
  103OSM   H13S10432   2.344   3.621   9.336  0.1799 -0.4207 -0.0214
  103OSM   H13T10433   2.178   3.699   9.313 -0.7231 -0.9930  0.4531
  103OSM   C14S10434   2.260   3.593   9.142 -0.2030  0.1766 -0.6268
  103OSM   H14S10435   2.166   3.568   9.088 -0.6406 -0.4333  0.3805
  103OSM   H14T10436   2.333   3.512   9.121 -0.2779  0.0699 -0.4803
  103OSM   C15S10437   2.301   3.725   9.072 -0.0658  0.8508 -0.1197
  103OSM   H15S10438   2.342   3.701   8.971 -1.2402  0.1581 -0.4512
  103OSM   H15T10439   2.371   3.795   9.122  2.9320 -0.6194 -1.9351
  103OSM   C16S10440   2.179   3.816   9.030  0.1664 -0.1514  0.0642
  103OSM   H16S10441   2.144   3.878   9.116 -0.1737  1.4136 -1.1550
  103OSM   H16T10442   2.091   3.763   8.988  1.2602 -1.2999 -0.8161
  103OSM   C17S10443   2.211   3.911   8.915 -0.1848 -0.4933  0.5680
  103OSM   H17S10444   2.218   3.858   8.818  0.9151  1.9103 -0.7539
  103OSM   H17T10445   2.310   3.959   8.930  0.5608 -1.6605 -0.4661
  103OSM   C18S10446   2.103   4.019   8.909  0.2825  0.1788 -0.6975
  103OSM   H18S10447   2.101   4.059   8.805  0.9465 -0.4401 -0.9549
  103OSM   H18T10448   2.131   4.104   8.975  2.7306 -1.9795  1.2391
  103OSM   H18U10449   2.000   3.992   8.939 -0.4876  1.8823 -1.6105
  103OSM    C1F10450   1.785   3.627  10.297 -0.0767  0.0452 -0.1508
  103OSM     OF10451   1.793   3.739  10.346  0.2655  0.4440  0.3395
  103OSM    C2F10452   1.667   3.594  10.208  0.1499  0.2251  0.4384
  103OSM    H2F10453   1.586   3.664  10.239  0.1409 -0.5104  2.2382
  103OSM    H2G10454   1.628   3.492  10.231  2.4435 -0.8936 -0.3901
  103OSM    C3F10455   1.709   3.597  10.056  0.7749  0.3780  0.1898
  103OSM    H3F10456   1.768   3.505  10.037 -0.3531 -0.2468 -0.4513
  103OSM    H3G10457   1.771   3.687  10.037 -1.9455  2.4514  0.4234
  103OSM    C4F10458   1.591   3.606   9.959 -0.7264 -0.3591  0.0117
  103OSM    H4F10459   1.553   3.710   9.946  0.4662  0.1561  0.5165
  103OSM    H4G10460   1.510   3.540   9.995 -0.7411  0.1576  0.9725
  103OSM    C5F10461   1.639   3.557   9.824  1.0599 -0.7157  0.1016
  103OSM    H5F10462   1.662   3.449   9.833  0.7389 -0.7063  1.3055
  103OSM    H5G10463   1.739   3.602   9.802  0.2030  1.4393  0.3731
  103OSM    C6F10464   1.544   3.591   9.709 -0.0483  0.1396  0.1865
  103OSM    H6F10465   1.540   3.702   9.702  1.0368  0.2260  0.7406
  103OSM    H6G10466   1.437   3.571   9.733 -0.8169  2.6967 -0.6919
  103OSM    C7F10467   1.582   3.536   9.567  0.7769 -0.0545  0.2331
  103OSM    H7F10468   1.622   3.433   9.566  0.8460 -0.0311 -0.6278
  103OSM    H7G10469   1.658   3.607   9.527 -1.0747  1.3372 -1.0451
  103OSM    C8F10470   1.460   3.528   9.476 -0.1318  0.0127  0.4635
  103OSM    H8F10471   1.400   3.620   9.492 -0.9861 -0.6690  1.2849
  103OSM    H8G10472   1.409   3.436   9.511  2.3685 -2.0481 -0.9556
  103OSM    C9F10473   1.497   3.512   9.328  0.3557 -0.7522 -0.2997
  103OSM    H9F10474   1.598   3.550   9.308 -0.3015  1.9051  1.0334
  103OSM   C10F10475   1.418   3.468   9.226 -0.0147  0.4332 -0.3951
  103OSM   H10F10476   1.456   3.469   9.123  1.2120 -0.9176  0.0001
  103OSM   C11F10477   1.273   3.434   9.256  0.7724  0.0724 -0.4295
  103OSM   H11F10478   1.210   3.519   9.221  0.0465 -1.0950 -2.1435
  103OSM   H11G10479   1.257   3.412   9.364 -0.8993 -0.3041 -0.7264
  103OSM   C12F10480   1.222   3.314   9.174  0.2288  0.0053 -0.5857
  103OSM   H12F10481   1.115   3.299   9.198  0.2790  1.3769  0.5605
  103OSM   H12G10482   1.277   3.224   9.207  1.2878  0.5790 -0.7470
  103OSM   C13F10483   1.238   3.321   9.019  0.3466 -0.1384 -1.0341
  103OSM   H13F10484   1.205   3.223   8.978 -1.3105 -1.6185  3.1875
  103OSM   H13G10485   1.343   3.341   8.989  0.4505  0.7093 -0.1715
  103OSM   C14F10486   1.144   3.433   8.966 -0.0038  0.0868  0.0939
  103OSM   H14F10487   1.193   3.526   9.000 -0.9554  0.9433 -0.8287
  103OSM   H14G10488   1.037   3.420   8.993  0.2234 -0.4356  0.8033
  103OSM   C15F10489   1.136   3.441   8.813 -0.2243  0.4587 -0.2387
  103OSM   H15F10490   1.129   3.344   8.760  0.2240  1.1887 -1.6964
  103OSM   H15G10491   1.235   3.485   8.790 -0.0988  1.3867  1.8003
  103OSM   C16F10492   1.019   3.527   8.765  0.0268 -0.9135  0.1263
  103OSM   H16F10493   1.055   3.584   8.676 -0.4518 -2.1470 -0.8834
  103OSM   H16G10494   0.984   3.594   8.846  0.4436  0.6516 -0.9232
  103OSM   C17F10495   0.897   3.452   8.725  0.2878  0.2434  0.9383
  103OSM   H17F10496   0.867   3.394   8.815  0.3232 -1.8330 -0.3074
  103OSM   H17G10497   0.924   3.381   8.644 -0.2304 -0.5809  1.4687
  103OSM   C18F10498   0.776   3.534   8.682  0.0198 -0.6377  0.1501
  103OSM   H18F10499   0.695   3.462   8.658 -0.4037 -0.4390  0.9376
  103OSM   H18G10500   0.804   3.609   8.606  0.9097 -0.4381  0.6523
  103OSM   H18H10501   0.741   3.588   8.773 -0.3674 -1.6822  0.6530
  104OSM      N10502   1.844   2.200  10.856  0.2661  0.9032 -0.3697
  104OSM    C1510503   1.761   2.270  10.959  0.0289  0.3263  1.1584
  104OSM   H15A10504   1.731   2.192  11.028 -3.3946  0.9818  0.6058
  104OSM   H15B10505   1.677   2.322  10.916  0.0279  0.2070  1.0151
  104OSM   H15C10506   1.821   2.348  11.003  0.6297  0.3016  0.3936
  104OSM    C1410507   1.883   2.292  10.747  0.4214 -0.2864 -0.4602
  104OSM   H14A10508   1.791   2.326  10.701 -0.9852  0.1582  2.4377
  104OSM   H14B10509   1.941   2.246  10.669  0.7300  0.0308 -0.4242
  104OSM   H14C10510   1.938   2.377  10.787 -0.0644 -0.1413 -0.0856
  104OSM    C1310511   1.967   2.145  10.924  0.1029 -0.5169 -0.4629
  104OSM   H13A10512   1.933   2.066  10.990  2.3611  0.5267  2.1242
  104OSM   H13B10513   2.016   2.224  10.978  2.4650 -2.1830 -0.0004
  104OSM   H13C10514   2.037   2.086  10.864  0.4751 -1.4338  0.8313
  104OSM    C1210515   1.766   2.073  10.798  0.4685 -0.6824 -0.5520
  104OSM   H12A10516   1.825   2.040  10.713 -1.3347 -1.4036 -1.5726
  104OSM   H12B10517   1.673   2.106  10.753  1.0860 -0.0001 -1.3638
  104OSM    C1110518   1.735   1.968  10.902 -0.1663  0.4508  0.5780
  104OSM   H11A10519   1.662   1.903  10.851 -0.1816  0.1478  0.9790
  104OSM   H11B10520   1.671   2.011  10.982 -2.2847 -0.0339 -0.7852
  104OSM      P10521   1.924   1.780  10.886  0.1577  0.2092 -0.0711
  104OSM    O1310522   2.069   1.820  10.880 -0.1768 -0.5312 -0.2809
  104OSM    O1410523   1.887   1.654  10.952 -0.2025 -0.9337  0.2619
  104OSM    O1110524   1.859   1.784  10.741 -0.1357 -0.3374  0.2727
  104OSM    O1210525   1.847   1.898  10.958 -0.0701  0.1826 -0.3281
  104OSM    C1S10526   1.923   1.704  10.633 -0.7994 -1.2984  0.0705
  104OSM    H1S10527   1.926   1.594  10.642 -1.7838 -1.5023 -1.6919
  104OSM    H1T10528   2.030   1.733  10.627 -0.9651 -0.2730  1.4303
  104OSM     NF10529   1.895   1.637  10.403 -0.8337  0.1499  0.0801
  104OSM    HNF10530   1.961   1.662  10.333 -0.0728  1.4674  1.2167
  104OSM    C2S10531   1.863   1.737  10.499  0.0194  0.1357  0.0043
  104OSM    H2S10532   1.753   1.735  10.511 -0.2099 -1.2757 -1.8018
  104OSM    C3S10533   1.908   1.879  10.450  0.7881 -0.6977 -0.0221
  104OSM    H3S10534   2.016   1.874  10.424  0.5797  2.5869 -2.1921
  104OSM     O310535   1.896   1.977  10.551  0.0388  0.2760  0.1624
  104OSM    HO310536   1.896   1.922  10.630  2.4348  0.2404  0.2098
  104OSM    C4S10537   1.830   1.927  10.326 -0.0781 -0.2305  0.5219
  104OSM    H4S10538   1.742   1.985  10.356 -0.9789 -0.2153 -1.8995
  104OSM    C5S10539   1.868   1.939  10.193  0.1039 -0.6575 -0.7905
  104OSM    H5S10540   1.976   1.938  10.174  0.2783 -1.1232  0.1782
  104OSM    C6S10541   1.769   1.999  10.105  0.6474 -0.5136  0.4823
  104OSM    H6S10542   1.666   1.992  10.145 -0.3164 -0.3345 -1.8333
  104OSM    H6T10543   1.763   1.937  10.013  1.5412 -0.0170  0.0765
  104OSM    C7S10544   1.809   2.142  10.060 -0.3070  0.3538 -0.1357
  104OSM    H7S10545   1.901   2.143   9.999 -1.9553  0.7185 -2.7693
  104OSM    H7T10546   1.827   2.199  10.154  2.1664 -0.9127  0.2483
  104OSM    C8S10547   1.698   2.214   9.980 -0.0753 -0.0605 -0.3087
  104OSM    H8S10548   1.715   2.318   9.945  2.6137  0.2768  1.6144
  104OSM    H8T10549   1.606   2.206  10.042 -1.0996 -1.7633 -1.9473
  104OSM    C9S10550   1.667   2.134   9.853  1.8394  0.6751  0.2928
  104OSM    H9S10551   1.595   2.051   9.872  2.0458  0.4489  0.0977
  104OSM    H9T10552   1.758   2.094   9.803  0.2614 -1.3158 -1.1743
  104OSM   C10S10553   1.581   2.222   9.753 -0.2457  0.2538 -0.0279
  104OSM   H10S10554   1.648   2.306   9.724 -0.4560  0.2062 -0.6822
  104OSM   H10T10555   1.485   2.253   9.799 -0.1688  1.9086 -0.9091
  104OSM   C11S10556   1.557   2.145   9.618 -0.4757 -0.0601 -0.1675
  104OSM   H11S10557   1.469   2.078   9.618 -1.5182  1.1884 -2.2295
  104OSM   H11T10558   1.654   2.092   9.604 -0.6270 -0.4696  0.3030
  104OSM   C12S10559   1.550   2.237   9.492 -1.1075 -0.1004  0.9136
  104OSM   H12S10560   1.653   2.274   9.476 -1.6764  0.3451 -2.5045
  104OSM   H12T10561   1.477   2.319   9.507 -2.0755  0.0073 -3.1773
  104OSM   C13S10562   1.516   2.153   9.369  0.4675 -0.8947 -0.1302
  104OSM   H13S10563   1.409   2.124   9.367  0.8129 -2.3034  0.4355
  104OSM   H13T10564   1.576   2.061   9.358  0.9731 -0.5429 -0.3740
  104OSM   C14S10565   1.540   2.230   9.238 -0.8462  0.4187 -0.1448
  104OSM   H14S10566   1.547   2.152   9.159 -2.4792 -1.2290  1.2451
  104OSM   H14T10567   1.645   2.265   9.240 -0.7966  0.3900 -1.3851
  104OSM   C15S10568   1.450   2.352   9.211 -0.3816 -0.0639  0.8204
  104OSM   H15S10569   1.483   2.432   9.280  3.6409 -0.3459 -0.5183
  104OSM   H15T10570   1.342   2.325   9.215 -0.6824  1.0698  0.7659
  104OSM   C16S10571   1.481   2.405   9.071 -0.0477 -0.2940  0.4926
  104OSM   H16S10572   1.473   2.318   9.002 -1.4640 -0.3195  0.6684
  104OSM   H16T10573   1.587   2.438   9.074  0.0424 -0.5884  0.6600
  104OSM   C17S10574   1.400   2.520   9.008 -0.0518 -0.5581 -0.2017
  104OSM   H17S10575   1.439   2.530   8.905  0.3726 -0.0950  0.0029
  104OSM   H17T10576   1.404   2.610   9.072 -1.6193 -0.8982  0.4146
  104OSM   C18S10577   1.252   2.491   9.005  0.1775 -0.0171 -0.3068
  104OSM   H18S10578   1.212   2.565   8.932  0.1971  0.7046  0.4019
  104OSM   H18T10579   1.209   2.494   9.107  0.6980 -0.4119 -0.0737
  104OSM   H18U10580   1.235   2.392   8.958 -1.6777 -0.2757  0.8240
  104OSM    C1F10581   1.842   1.516  10.410 -0.3647 -0.5774  0.0291
  104OSM     OF10582   1.755   1.502  10.495 -0.1151 -0.6010 -0.0059
  104OSM    C2F10583   1.877   1.418  10.303  0.5800  0.1279  0.0841
  104OSM    H2F10584   1.892   1.319  10.350 -0.9683  0.6917  1.8669
  104OSM    H2G10585   1.977   1.439  10.259 -0.2330  1.0765 -1.4096
  104OSM    C3F10586   1.767   1.396  10.198  0.5695 -0.0134  0.5360
  104OSM    H3F10587   1.750   1.494  10.148  0.0293 -0.7552 -0.7875
  104OSM    H3G10588   1.676   1.348  10.241  1.1964 -0.7820  1.0223
  104OSM    C4F10589   1.807   1.296  10.084 -0.5038  0.3964  0.0172
  104OSM    H4F10590   1.827   1.200  10.135  0.4193  1.3436  1.5395
  104OSM    H4G10591   1.901   1.330  10.035 -0.2977 -0.9422 -0.5448
  104OSM    C5F10592   1.700   1.295   9.976 -0.3128  0.1386  0.3074
  104OSM    H5F10593   1.685   1.399   9.942  0.1958  0.1895  0.2362
  104OSM    H5G10594   1.607   1.250  10.018 -0.6105  0.5429  0.0858
  104OSM    C6F10595   1.761   1.218   9.856 -0.0694 -0.3364  1.0633
  104OSM    H6F10596   1.780   1.114   9.890 -0.6265 -1.1839 -1.0771
  104OSM    H6G10597   1.858   1.266   9.831 -0.5723  0.0319 -0.2464
  104OSM    C7F10598   1.666   1.230   9.738 -0.3975 -0.0165 -0.0307
  104OSM    H7F10599   1.565   1.203   9.774 -0.2820  0.7090  0.8548
  104OSM    H7G10600   1.695   1.153   9.663  0.9735  2.2615 -1.9915
  104OSM    C8F10601   1.665   1.370   9.658 -0.0711  0.0744 -0.9308
  104OSM    H8F10602   1.624   1.440   9.734 -0.5610 -2.9231  1.8319
  104OSM    H8G10603   1.578   1.355   9.590 -0.8128 -1.1090  0.2189
  104OSM    C9F10604   1.797   1.407   9.585 -0.8780 -0.4331 -0.3360
  104OSM    H9F10605   1.879   1.430   9.656  0.1119 -0.7003 -1.3539
  104OSM   C10F10606   1.832   1.396   9.457  0.7584  0.9995  0.5650
  104OSM   H10F10607   1.931   1.425   9.417 -0.8476  1.5072 -3.5612
  104OSM   C11F10608   1.758   1.349   9.338  0.5077 -0.0152  0.2960
  104OSM   H11F10609   1.650   1.370   9.353  0.3355 -0.5639 -0.1611
  104OSM   H11G10610   1.756   1.238   9.338  0.2624 -0.1475 -3.7145
  104OSM   C12F10611   1.806   1.406   9.199  0.0508 -0.3260 -0.3482
  104OSM   H12F10612   1.911   1.368   9.202 -0.2550 -1.1648 -0.0943
  104OSM   H12G10613   1.792   1.516   9.208 -0.6869 -0.4065 -0.4735
  104OSM   C13F10614   1.731   1.339   9.082 -0.1796  0.0656 -0.1128
  104OSM   H13F10615   1.626   1.376   9.089  0.1890  1.1911 -0.2375
  104OSM   H13G10616   1.734   1.231   9.105  2.3395  0.5080  2.1671
  104OSM   C14F10617   1.805   1.366   8.945  0.4892 -0.1156  0.4249
  104OSM   H14F10618   1.911   1.334   8.955  1.4679  2.1404 -1.7587
  104OSM   H14G10619   1.813   1.475   8.925  0.9090  0.2645  2.4069
  104OSM   C15F10620   1.728   1.304   8.829 -0.4684 -0.3468 -0.9497
  104OSM   H15F10621   1.621   1.332   8.832 -0.2134  0.8031 -1.7880
  104OSM   H15G10622   1.723   1.194   8.839  3.2041 -0.6134 -0.3461
  104OSM   C16F10623   1.768   1.340   8.684 -0.6207  0.6496  0.3448
  104OSM   H16F10624   1.769   1.450   8.667  1.1167  0.4756 -0.9502
  104OSM   H16G10625   1.695   1.303   8.609  1.4820  0.4651 -1.7583
  104OSM   C17F10626   1.909   1.285   8.663 -0.0978  0.7133  0.4221
  104OSM   H17F10627   1.915   1.177   8.689 -0.4060  0.4582 -0.5067
  104OSM   H17G10628   1.980   1.342   8.726 -0.6959  0.8046  1.0203
  104OSM   C18F10629   1.941   1.291   8.508  0.4403  0.5243 -0.0348
  104OSM   H18F10630   1.926   1.392   8.465 -0.7687  0.4074  0.0959
  104OSM   H18G10631   1.883   1.218   8.448 -0.3512 -0.1896  1.5468
  104OSM   H18H10632   2.049   1.266   8.495  0.5205  0.4459  0.7761
  105OSM      N10633   0.028   6.301  10.867 -0.3843 -0.2322  0.1270
  105OSM    C1510634   0.063   6.443  10.897 -0.0616  0.7581 -0.1830
  105OSM   H15A10635  -0.016   6.496  10.949 -0.3980 -1.5024  1.8127
  105OSM   H15B10636   0.096   6.493  10.808  2.3706 -2.0010 -0.9893
  105OSM   H15C10637   0.151   6.444  10.960  2.3631 -0.1897 -3.2979
  105OSM    C1410638   0.046   6.202  10.972 -0.7782  0.6657 -0.3090
  105OSM   H14A10639  -0.031   6.208  11.047 -0.3798 -0.3095  0.1898
  105OSM   H14B10640   0.142   6.216  11.022 -0.9159  1.3563 -0.2247
  105OSM   H14C10641   0.051   6.104  10.928 -0.0197 -0.1863  1.5491
  105OSM    C1310642  -0.110   6.297  10.814  0.2363 -0.3919 -0.3275
  105OSM   H13A10643  -0.130   6.352  10.723  0.6754  1.3847  0.6072
  105OSM   H13B10644  -0.177   6.329  10.892 -0.7717 -1.6694 -0.6306
  105OSM   H13C10645  -0.135   6.194  10.792  2.0541 -1.2381  1.2343
  105OSM    C1210646   0.131   6.257  10.761  0.1334 -0.5296  0.1921
  105OSM   H12A10647   0.233   6.271  10.795  0.1926  0.7660 -0.4821
  105OSM   H12B10648   0.116   6.325  10.679  0.6965  0.8310  1.1849
  105OSM    C1110649   0.121   6.109  10.698 -0.2404 -0.6957  0.0954
  105OSM   H11A10650   0.213   6.096  10.637 -0.1825 -0.2988  0.0964
  105OSM   H11B10651   0.035   6.112  10.627  0.2676  2.0949 -0.5180
  105OSM      P10652   0.001   5.887  10.763 -0.2016  0.1058 -0.4020
  105OSM    O1310653   0.024   5.772  10.856  0.2177 -0.2154  0.0282
  105OSM    O1410654  -0.133   5.949  10.762 -0.0962  0.3913 -0.5421
  105OSM    O1110655   0.036   5.834  10.619  0.1655 -0.6138 -0.6563
  105OSM    O1210656   0.110   6.002  10.789 -0.2041 -0.3472 -0.4771
  105OSM    C1S10657   0.177   5.816  10.596 -0.4149  0.2133 -0.3555
  105OSM    H1S10658   0.200   5.719  10.646  1.2838 -0.4797 -2.3465
  105OSM    H1T10659   0.246   5.900  10.621  0.7573 -0.8374  0.0932
  105OSM     NF10660   0.339   5.755  10.432 -0.4179 -0.2057 -0.4208
  105OSM    HNF10661   0.412   5.808  10.389  0.4596 -0.8176  0.2970
  105OSM    C2S10662   0.209   5.805  10.453 -0.6811  0.3185  0.1544
  105OSM    H2S10663   0.138   5.731  10.412 -1.1849  0.9491 -0.1334
  105OSM    C3S10664   0.173   5.942  10.387  0.7774 -0.9632 -0.1751
  105OSM    H3S10665   0.227   6.030  10.428  2.2605 -2.0971  0.3920
  105OSM     O310666   0.032   5.976  10.387  0.3565  0.3158 -0.5744
  105OSM    HO310667  -0.001   5.921  10.458  0.1910 -1.7188 -2.1371
  105OSM    C4S10668   0.201   5.932  10.238  0.0502  0.7772 -0.7431
  105OSM    H4S10669   0.147   5.850  10.188  1.1235 -0.2305 -0.3136
  105OSM    C5S10670   0.296   6.004  10.168  0.4233  0.4900 -0.0982
  105OSM    H5S10671   0.369   6.063  10.224  0.2809 -0.0220  0.6583
  105OSM    C6S10672   0.314   5.992  10.020 -0.2680  0.2989  0.2008
  105OSM    H6S10673   0.255   5.913   9.968  0.4980  0.2064 -0.5521
  105OSM    H6T10674   0.421   5.988   9.989 -0.1155  0.6119  0.6776
  105OSM    C7S10675   0.271   6.121   9.942  0.1265 -0.0345  0.4805
  105OSM    H7S10676   0.306   6.209  10.001 -1.3411 -0.2812  1.7766
  105OSM    H7T10677   0.161   6.131   9.949  0.1381  0.5251 -0.1079
  105OSM    C8S10678   0.328   6.133   9.803 -0.6225  0.3738 -0.4869
  105OSM    H8S10679   0.438   6.119   9.809 -0.4532  1.9358  3.4535
  105OSM    H8T10680   0.330   6.241   9.775  1.1591  0.2144 -1.0830
  105OSM    C9S10681   0.247   6.054   9.701 -0.1647 -0.2015  0.0281
  105OSM    H9S10682   0.141   6.072   9.729  0.2426  0.0223  1.5232
  105OSM    H9T10683   0.266   5.944   9.697  2.4555  0.1666  0.7677
  105OSM   C10S10684   0.244   6.123   9.566 -0.5314  0.5138  0.0497
  105OSM   H10S10685   0.241   6.233   9.581  0.8143  0.5046  0.4854
  105OSM   H10T10686   0.158   6.079   9.510 -0.7122  0.1895  0.5755
  105OSM   C11S10687   0.373   6.103   9.469 -0.5333  0.3958  0.4443
  105OSM   H11S10688   0.414   6.003   9.492  1.4731  1.1510  0.3749
  105OSM   H11T10689   0.455   6.164   9.513 -1.0238  1.0480  0.4786
  105OSM   C12S10690   0.356   6.135   9.318 -1.1677 -0.1131  0.2448
  105OSM   H12S10691   0.356   6.245   9.302 -0.3122 -0.0777  0.4515
  105OSM   H12T10692   0.256   6.100   9.284 -0.4097  0.2035 -2.5943
  105OSM   C13S10693   0.476   6.065   9.247  0.4998 -0.2360  0.1228
  105OSM   H13S10694   0.484   5.958   9.277  1.3656 -0.6413 -1.4790
  105OSM   H13T10695   0.567   6.126   9.264  1.5714 -1.7932  0.1725
  105OSM   C14S10696   0.424   6.052   9.101 -0.1372 -0.1802  0.2479
  105OSM   H14S10697   0.403   6.151   9.054 -0.2124  0.9345  2.4829
  105OSM   H14T10698   0.332   5.991   9.107 -1.0261  1.1604  0.6708
  105OSM   C15S10699   0.527   5.975   9.017 -0.6474  0.1219 -0.5291
  105OSM   H15S10700   0.561   5.885   9.071 -2.2980 -0.6746 -0.7470
  105OSM   H15T10701   0.622   6.031   9.008 -0.7202  1.1336  3.2386
  105OSM   C16S10702   0.477   5.919   8.882  0.3839 -0.2523  0.7517
  105OSM   H16S10703   0.373   5.880   8.890  0.7505 -1.2544  0.8368
  105OSM   H16T10704   0.538   5.830   8.854 -0.2488 -0.4761  0.0306
  105OSM   C17S10705   0.478   6.031   8.774 -0.1904 -0.3017 -0.7736
  105OSM   H17S10706   0.586   6.048   8.755 -0.2864  1.0165 -0.2405
  105OSM   H17T10707   0.462   6.129   8.824  5.2497  1.1891 -1.2804
  105OSM   C18S10708   0.398   5.999   8.646  0.1445  0.1665 -1.1387
  105OSM   H18S10709   0.291   5.980   8.666 -0.0156  2.4741  0.5821
  105OSM   H18T10710   0.445   5.917   8.587  0.0095 -0.3954 -0.4774
  105OSM   H18U10711   0.402   6.084   8.574 -0.0573 -0.7376 -2.2416
  105OSM    C1F10712   0.372   5.633  10.474  0.1185  0.0204  0.0720
  105OSM     OF10713   0.295   5.555  10.528 -0.1128  0.4308  0.0714
  105OSM    C2F10714   0.512   5.596  10.453  0.3649  0.1641 -0.7561
  105OSM    H2F10715   0.556   5.561  10.548  0.4633  0.0352 -0.8497
  105OSM    H2G10716   0.569   5.689  10.434  0.1021  0.6999  0.9631
  105OSM    C3F10717   0.537   5.478  10.346 -0.1958 -0.2087 -0.2900
  105OSM    H3F10718   0.474   5.501  10.257 -1.9849  1.3869  1.3006
  105OSM    H3G10719   0.484   5.391  10.389  2.8606 -0.7283  2.9164
  105OSM    C4F10720   0.682   5.444  10.317  0.7503  0.7012 -0.4663
  105OSM    H4F10721   0.694   5.340  10.281  1.0678 -0.5901  2.9465
  105OSM    H4G10722   0.726   5.437  10.419  1.3515  1.4330 -0.6654
  105OSM    C5F10723   0.760   5.547  10.235 -0.2764 -0.4019 -0.1294
  105OSM    H5F10724   0.865   5.528  10.267  0.0204 -0.3563 -1.0294
  105OSM    H5G10725   0.717   5.645  10.264 -3.2801 -1.1773 -1.5958
  105OSM    C6F10726   0.746   5.535  10.081 -0.0575  0.1835 -0.2116
  105OSM    H6F10727   0.639   5.551  10.057 -1.0895 -1.6869  2.6191
  105OSM    H6G10728   0.765   5.434  10.040 -0.4486 -0.3107  0.7804
  105OSM    C7F10729   0.822   5.637  10.000 -0.1977  0.0718  0.1784
  105OSM    H7F10730   0.845   5.583   9.906  0.3374 -1.2529  1.0405
  105OSM    H7G10731   0.917   5.656  10.054  0.7827  1.7053 -1.9918
  105OSM    C8F10732   0.732   5.766   9.975  0.6030 -0.2369  0.5161
  105OSM    H8F10733   0.714   5.807  10.076 -2.0559 -0.7353  0.3103
  105OSM    H8G10734   0.636   5.733   9.930  0.7507 -2.2454  1.5586
  105OSM    C9F10735   0.820   5.861   9.896  0.3900  0.4308 -0.0603
  105OSM    H9F10736   0.909   5.892   9.952  1.3558 -3.0642  0.5760
  105OSM   C10F10737   0.797   5.913   9.771  0.0671 -0.0888 -0.6077
  105OSM   H10F10738   0.868   5.990   9.738 -0.1780  0.3306 -0.1713
  105OSM   C11F10739   0.677   5.882   9.681 -0.4192  0.0187 -0.7693
  105OSM   H11F10740   0.631   5.982   9.662  0.3306  0.9720  2.0385
  105OSM   H11G10741   0.597   5.830   9.737  0.4643  0.2277  0.7182
  105OSM   C12F10742   0.697   5.805   9.549  0.5020 -0.0224 -1.0761
  105OSM   H12F10743   0.608   5.816   9.483 -1.3609  2.1963  1.5574
  105OSM   H12G10744   0.697   5.697   9.575 -2.7897 -0.3961 -2.0811
  105OSM   C13F10745   0.827   5.861   9.481 -0.0787  0.0212 -0.3354
  105OSM   H13F10746   0.911   5.818   9.539 -0.7411 -0.4223  0.3075
  105OSM   H13G10747   0.842   5.971   9.485  2.3776 -0.2641  0.1712
  105OSM   C14F10748   0.849   5.824   9.331 -0.0153 -0.0532  0.1905
  105OSM   H14F10749   0.945   5.863   9.293  0.0722 -1.3934 -1.0440
  105OSM   H14G10750   0.776   5.872   9.263  1.3802  1.2788 -0.4209
  105OSM   C15F10751   0.841   5.672   9.305 -0.0579  0.1946 -0.3685
  105OSM   H15F10752   0.734   5.656   9.283 -0.1214  0.9129 -0.5849
  105OSM   H15G10753   0.872   5.608   9.391 -1.6355  2.0427  1.7275
  105OSM   C16F10754   0.929   5.639   9.183 -0.0903  0.3645 -0.3499
  105OSM   H16F10755   0.910   5.532   9.159 -1.1850  0.0706  1.5812
  105OSM   H16G10756   1.036   5.638   9.212  0.2121  2.0420 -1.2447
  105OSM   C17F10757   0.902   5.728   9.060  0.0546  0.3649 -0.3871
  105OSM   H17F10758   0.947   5.829   9.066  3.0684 -0.6015 -3.4230
  105OSM   H17G10759   0.793   5.741   9.046  0.3820  2.0569 -1.5858
  105OSM   C18F10760   0.974   5.658   8.940 -0.5979  0.3816  0.5635
  105OSM   H18F10761   0.958   5.548   8.934  1.8686 -0.0073 -0.0721
  105OSM   H18G10762   1.082   5.684   8.945 -0.1449 -0.8322 -1.6221
  105OSM   H18H10763   0.934   5.702   8.847  0.3970  0.5182  0.1869
  106OSM      N10764   5.922   5.184  11.059 -0.2054 -0.7961  0.0789
  106OSM    C1510765   5.847   5.195  11.191 -0.8765 -0.4158  0.0362
  106OSM   H15A10766   5.744   5.225  11.186 -0.9887 -0.9581 -1.3515
  106OSM   H15B10767   5.897   5.248  11.271 -0.2227 -0.9796  0.0143
  106OSM   H15C10768   5.831   5.096  11.231  0.3667 -1.4700 -1.8903
  106OSM    C1410769   6.066   5.166  11.090  0.2848 -0.0573 -0.2779
  106OSM   H14A10770   6.115   5.171  10.994 -1.9289 -2.0587 -1.6289
  106OSM   H14B10771   6.083   5.076  11.147 -0.6683  1.3155  2.3513
  106OSM   H14C10772   6.119   5.243  11.144  1.5031 -0.4961 -0.7945
  106OSM    C1310773   5.873   5.060  10.994 -0.0088 -0.0027  0.5307
  106OSM   H13A10774   5.918   4.976  11.046  0.0390 -1.5021 -1.7812
  106OSM   H13B10775   5.901   5.064  10.890 -0.7741  2.3745  0.3581
  106OSM   H13C10776   5.770   5.034  11.014  0.4082 -0.5809  2.1189
  106OSM    C1210777   5.891   5.306  10.974  0.2296 -0.4153 -0.5611
  106OSM   H12A10778   5.892   5.388  11.046  2.6962 -0.8061 -0.0621
  106OSM   H12B10779   5.785   5.300  10.954 -0.2502  2.4249  0.6034
  106OSM    C1110780   5.972   5.339  10.847 -0.9501 -0.0296  0.0723
  106OSM   H11A10781   6.073   5.368  10.882 -0.9493  0.4672 -0.3410
  106OSM   H11B10782   5.917   5.413  10.786 -1.2032 -1.5375 -1.6321
  106OSM      P10783   5.923   5.173  10.632  0.0647 -0.1723 -0.1836
  106OSM    O1310784   5.976   5.045  10.587  0.4112  0.1027  0.0805
  106OSM    O1410785   5.777   5.195  10.655 -0.2422  0.6510  0.8738
  106OSM    O1110786   5.971   5.283  10.527 -0.0913  0.4215 -0.4295
  106OSM    O1210787   6.003   5.219  10.763 -0.2658 -0.0859  0.5212
  106OSM    C1S10788   6.108   5.312  10.503 -0.3169 -0.0111 -0.8590
  106OSM    H1S10789   6.170   5.220  10.503 -1.5432 -0.8638 -1.4033
  106OSM    H1T10790   6.135   5.397  10.570  3.3713  0.6229 -2.8921
  106OSM     NF10791   6.256   5.371  10.316  0.2258 -0.1136 -0.0215
  106OSM    HNF10792   6.307   5.456  10.326 -0.8552  0.4103  1.3668
  106OSM    C2S10793   6.119   5.378  10.367  0.7891 -0.4539  0.3959
  106OSM    H2S10794   6.066   5.318  10.290 -2.5609  2.0517  0.5141
  106OSM    C3S10795   6.048   5.523  10.363  0.6457  0.0312 -0.1540
  106OSM    H3S10796   6.123   5.591  10.410  0.6180  0.6999 -1.0537
  106OSM     O310797   5.926   5.526  10.437  0.3356 -0.4460  0.3151
  106OSM    HO310798   5.919   5.438  10.475  1.1573 -0.6049  0.1171
  106OSM    C4S10799   6.038   5.578  10.223 -0.0894  0.0607 -0.2404
  106OSM    H4S10800   6.130   5.633  10.199 -0.1117  0.2655  0.1456
  106OSM    C5S10801   5.929   5.575  10.137  0.0969 -0.4804 -0.3490
  106OSM    H5S10802   5.843   5.511  10.159  0.8949 -1.7951 -0.8946
  106OSM    C6S10803   5.940   5.629   9.998 -0.0001 -0.6742  0.1799
  106OSM    H6S10804   5.957   5.738   9.990 -1.9933 -0.2178  1.3993
  106OSM    H6T10805   5.846   5.616   9.940 -0.6362 -1.6922  1.3708
  106OSM    C7S10806   6.049   5.558   9.910 -0.0795  0.2989 -0.7246
  106OSM    H7S10807   6.008   5.455   9.902  0.4123 -0.1971  2.0691
  106OSM    H7T10808   6.149   5.550   9.958  0.0720  2.0488 -0.6899
  106OSM    C8S10809   6.073   5.629   9.778 -0.0157  0.3505 -0.0164
  106OSM    H8S10810   6.176   5.603   9.746 -0.0119  0.9438 -0.5140
  106OSM    H8T10811   6.076   5.739   9.795 -0.9064  0.5539 -1.0501
  106OSM    C9S10812   5.969   5.607   9.665  0.6953 -0.0927  0.4879
  106OSM    H9S10813   5.880   5.665   9.698 -0.9932 -2.2417 -0.0488
  106OSM    H9T10814   5.931   5.503   9.649 -1.3315  0.5455  0.8789
  106OSM   C10S10815   6.014   5.638   9.518  0.3844 -0.2900  0.7855
  106OSM   H10S10816   6.083   5.557   9.487  0.8412  0.2696  0.3347
  106OSM   H10T10817   6.069   5.734   9.514  0.3824 -0.3378 -1.7081
  106OSM   C11S10818   5.896   5.633   9.422 -0.9468 -0.7097 -0.9645
  106OSM   H11S10819   5.822   5.700   9.472 -0.4844 -0.2819 -0.8382
  106OSM   H11T10820   5.866   5.527   9.437  1.4818 -1.0138  3.9080
  106OSM   C12S10821   5.932   5.688   9.282 -0.3063  0.4364 -0.1928
  106OSM   H12S10822   5.983   5.607   9.226 -1.8747  0.4885 -1.7705
  106OSM   H12T10823   6.001   5.775   9.285 -2.5985  2.2983  1.4119
  106OSM   C13S10824   5.812   5.724   9.199  0.1192  0.0080  0.3094
  106OSM   H13S10825   5.774   5.828   9.216 -2.0630 -0.8625  1.1784
  106OSM   H13T10826   5.733   5.652   9.230 -0.2853 -0.0935 -0.9028
  106OSM   C14S10827   5.832   5.696   9.050  0.3421  1.0795  0.2165
  106OSM   H14S10828   5.889   5.601   9.040 -2.3982 -0.7308  0.8388
  106OSM   H14T10829   5.891   5.789   9.032  0.4242  1.8697  3.8802
  106OSM   C15S10830   5.704   5.675   8.968  0.1268  0.1850  1.0002
  106OSM   H15S10831   5.631   5.756   8.991  0.0748  1.0835 -1.8270
  106OSM   H15T10832   5.672   5.580   9.014  0.9424 -0.4704  0.2537
  106OSM   C16S10833   5.727   5.657   8.814 -0.1535 -0.8116  0.2154
  106OSM   H16S10834   5.823   5.600   8.817  0.1656 -0.2377  1.3096
  106OSM   H16T10835   5.750   5.760   8.779  0.2253 -0.3253  1.8086
  106OSM   C17S10836   5.624   5.575   8.741 -0.4750  0.7737 -0.5034
  106OSM   H17S10837   5.656   5.583   8.635  1.7409  2.3866  0.2062
  106OSM   H17T10838   5.524   5.620   8.760 -1.8513 -2.2910  0.0222
  106OSM   C18S10839   5.620   5.424   8.770  0.4063 -0.2691 -0.1003
  106OSM   H18S10840   5.707   5.367   8.732  0.8241  0.2573  0.0583
  106OSM   H18T10841   5.534   5.375   8.720  1.3076 -0.6298 -1.3430
  106OSM   H18U10842   5.606   5.412   8.880  1.7217 -0.3009  0.0779
  106OSM    C1F10843   6.310   5.259  10.286  0.2027  0.1950  0.7991
  106OSM     OF10844   6.243   5.163  10.250 -1.2003 -0.1093 -0.3316
  106OSM    C2F10845   6.460   5.242  10.302  0.9024  0.0135 -0.3919
  106OSM    H2F10846   6.481   5.221  10.409 -1.0510 -0.0649  0.0184
  106OSM    H2G10847   6.506   5.336  10.266  0.1360  0.3676 -0.4629
  106OSM    C3F10848   6.508   5.115  10.221 -0.3844  0.6235  0.5901
  106OSM    H3F10849   6.462   5.118  10.120  1.1745 -0.0228 -0.1742
  106OSM    H3G10850   6.479   5.022  10.274 -0.8937 -0.5172 -1.6063
  106OSM    C4F10851   6.662   5.113  10.193  0.4710 -0.3597 -0.2176
  106OSM    H4F10852   6.709   5.097  10.293  2.2762 -1.4702 -1.1999
  106OSM    H4G10853   6.691   5.211  10.151 -0.8430 -0.4142 -1.3054
  106OSM    C5F10854   6.715   4.997  10.105 -0.1528 -0.8623 -0.2332
  106OSM    H5F10855   6.722   4.899  10.157  0.9777 -1.3316 -1.2328
  106OSM    H5G10856   6.814   5.036  10.073 -0.7857 -0.2885 -1.5889
  106OSM    C6F10857   6.640   4.988   9.973  0.0609  0.3123  1.1314
  106OSM    H6F10858   6.635   5.091   9.931  0.2918  0.2415  0.9347
  106OSM    H6G10859   6.537   4.949   9.988  0.7748 -2.6709 -0.9609
  106OSM    C7F10860   6.692   4.880   9.861 -0.2270 -0.8385 -0.7748
  106OSM    H7F10861   6.654   4.778   9.885 -1.7108 -0.3510 -1.0065
  106OSM    H7G10862   6.802   4.887   9.878 -0.0060 -1.6592 -1.7217
  106OSM    C8F10863   6.664   4.929   9.720 -0.4936 -0.2377 -0.0670
  106OSM    H8F10864   6.702   4.841   9.665  0.3240 -0.3646  0.6904
  106OSM    H8G10865   6.738   5.003   9.684 -0.5865 -0.0571  0.1065
  106OSM    C9F10866   6.516   4.967   9.688 -0.0777 -0.0165 -0.7041
  106OSM    H9F10867   6.448   4.961   9.774 -1.3899  1.3457 -1.5949
  106OSM   C10F10868   6.459   4.990   9.572  0.7677  0.3601  0.3126
  106OSM   H10F10869   6.355   5.026   9.576 -0.0359 -1.4761 -2.0235
  106OSM   C11F10870   6.520   4.995   9.435  0.0522  0.0812  1.1010
  106OSM   H11F10871   6.598   4.916   9.426 -1.0091 -0.8120 -0.6291
  106OSM   H11G10872   6.570   5.095   9.439  0.3816 -0.0481  0.3500
  106OSM   C12F10873   6.416   4.984   9.316 -0.6489  0.0149  0.4345
  106OSM   H12F10874   6.360   5.080   9.321 -0.3967  0.1868 -0.0115
  106OSM   H12G10875   6.356   4.892   9.332 -0.2157 -0.2493  0.5581
  106OSM   C13F10876   6.491   4.985   9.182  0.7699 -0.7374 -0.4581
  106OSM   H13F10877   6.543   4.889   9.160  2.5116  0.4922 -1.9474
  106OSM   H13G10878   6.563   5.069   9.183  0.9006 -0.8300 -1.3133
  106OSM   C14F10879   6.403   5.031   9.060 -0.5024 -0.4011 -0.8861
  106OSM   H14F10880   6.348   5.125   9.083  4.2927  2.5698 -0.2630
  106OSM   H14G10881   6.323   4.954   9.053 -1.5196  0.3853  1.1456
  106OSM   C15F10882   6.483   5.075   8.937  1.1310 -0.0070  0.7290
  106OSM   H15F10883   6.569   5.008   8.921  0.9221 -0.6811  2.2403
  106OSM   H15G10884   6.528   5.177   8.945 -1.5764  1.5328 -1.6934
  106OSM   C16F10885   6.389   5.080   8.814 -0.3401  0.3027 -0.4886
  106OSM   H16F10886   6.426   5.156   8.742 -0.1262  0.2578 -0.4281
  106OSM   H16G10887   6.287   5.101   8.853 -0.2024 -1.4933  0.9608
  106OSM   C17F10888   6.387   4.951   8.721  0.7679 -0.2733  0.1241
  106OSM   H17F10889   6.324   4.876   8.773 -0.3304  2.0485  2.4113
  106OSM   H17G10890   6.491   4.914   8.717  0.7606 -0.5555  1.7837
  106OSM   C18F10891   6.326   4.974   8.586  0.1598 -0.3098  0.3620
  106OSM   H18F10892   6.332   4.877   8.531 -1.0897 -0.0110 -0.3507
  106OSM   H18G10893   6.380   5.047   8.523  1.4438  1.0230  2.8773
  106OSM   H18H10894   6.219   4.993   8.610  0.3620  0.4785  0.6699
  107OSM      N10895   0.604   3.657  11.143  0.3891  0.5782  0.0699
  107OSM    C1510896   0.756   3.625  11.155 -0.1297  1.0224 -0.5732
  107OSM   H15A10897   0.774   3.583  11.253  0.5654 -2.6074 -2.1104
  107OSM   H15B10898   0.816   3.715  11.152  1.5202 -0.0001  0.4552
  107OSM   H15C10899   0.791   3.556  11.080  2.6099  2.4315 -0.7237
  107OSM    C1410900   0.532   3.542  11.195 -0.1381 -0.6100 -0.0850
  107OSM   H14A10901   0.541   3.532  11.302 -0.3258 -1.2793 -0.1272
  107OSM   H14B10902   0.567   3.450  11.149  1.5931  0.8299 -1.7951
  107OSM   H14C10903   0.429   3.552  11.165 -0.2659  1.8216  0.9398
  107OSM    C1310904   0.573   3.779  11.229  0.2097  0.2693  0.6949
  107OSM   H13A10905   0.605   3.749  11.327 -0.5763 -2.5367  0.1745
  107OSM   H13B10906   0.467   3.800  11.230  0.4342  1.5029  1.2158
  107OSM   H13C10907   0.625   3.864  11.186 -1.2903 -0.5709 -3.2962
  107OSM    C1210908   0.553   3.685  10.996 -0.5307  0.2044 -0.3278
  107OSM   H12A10909   0.600   3.774  10.959  0.8481  0.3045  1.5051
  107OSM   H12B10910   0.445   3.694  10.997 -0.7899 -2.1849  0.7600
  107OSM    C1110911   0.577   3.565  10.899  0.5717  0.5438 -0.0047
  107OSM   H11A10912   0.684   3.534  10.902  0.0911 -1.1993  0.3887
  107OSM   H11B10913   0.571   3.595  10.792  1.5096 -0.4895 -0.3675
  107OSM      P10914   0.357   3.428  10.844 -0.1087  0.2504 -0.3869
  107OSM    O1310915   0.335   3.279  10.847 -0.0254 -0.2219  0.1774
  107OSM    O1410916   0.254   3.507  10.916  0.2727 -0.4817 -0.8359
  107OSM    O1110917   0.389   3.485  10.703 -0.0331  0.3856 -0.2255
  107OSM    O1210918   0.494   3.452  10.929 -0.3488 -0.8280  0.0391
  107OSM    C1S10919   0.454   3.398  10.606 -0.7610  0.4389  0.3015
  107OSM    H1S10920   0.393   3.306  10.589  1.7008 -1.2342  0.0241
  107OSM    H1T10921   0.553   3.361  10.640 -0.9697  0.6846  1.1836
  107OSM     NF10922   0.559   3.382  10.378  0.3471 -0.0630 -0.1987
  107OSM    HNF10923   0.650   3.409  10.347  0.5296 -1.6827 -1.1648
  107OSM    C2S10924   0.485   3.471  10.470  0.5474  0.9269  0.2547
  107OSM    H2S10925   0.388   3.501  10.424  1.4226  4.4635  0.4519
  107OSM    C3S10926   0.548   3.618  10.488 -0.6962 -0.0968 -0.0822
  107OSM    H3S10927   0.649   3.610  10.532  0.1452  1.4339 -1.6154
  107OSM     O310928   0.473   3.707  10.571  0.0991 -0.0854  0.2483
  107OSM    HO310929   0.408   3.652  10.616  0.3419  0.2977  1.0853
  107OSM    C4S10930   0.568   3.685  10.351  0.5566  0.1031  0.6632
  107OSM    H4S10931   0.659   3.657  10.296 -0.9309 -1.5216 -1.1520
  107OSM    C5S10932   0.491   3.771  10.282  0.1758 -0.6419  0.5019
  107OSM    H5S10933   0.389   3.795  10.315  0.3491  1.0823 -0.0908
  107OSM    C6S10934   0.515   3.829  10.142 -0.2862 -0.2211 -0.3218
  107OSM    H6S10935   0.598   3.768  10.099 -0.2436 -1.8654  1.8739
  107OSM    H6T10936   0.540   3.937  10.145 -0.1100 -0.2730  1.5070
  107OSM    C7S10937   0.390   3.806  10.057  0.4298  0.3057 -0.0674
  107OSM    H7S10938   0.303   3.857  10.103 -1.8302 -2.6441 -0.8004
  107OSM    H7T10939   0.350   3.702  10.065  0.2924  0.3468 -0.1984
  107OSM    C8S10940   0.405   3.862   9.914 -0.2336  0.1730 -0.1106
  107OSM    H8S10941   0.496   3.805   9.884 -0.3339 -0.4221  0.6909
  107OSM    H8T10942   0.417   3.972   9.918  0.3942  0.1179 -0.2542
  107OSM    C9S10943   0.284   3.829   9.819  0.1916  0.7538  0.2229
  107OSM    H9S10944   0.183   3.855   9.858 -0.6302  0.0575 -1.3291
  107OSM    H9T10945   0.283   3.722   9.791  0.5910  0.4806  1.2182
  107OSM   C10S10946   0.300   3.895   9.680 -0.5533  0.1845 -0.2754
  107OSM   H10S10947   0.402   3.878   9.642 -0.7039  0.9363 -1.0509
  107OSM   H10T10948   0.274   4.003   9.686  0.4631  0.4937 -1.1851
  107OSM   C11S10949   0.201   3.832   9.577 -1.0560  0.0162 -0.0869
  107OSM   H11S10950   0.099   3.864   9.609 -0.8638 -0.2610  0.8139
  107OSM   H11T10951   0.205   3.721   9.581  1.7495  0.0663  0.0184
  107OSM   C12S10952   0.236   3.878   9.436  0.0799  0.2904  0.5500
  107OSM   H12S10953   0.337   3.841   9.408 -0.0709 -1.4200  2.0492
  107OSM   H12T10954   0.246   3.988   9.440  0.8880  0.3835 -2.2379
  107OSM   C13S10955   0.127   3.829   9.337 -0.4181 -0.2359 -0.0183
  107OSM   H13S10956   0.040   3.889   9.372 -0.0088  0.4800 -0.1959
  107OSM   H13T10957   0.112   3.720   9.325 -1.2531 -0.2354  0.8942
  107OSM   C14S10958   0.176   3.887   9.201  0.1676 -0.3918 -0.6838
  107OSM   H14S10959   0.267   3.833   9.167 -0.9643 -1.2315 -2.5415
  107OSM   H14T10960   0.192   3.996   9.211 -0.9641 -0.1135 -1.7229
  107OSM   C15S10961   0.068   3.867   9.090  0.9858  0.3332  0.1359
  107OSM   H15S10962  -0.032   3.905   9.123  1.6423  1.5623  0.7993
  107OSM   H15T10963   0.044   3.759   9.080  1.5214  0.1796  0.4866
  107OSM   C16S10964   0.118   3.916   8.953  1.2205  0.5869 -0.2734
  107OSM   H16S10965   0.227   3.896   8.950  1.3805  1.2659  0.5373
  107OSM   H16T10966   0.098   4.025   8.947 -2.0838 -0.0127 -2.6023
  107OSM   C17S10967   0.050   3.856   8.831  0.5108  0.3261  0.7784
  107OSM   H17S10968  -0.061   3.859   8.826  0.4628 -1.9658 -1.6030
  107OSM   H17T10969   0.073   3.747   8.833 -0.7903  0.0346  3.3748
  107OSM   C18S10970   0.108   3.915   8.698  0.3426  0.0819  0.1309
  107OSM   H18S10971   0.055   3.868   8.613 -3.4757  0.4595  2.0721
  107OSM   H18T10972   0.211   3.881   8.676 -0.1050 -0.7229 -0.8119
  107OSM   H18U10973   0.101   4.026   8.703  1.0771  0.1646 -0.5839
  107OSM    C1F10974   0.503   3.278  10.316  0.3276 -0.4324  0.9073
  107OSM     OF10975   0.385   3.248  10.347 -0.7009 -0.4330 -0.3703
  107OSM    C2F10976   0.581   3.210  10.209  0.0154 -0.3334 -0.5637
  107OSM    H2F10977   0.546   3.105  10.194  1.1702 -0.7823 -0.1889
  107OSM    H2G10978   0.680   3.198  10.257 -1.3295  1.5782  3.0717
  107OSM    C3F10979   0.586   3.279  10.066  0.4027  0.3388 -0.2643
  107OSM    H3F10980   0.486   3.268  10.018  0.2955 -2.0414  0.3751
  107OSM    H3G10981   0.646   3.208  10.005  0.2248  0.1690 -0.2415
  107OSM    C4F10982   0.625   3.427  10.053  0.6166 -0.4394  0.5175
  107OSM    H4F10983   0.735   3.433  10.070  0.6123 -1.6210  1.0122
  107OSM    H4G10984   0.575   3.492  10.127  2.6492  1.5559  0.2540
  107OSM    C5F10985   0.598   3.494   9.922 -0.1665 -0.2914  0.1093
  107OSM    H5F10986   0.625   3.601   9.934 -0.0374 -0.4193  1.0908
  107OSM    H5G10987   0.490   3.496   9.899 -0.7238  2.9809  2.2598
  107OSM    C6F10988   0.662   3.437   9.792  0.6166 -0.5538  0.3030
  107OSM    H6F10989   0.619   3.336   9.776 -0.5037  0.0088 -0.3014
  107OSM    H6G10990   0.769   3.418   9.816  0.0975 -3.2833  0.6906
  107OSM    C7F10991   0.645   3.532   9.670  0.0981  0.2580  0.2825
  107OSM    H7F10992   0.725   3.498   9.600  0.6100  0.1947  0.8887
  107OSM    H7G10993   0.672   3.635   9.701 -1.7840  0.8851 -0.0574
  107OSM    C8F10994   0.500   3.525   9.616 -0.5758 -0.1772  0.4236
  107OSM    H8F10995   0.430   3.577   9.684  0.2849  3.1089 -1.0414
  107OSM    H8G10996   0.467   3.420   9.597  0.7240 -1.2311  3.3475
  107OSM    C9F10997   0.497   3.603   9.484 -0.4686 -0.2165 -0.3815
  107OSM    H9F10998   0.481   3.711   9.495 -0.8346 -0.3062  0.0081
  107OSM   C10F10999   0.524   3.560   9.361  0.4370 -0.3721 -0.0680
  107OSM   H10F11000   0.527   3.623   9.271  1.3585  0.5823  0.6085
  107OSM   C11F11001   0.548   3.409   9.330 -0.4263  0.1835 -0.0926
  107OSM   H11F11002   0.579   3.343   9.415  2.7880 -1.0842 -2.0311
  107OSM   H11G11003   0.635   3.407   9.260 -1.4307 -2.2345 -1.4133
  107OSM   C12F11004   0.436   3.328   9.270 -0.1371 -0.3079  0.0696
  107OSM   H12F11005   0.339   3.378   9.291  0.0250  0.3079 -0.6191
  107OSM   H12G11006   0.435   3.224   9.309  0.5618  0.3540  1.9596
  107OSM   C13F11007   0.439   3.306   9.109  0.1153 -0.3812 -0.1819
  107OSM   H13F11008   0.375   3.222   9.073 -1.6451  0.7777  0.0826
  107OSM   H13G11009   0.544   3.285   9.082  0.4214  1.3816 -0.4870
  107OSM   C14F11010   0.391   3.428   9.028 -0.5372 -0.6956 -0.1620
  107OSM   H14F11011   0.422   3.530   9.060  1.0357 -1.3449  0.4622
  107OSM   H14G11012   0.280   3.431   9.031 -0.5585  1.0852 -0.9285
  107OSM   C15F11013   0.431   3.418   8.876 -0.5043 -0.1607 -0.1725
  107OSM   H15F11014   0.400   3.313   8.853 -3.4947  0.1001  1.9372
  107OSM   H15G11015   0.540   3.432   8.862 -0.6875  3.8199  1.2135
  107OSM   C16F11016   0.362   3.528   8.796  0.4427 -0.4122 -0.1719
  107OSM   H16F11017   0.404   3.525   8.693 -2.0523 -1.5785 -1.2484
  107OSM   H16G11018   0.397   3.622   8.843  0.7701 -0.4521 -0.3334
  107OSM   C17F11019   0.211   3.503   8.773 -0.1250  0.9117  0.2577
  107OSM   H17F11020   0.176   3.590   8.713  0.9623  1.0502 -0.2070
  107OSM   H17G11021   0.166   3.521   8.873 -0.7644  3.5237 -0.4153
  107OSM   C18F11022   0.176   3.370   8.715 -0.1785  0.1975 -0.3758
  107OSM   H18F11023   0.241   3.339   8.630  2.6331  0.6145  1.5063
  107OSM   H18G11024   0.073   3.381   8.675 -1.6554 -0.3437  2.9620
  107OSM   H18H11025   0.183   3.293   8.795  0.9076  1.7232  1.0765
  108OSM      N11026   4.440   4.322  10.631  0.3168  0.0755 -0.3350
  108OSM    C1511027   4.361   4.308  10.762  0.6365 -0.5206  0.7743
  108OSM   H15A11028   4.415   4.350  10.845 -0.2384 -1.2804  1.7589
  108OSM   H15B11029   4.331   4.209  10.794 -3.7834  0.8008  1.5012
  108OSM   H15C11030   4.270   4.367  10.765  1.9364  1.5314  1.3331
  108OSM    C1411031   4.369   4.262  10.515  0.2329 -0.7472  0.0268
  108OSM   H14A11032   4.278   4.316  10.493 -0.4789 -1.7181  0.5224
  108OSM   H14B11033   4.347   4.161  10.547 -0.8365 -0.3512  0.6095
  108OSM   H14C11034   4.430   4.259  10.426  1.2319 -0.2976  0.6750
  108OSM    C1311035   4.483   4.459  10.607 -0.3723 -0.0528  0.3144
  108OSM   H13A11036   4.545   4.482  10.692  2.2309 -0.7806 -1.2758
  108OSM   H13B11037   4.400   4.526  10.592 -1.4627 -1.4052  0.0774
  108OSM   H13C11038   4.542   4.464  10.517  0.1130 -1.2329  0.5577
  108OSM    C1211039   4.562   4.238  10.638  0.1325  0.8373 -0.5545
  108OSM   H12A11040   4.552   4.134  10.664  2.4572  0.3711 -1.2821
  108OSM   H12B11041   4.621   4.279  10.719 -0.6249 -0.2580  0.5925
  108OSM    C1111042   4.654   4.230  10.513 -0.2785  0.4524 -0.7432
  108OSM   H11A11043   4.752   4.206  10.559 -1.5247  1.2390  2.5788
  108OSM   H11B11044   4.665   4.330  10.465 -0.2006 -0.1296 -1.9874
  108OSM      P11045   4.661   3.978  10.441  0.4736 -0.1642 -0.6004
  108OSM    O1311046   4.784   3.949  10.359 -0.2353  0.0016  0.0308
  108OSM    O1411047   4.656   3.936  10.589 -0.0102 -0.3695  0.1823
  108OSM    O1111048   4.540   3.906  10.372  0.3558 -1.1173 -0.4102
  108OSM    O1211049   4.608   4.133  10.417 -0.3081 -0.9963  0.8643
  108OSM    C1S11050   4.450   3.976  10.284  0.7018  0.4183  0.3913
  108OSM    H1S11051   4.522   4.034  10.223  1.4413 -0.2447  0.6205
  108OSM    H1T11052   4.380   4.046  10.336 -2.0957  0.5913 -3.1892
  108OSM     NF11053   4.322   3.936  10.070  0.1945  0.2621 -0.0773
  108OSM    HNF11054   4.231   3.974  10.079 -0.2370 -0.5128 -1.0381
  108OSM    C2S11055   4.367   3.874  10.193 -1.3716  0.2778  0.1529
  108OSM    H2S11056   4.440   3.795  10.164 -0.5925  1.2948 -0.7392
  108OSM    C3S11057   4.254   3.808  10.271 -0.2604 -0.4081  0.7493
  108OSM    H3S11058   4.183   3.888  10.302  0.5478  0.5784  0.1078
  108OSM     O311059   4.298   3.739  10.387  0.3687 -0.3080 -0.0577
  108OSM    HO311060   4.387   3.764  10.413 -1.0099  3.0938  1.9884
  108OSM    C4S11061   4.182   3.714  10.182  1.0723  0.0207  0.4900
  108OSM    H4S11062   4.245   3.657  10.112  2.7931  4.8705 -2.3836
  108OSM    C5S11063   4.052   3.706  10.169 -0.0595 -0.7705 -0.2416
  108OSM    H5S11064   3.986   3.770  10.230 -0.5425 -1.1123 -0.3945
  108OSM    C6S11065   3.984   3.605  10.081 -0.1376  0.1243 -0.6896
  108OSM    H6S11066   3.890   3.562  10.121  1.4260 -0.8826  2.1166
  108OSM    H6T11067   4.059   3.524  10.073  0.5048  0.5522  0.7483
  108OSM    C7S11068   3.951   3.662   9.944  0.4064  0.5012  0.5808
  108OSM    H7S11069   3.889   3.587   9.891  0.4690  0.2610  0.8469
  108OSM    H7T11070   4.038   3.675   9.877 -1.2727 -0.3937 -1.9318
  108OSM    C8S11071   3.870   3.786   9.946  0.4832 -0.5741 -0.3576
  108OSM    H8S11072   3.943   3.866   9.970  0.9592 -1.4454  1.2582
  108OSM    H8T11073   3.790   3.787  10.024  0.3173 -0.6516 -0.5259
  108OSM    C9S11074   3.794   3.809   9.810  1.2147  0.0104 -0.4472
  108OSM    H9S11075   3.753   3.912   9.800 -1.0393 -0.8311 -0.6806
  108OSM    H9T11076   3.712   3.734   9.800  2.2846 -1.3733  0.7216
  108OSM   C10S11077   3.882   3.800   9.687  0.0777  0.6282  0.4591
  108OSM   H10S11078   3.901   3.691   9.679  0.8579  0.8304 -0.5108
  108OSM   H10T11079   3.975   3.857   9.704  0.0735  0.2511  1.8973
  108OSM   C11S11080   3.824   3.844   9.552  0.0575 -0.0566  0.1956
  108OSM   H11S11081   3.748   3.925   9.564  0.5397  0.8569 -2.2692
  108OSM   H11T11082   3.784   3.750   9.508 -0.1396 -1.1709  2.5906
  108OSM   C12S11083   3.935   3.903   9.456 -0.4413 -0.0580  0.2945
  108OSM   H12S11084   4.007   3.820   9.435 -3.3500 -2.6988  0.0092
  108OSM   H12T11085   3.990   3.988   9.501  0.2286  0.0346 -0.6646
  108OSM   C13S11086   3.873   3.950   9.327  0.0534 -0.4710  0.5053
  108OSM   H13S11087   3.792   4.023   9.346  0.9442  0.0170  2.7832
  108OSM   H13T11088   3.829   3.865   9.270 -0.6877  1.7440 -2.3965
  108OSM   C14S11089   3.978   3.998   9.225 -0.1827  0.6233 -0.1979
  108OSM   H14S11090   4.044   3.912   9.201 -1.3924 -0.5835  0.6402
  108OSM   H14T11091   4.049   4.064   9.279  0.3166  0.4283 -0.6043
  108OSM   C15S11092   3.924   4.073   9.096  0.5220  0.1326 -0.3022
  108OSM   H15S11093   4.005   4.118   9.034  2.4590 -2.4758  0.1789
  108OSM   H15T11094   3.851   4.148   9.133 -1.4597 -1.6847 -0.3489
  108OSM   C16S11095   3.837   3.990   8.992  0.1533  0.4307 -1.3325
  108OSM   H16S11096   3.752   3.938   9.042 -0.0698  2.2110  0.2791
  108OSM   H16T11097   3.908   3.920   8.944 -0.4620 -0.3468 -1.1319
  108OSM   C17S11098   3.766   4.083   8.897 -0.4432  0.6261 -0.3681
  108OSM   H17S11099   3.844   4.153   8.860 -0.5600  0.1450 -1.5656
  108OSM   H17T11100   3.687   4.146   8.943 -0.6266  0.5310 -0.5513
  108OSM   C18S11101   3.707   4.001   8.788  0.5114 -0.0855  0.4922
  108OSM   H18S11102   3.659   3.907   8.822 -0.2540 -0.5859 -1.7656
  108OSM   H18T11103   3.791   3.984   8.716  1.3274  1.9437  0.9051
  108OSM   H18U11104   3.623   4.058   8.743  1.6976 -0.0370 -1.8404
  108OSM    C1F11105   4.405   3.953   9.967  0.1617 -0.2314 -0.6252
  108OSM     OF11106   4.519   3.920   9.984 -0.2683 -0.6371  1.2966
  108OSM    C2F11107   4.345   4.013   9.841 -0.5047  0.0699  0.2624
  108OSM    H2F11108   4.313   4.118   9.855 -1.4274 -0.2040  0.2490
  108OSM    H2G11109   4.250   3.959   9.819 -0.9258  0.6001  0.7448
  108OSM    C3F11110   4.441   3.993   9.718  0.6457 -0.1031 -0.7270
  108OSM    H3F11111   4.488   3.892   9.712  1.1026  0.1305 -1.1353
  108OSM    H3G11112   4.521   4.068   9.738  0.5436  0.2251 -1.5157
  108OSM    C4F11113   4.380   4.051   9.588 -0.3634 -0.0277  0.4544
  108OSM    H4F11114   4.373   4.161   9.598  0.9087  0.2562 -1.2650
  108OSM    H4G11115   4.279   4.007   9.575 -0.5112 -1.1140  4.0160
  108OSM    C5F11116   4.456   4.004   9.459 -0.0659  0.7989 -0.6164
  108OSM    H5F11117   4.447   3.893   9.455  0.2873  0.7976 -2.8731
  108OSM    H5G11118   4.564   4.025   9.465  0.3351 -1.1662 -0.1186
  108OSM    C6F11119   4.385   4.058   9.331  0.2229 -0.0981 -0.3436
  108OSM    H6F11120   4.387   4.169   9.332  1.2531 -0.1025 -0.2579
  108OSM    H6G11121   4.280   4.024   9.329 -0.7106  2.5561  0.0183
  108OSM    C7F11122   4.436   3.996   9.201 -0.5164 -0.0215 -0.5591
  108OSM    H7F11123   4.427   3.886   9.211 -0.1757 -0.0036  0.0005
  108OSM    H7G11124   4.545   4.018   9.195 -0.0035 -1.2794  2.6160
  108OSM    C8F11125   4.351   4.045   9.091 -0.6176  0.4973  0.0576
  108OSM    H8F11126   4.364   4.155   9.089  2.8859  0.1979 -0.4639
  108OSM    H8G11127   4.242   4.030   9.108 -0.5629  0.9150  0.8115
  108OSM    C9F11128   4.394   3.984   8.965  1.0027  0.1602  0.3743
  108OSM    H9F11129   4.486   4.034   8.931  0.1683  1.4930 -0.0521
  108OSM   C10F11130   4.345   3.884   8.884  0.2611  0.0393  0.1907
  108OSM   H10F11131   4.400   3.861   8.791  1.7620  2.0164  0.5237
  108OSM   C11F11132   4.220   3.798   8.916 -0.3096  0.6689  0.5185
  108OSM   H11F11133   4.160   3.811   8.823  1.0432 -0.9142 -0.6543
  108OSM   H11G11134   4.165   3.838   9.003 -2.2806 -0.8224  0.0372
  108OSM   C12F11135   4.236   3.645   8.948  0.2421 -0.6668 -0.3066
  108OSM   H12F11136   4.314   3.601   8.881 -1.3449 -0.4475 -2.4065
  108OSM   H12G11137   4.141   3.596   8.917 -1.1372 -0.1142  2.7450
  108OSM   C13F11138   4.273   3.626   9.094 -0.4195 -0.1231 -0.1972
  108OSM   H13F11139   4.185   3.658   9.154 -0.6063 -0.4942 -0.2675
  108OSM   H13G11140   4.362   3.687   9.118  0.5249 -1.2208 -0.7883
  108OSM   C14F11141   4.329   3.488   9.116 -0.2577 -0.2159 -0.3672
  108OSM   H14F11142   4.427   3.477   9.065 -0.7238 -2.1539 -0.9536
  108OSM   H14G11143   4.263   3.417   9.060  3.1854 -1.0967 -3.7857
  108OSM   C15F11144   4.331   3.457   9.265  0.4875 -0.2395 -0.5931
  108OSM   H15F11145   4.348   3.351   9.295 -1.2852 -0.2061  0.6937
  108OSM   H15G11146   4.245   3.496   9.323  1.4567  0.7752  0.1914
  108OSM   C16F11147   4.455   3.520   9.337  0.5394 -0.0937  0.0636
  108OSM   H16F11148   4.473   3.626   9.306 -2.1918  0.4000 -0.0955
  108OSM   H16G11149   4.541   3.457   9.308  1.9362  0.6548  2.3457
  108OSM   C17F11150   4.459   3.509   9.493  0.1025 -0.4106  0.4539
  108OSM   H17F11151   4.560   3.548   9.518  0.3394 -1.4151  1.1302
  108OSM   H17G11152   4.449   3.402   9.521  0.8517 -0.7441 -0.4962
  108OSM   C18F11153   4.353   3.603   9.562 -0.9138 -0.3191 -0.1007
  108OSM   H18F11154   4.365   3.608   9.672  0.4965 -0.5686 -0.2228
  108OSM   H18G11155   4.253   3.558   9.548 -1.4941  0.4691  1.3127
  108OSM   H18H11156   4.348   3.704   9.517 -1.0828 -0.7230 -1.0064
  109OSM      N11157   2.780   1.162  10.741  0.1446  0.1787  0.0921
  109OSM    C1511158   2.914   1.109  10.698  0.4832 -0.2267  0.8434
  109OSM   H15A11159   2.944   1.020  10.753  1.9570 -0.4199 -0.2343
  109OSM   H15B11160   2.985   1.188  10.718 -0.4512  1.4266 -1.8611
  109OSM   H15C11161   2.919   1.098  10.591  0.2319 -0.6400  0.8689
  109OSM    C1411162   2.679   1.055  10.725 -0.2406  0.2632 -0.6554
  109OSM   H14A11163   2.684   1.012  10.626 -0.5243 -1.4134  0.0377
  109OSM   H14B11164   2.580   1.099  10.729 -1.1613 -1.3761 -2.9659
  109OSM   H14C11165   2.704   0.978  10.796  4.0014  0.9946 -1.0646
  109OSM    C1311166   2.782   1.195  10.887  0.1010 -0.0475 -0.3603
  109OSM   H13A11167   2.705   1.268  10.909  0.0167  0.3826 -1.9598
  109OSM   H13B11168   2.871   1.252  10.912  1.0810 -1.5882 -0.2194
  109OSM   H13C11169   2.780   1.102  10.941 -1.4447  0.8941  1.3212
  109OSM    C1211170   2.732   1.280  10.659 -0.2336  0.0299  0.6420
  109OSM   H12A11171   2.727   1.249  10.556 -0.3602 -1.9133  1.1801
  109OSM   H12B11172   2.806   1.359  10.654 -0.5546  0.2330 -1.5006
  109OSM    C1111173   2.599   1.349  10.695 -0.6251 -0.2851  0.4537
  109OSM   H11A11174   2.514   1.278  10.687 -0.5323 -0.1555 -2.9608
  109OSM   H11B11175   2.586   1.427  10.617  1.5790  0.2106  0.5086
  109OSM      P11176   2.663   1.550  10.841  0.1114  0.1026 -0.3192
  109OSM    O1311177   2.625   1.596  10.972 -0.3650 -0.7661 -0.4294
  109OSM    O1411178   2.804   1.550  10.810 -0.3882 -0.6185 -0.0630
  109OSM    O1111179   2.585   1.624  10.729  0.1091 -0.4279  0.2033
  109OSM    O1211180   2.605   1.402  10.826  0.2620 -0.5496  0.0592
  109OSM    C1S11181   2.660   1.694  10.625  0.7729  0.4224 -0.1124
  109OSM    H1S11182   2.710   1.617  10.562 -0.0572  0.1116 -0.4042
  109OSM    H1T11183   2.736   1.759  10.673  1.4514 -1.1689  1.0849
  109OSM     NF11184   2.641   1.846  10.428 -0.5218  0.2273 -0.5221
  109OSM    HNF11185   2.683   1.936  10.419 -0.9131  0.4123 -0.5087
  109OSM    C2S11186   2.571   1.805  10.550 -0.1068  0.0696 -0.2920
  109OSM    H2S11187   2.477   1.760  10.512 -0.0641  1.4450 -2.1271
  109OSM    C3S11188   2.517   1.908  10.651 -0.2495 -0.2572  0.2392
  109OSM    H3S11189   2.604   1.951  10.705 -1.5578  0.0180  2.2245
  109OSM     O311190   2.444   1.859  10.763  0.4697  0.2349  0.3209
  109OSM    HO311191   2.442   1.763  10.753  0.8320  0.3803 -1.3517
  109OSM    C4S11192   2.437   2.014  10.581  0.0675 -0.7319 -0.7794
  109OSM    H4S11193   2.493   2.109  10.575 -0.9856 -0.0088  0.2900
  109OSM    C5S11194   2.307   2.005  10.542 -0.1770  0.2035  0.2019
  109OSM    H5S11195   2.245   1.922  10.579 -0.8582 -0.1268 -1.5701
  109OSM    C6S11196   2.236   2.112  10.463 -0.7172 -0.1870  0.1828
  109OSM    H6S11197   2.295   2.206  10.474  1.7479 -1.4710 -1.1228
  109OSM    H6T11198   2.132   2.126  10.499 -1.1106  0.3671 -1.0924
  109OSM    C7S11199   2.221   2.084  10.311  0.4370 -0.1993 -0.6257
  109OSM    H7S11200   2.148   2.002  10.293  0.4968 -0.2455 -0.6605
  109OSM    H7T11201   2.312   2.027  10.282  0.4531  0.0980 -1.1787
  109OSM    C8S11202   2.197   2.202  10.223 -0.5196 -0.0346 -0.1645
  109OSM    H8S11203   2.212   2.292  10.286 -1.5358 -0.3302  0.5171
  109OSM    H8T11204   2.088   2.211  10.207 -0.2392  1.6687 -1.4300
  109OSM    C9S11205   2.293   2.212  10.103 -0.6182  0.3152 -0.8325
  109OSM    H9S11206   2.299   2.108  10.066  0.5634 -0.0660  0.3558
  109OSM    H9T11207   2.394   2.235  10.143 -0.6613 -2.4167  1.0737
  109OSM   C10S11208   2.242   2.298   9.987  0.2232 -0.2956  0.6642
  109OSM   H10S11209   2.252   2.406  10.014  0.9571 -0.3684  0.7124
  109OSM   H10T11210   2.133   2.283   9.973 -0.1580  3.1382 -1.1392
  109OSM   C11S11211   2.302   2.271   9.843  0.5123  0.6408  0.1596
  109OSM   H11S11212   2.319   2.161   9.835 -0.9587  0.2683  1.6381
  109OSM   H11T11213   2.407   2.302   9.857  0.5904  0.1578  0.6679
  109OSM   C12S11214   2.222   2.320   9.726  0.0847 -0.4709  0.6144
  109OSM   H12S11215   2.199   2.428   9.736 -1.3505 -0.3875 -2.4597
  109OSM   H12T11216   2.131   2.257   9.721 -1.1800  1.2445  1.3471
  109OSM   C13S11217   2.293   2.311   9.588 -0.2173 -0.6324  0.0285
  109OSM   H13S11218   2.295   2.201   9.570 -2.5243 -0.6268 -0.5267
  109OSM   H13T11219   2.392   2.354   9.610  0.7623 -3.3642  1.5238
  109OSM   C14S11220   2.226   2.388   9.473 -0.4130  0.2860 -0.3065
  109OSM   H14S11221   2.246   2.496   9.485 -0.3276  0.2259  0.1346
  109OSM   H14T11222   2.115   2.376   9.470 -0.3002 -0.7336 -1.4162
  109OSM   C15S11223   2.292   2.331   9.344  0.0433 -0.4841  0.3944
  109OSM   H15S11224   2.290   2.221   9.361  2.6042 -0.3944  1.7840
  109OSM   H15T11225   2.395   2.372   9.342 -1.1905  3.0042  1.3029
  109OSM   C16S11226   2.208   2.373   9.211 -0.9909 -0.1991 -0.9765
  109OSM   H16S11227   2.103   2.339   9.222 -1.4876  1.0105 -1.8769
  109OSM   H16T11228   2.256   2.314   9.130  1.1211 -0.8204  0.6238
  109OSM   C17S11229   2.226   2.516   9.169 -0.0358 -0.3294 -0.0958
  109OSM   H17S11230   2.332   2.539   9.144  0.0813  0.4636  1.0225
  109OSM   H17T11231   2.215   2.577   9.261  0.6512  0.1230 -0.3027
  109OSM   C18S11232   2.139   2.551   9.052 -0.5040  0.1807 -0.5077
  109OSM   H18S11233   2.141   2.661   9.034 -0.2690  0.6227  1.8910
  109OSM   H18T11234   2.040   2.505   9.069  1.1416 -3.2555  0.5250
  109OSM   H18U11235   2.179   2.503   8.960 -1.5753  0.5694 -1.1952
  109OSM    C1F11236   2.653   1.756  10.328 -0.3459  1.1648  0.1738
  109OSM     OF11237   2.605   1.645  10.339  0.3921 -0.1678  0.2556
  109OSM    C2F11238   2.731   1.801  10.206  0.4767 -0.1797 -0.1492
  109OSM    H2F11239   2.839   1.802  10.233  0.4094 -0.8731  0.1942
  109OSM    H2G11240   2.689   1.900  10.181 -0.5430 -0.6496 -0.3367
  109OSM    C3F11241   2.710   1.712  10.080  0.9556 -0.5538  0.5433
  109OSM    H3F11242   2.603   1.709  10.050  0.5836 -0.3534  1.7926
  109OSM    H3G11243   2.737   1.606  10.102 -0.7348 -0.9882  0.6594
  109OSM    C4F11244   2.802   1.741   9.965  0.0133  0.3603 -0.1028
  109OSM    H4F11245   2.906   1.738  10.005 -0.0209  0.4580 -0.0033
  109OSM    H4G11246   2.783   1.843   9.925 -0.0819 -0.2109 -1.5690
  109OSM    C5F11247   2.781   1.647   9.847  0.4209  0.3520 -0.5083
  109OSM    H5F11248   2.677   1.609   9.850  0.2297  0.8987 -0.1986
  109OSM    H5G11249   2.855   1.565   9.858  0.0774  0.2737  1.8537
  109OSM    C6F11250   2.802   1.715   9.707  0.4190  0.4980  0.5564
  109OSM    H6F11251   2.904   1.758   9.711  0.6241 -0.0484  1.1765
  109OSM    H6G11252   2.722   1.792   9.694  1.2245  1.4705  1.2011
  109OSM    C7F11253   2.800   1.611   9.598  0.1112 -0.1869 -0.1657
  109OSM    H7F11254   2.736   1.530   9.637  0.8858  0.1598  1.9838
  109OSM    H7G11255   2.903   1.570   9.589 -0.6676 -1.7889 -2.7916
  109OSM    C8F11256   2.740   1.667   9.466 -0.0882  0.0403  0.2567
  109OSM    H8F11257   2.633   1.691   9.480 -0.4938 -1.7802  0.5126
  109OSM    H8G11258   2.738   1.579   9.397  0.7876 -0.9466  1.4467
  109OSM    C9F11259   2.811   1.792   9.411  1.0513  0.0399 -0.4012
  109OSM    H9F11260   2.839   1.868   9.486  1.9654  0.1909 -0.8849
  109OSM   C10F11261   2.865   1.819   9.284  0.8403 -0.0120 -0.0141
  109OSM   H10F11262   2.903   1.921   9.269 -1.2941  0.9800  0.8544
  109OSM   C11F11263   2.843   1.722   9.167 -0.4837 -0.4705  0.9223
  109OSM   H11F11264   2.831   1.619   9.207 -0.0607 -0.3614  1.3485
  109OSM   H11G11265   2.933   1.717   9.102 -0.0155  0.0184  1.5165
  109OSM   C12F11266   2.712   1.748   9.089 -0.4985 -0.0111  1.0412
  109OSM   H12F11267   2.627   1.745   9.161 -1.1901 -1.9792  0.2187
  109OSM   H12G11268   2.712   1.658   9.023  0.8470  0.1633  0.7735
  109OSM   C13F11269   2.712   1.867   8.997 -0.5256  0.4084 -0.6200
  109OSM   H13F11270   2.721   1.966   9.047  1.2748 -0.1192  0.2004
  109OSM   H13G11271   2.624   1.859   8.930 -1.2317  0.0194  0.3372
  109OSM   C14F11272   2.830   1.862   8.899  0.0255 -0.4325 -0.2883
  109OSM   H14F11273   2.832   1.755   8.869 -1.4373  0.3089 -3.4635
  109OSM   H14G11274   2.928   1.900   8.937 -0.6711 -0.3053  1.4558
  109OSM   C15F11275   2.801   1.927   8.763 -0.3138 -0.0575 -0.2898
  109OSM   H15F11276   2.694   1.915   8.740 -0.0698 -0.1568 -1.3936
  109OSM   H15G11277   2.863   1.876   8.686 -1.2023 -2.1733  0.3310
  109OSM   C16F11278   2.839   2.078   8.773 -0.3395  0.9581  0.0739
  109OSM   H16F11279   2.948   2.084   8.795 -0.1568  1.6930 -0.9753
  109OSM   H16G11280   2.789   2.121   8.862  0.2645  0.1098  0.8465
  109OSM   C17F11281   2.813   2.154   8.645 -0.3783 -0.5055  0.1907
  109OSM   H17F11282   2.844   2.261   8.648  2.4510 -1.0726 -2.8746
  109OSM   H17G11283   2.704   2.150   8.621 -0.0399 -0.1923 -1.5332
  109OSM   C18F11284   2.893   2.104   8.517 -0.3193 -0.2560 -1.1984
  109OSM   H18F11285   2.998   2.123   8.546 -0.5827  2.7207 -1.8247
  109OSM   H18G11286   2.880   2.158   8.420 -2.4178  1.5200 -0.0288
  109OSM   H18H11287   2.881   1.994   8.506  0.3285 -0.5503  0.7135
  110OSM      N11288   4.524   1.785  10.809 -0.4974 -0.5553  0.4817
  110OSM    C1511289   4.607   1.666  10.775 -0.0095 -0.0611  0.1082
  110OSM   H15A11290   4.645   1.608  10.857  0.0657  0.1019  0.1895
  110OSM   H15B11291   4.687   1.681  10.703 -1.6461 -2.7818 -2.5044
  110OSM   H15C11292   4.549   1.590  10.726  0.0389 -0.3362  0.4773
  110OSM    C1411293   4.454   1.836  10.692  0.0020 -0.0599  0.6601
  110OSM   H14A11294   4.380   1.767  10.653  1.4711 -0.3567 -1.8374
  110OSM   H14B11295   4.522   1.855  10.610  1.2468  0.3223  1.7653
  110OSM   H14C11296   4.393   1.921  10.720 -1.5443 -0.1540 -2.0580
  110OSM    C1311297   4.434   1.736  10.916  0.6473  0.1336 -0.2003
  110OSM   H13A11298   4.369   1.819  10.941  1.3645  1.0959 -1.3943
  110OSM   H13B11299   4.496   1.713  11.001 -2.3307  1.6185  2.5814
  110OSM   H13C11300   4.379   1.646  10.893  0.9665  0.3203 -1.8710
  110OSM    C1211301   4.617   1.891  10.870  0.7502 -0.6073 -0.0884
  110OSM   H12A11302   4.582   1.992  10.855 -0.5821 -1.3190 -2.0321
  110OSM   H12B11303   4.701   1.904  10.804 -1.5232  0.6937 -2.9277
  110OSM    C1111304   4.682   1.866  10.999  0.0253  0.8250 -0.2899
  110OSM   H11A11305   4.594   1.848  11.064 -1.8467  1.6543 -2.4408
  110OSM   H11B11306   4.722   1.964  11.034  0.7141  0.2812  0.4514
  110OSM      P11307   4.917   1.782  10.944  0.0840  0.1510 -0.2132
  110OSM    O1311308   4.983   1.895  11.017 -0.0173 -0.0247 -0.3928
  110OSM    O1411309   4.988   1.649  10.937  0.6354  0.1844  0.3451
  110OSM    O1111310   4.887   1.837  10.798 -0.3686 -0.0717 -0.0991
  110OSM    O1211311   4.768   1.756  10.996 -0.2064 -0.0265 -0.2882
  110OSM    C1S11312   4.929   1.757  10.687 -0.0950  0.0849 -0.4270
  110OSM    H1S11313   4.875   1.659  10.685 -0.3636  0.1989  0.4245
  110OSM    H1T11314   5.038   1.741  10.699 -0.0287 -0.2781 -1.4679
  110OSM     NF11315   4.932   1.732  10.440 -0.4867  0.2101 -0.7721
  110OSM    HNF11316   5.008   1.742  10.377 -1.4117 -0.8002 -2.1044
  110OSM    C2S11317   4.919   1.827  10.552 -0.5039  0.5158  0.9813
  110OSM    H2S11318   4.821   1.878  10.538  0.0798  1.5064  0.5084
  110OSM    C3S11319   5.025   1.936  10.550  0.2058  0.0804  0.0191
  110OSM    H3S11320   5.128   1.897  10.543  0.5289  0.4630  1.9923
  110OSM     O311321   5.012   2.021  10.664  0.0762  0.3373 -0.1097
  110OSM    HO311322   4.963   1.966  10.725  1.7459  1.4579  2.3643
  110OSM    C4S11323   5.025   2.015  10.417  0.4560 -0.6733 -0.0439
  110OSM    H4S11324   5.092   1.979  10.338  0.9365  1.2471 -0.5601
  110OSM    C5S11325   4.944   2.123  10.393  0.0159 -0.2869  0.1103
  110OSM    H5S11326   4.859   2.143  10.460  0.7212 -1.3673  1.3883
  110OSM    C6S11327   4.924   2.197  10.263 -0.1408 -0.0107  0.6753
  110OSM    H6S11328   4.967   2.299  10.277 -2.8605  0.8818  3.8653
  110OSM    H6T11329   4.816   2.222  10.255  0.0997  0.8172 -0.2877
  110OSM    C7S11330   4.962   2.137  10.123 -0.2659 -0.4529 -0.5633
  110OSM    H7S11331   4.911   2.038  10.121 -0.8731 -0.1655  0.2847
  110OSM    H7T11332   5.071   2.126  10.104 -0.1045 -0.1673  0.1875
  110OSM    C8S11333   4.906   2.210  10.003  0.4783 -0.2999 -0.2760
  110OSM    H8S11334   4.950   2.312  10.001  3.2305 -1.4086 -0.3478
  110OSM    H8T11335   4.796   2.218  10.016  0.4169  2.0265 -1.7167
  110OSM    C9S11336   4.931   2.123   9.871 -0.3209 -0.9027  0.0968
  110OSM    H9S11337   4.930   2.013   9.890 -0.3105 -0.8343  0.5052
  110OSM    H9T11338   5.026   2.166   9.834 -0.9776  0.7836  0.2802
  110OSM   C10S11339   4.815   2.152   9.771 -0.4230 -1.4227  0.2840
  110OSM   H10S11340   4.827   2.260   9.748  0.6805 -2.2510 -3.8082
  110OSM   H10T11341   4.718   2.135   9.821 -1.1879  0.0264 -0.6197
  110OSM   C11S11342   4.809   2.095   9.629 -0.0979 -0.2921  0.0714
  110OSM   H11S11343   4.702   2.111   9.603 -0.2752 -1.6001 -0.0553
  110OSM   H11T11344   4.819   1.985   9.620 -2.3921 -0.3758 -3.4711
  110OSM   C12S11345   4.896   2.170   9.523  0.7269  0.0999  0.5552
  110OSM   H12S11346   4.999   2.135   9.547  0.4682 -1.6716 -0.7420
  110OSM   H12T11347   4.889   2.279   9.542  1.8842  0.1700  0.6779
  110OSM   C13S11348   4.862   2.129   9.375 -1.0303 -0.0774 -0.2633
  110OSM   H13S11349   4.788   2.202   9.336  0.5086  2.5010  1.3660
  110OSM   H13T11350   4.824   2.025   9.388 -2.0211  0.0292 -1.9774
  110OSM   C14S11351   4.985   2.152   9.281 -0.3062  0.4166  0.5156
  110OSM   H14S11352   5.062   2.079   9.314 -0.2191  0.7587  1.0858
  110OSM   H14T11353   5.026   2.251   9.310 -3.0518  2.6266 -2.3882
  110OSM   C15S11354   4.948   2.132   9.140 -0.4553 -0.3540 -0.3025
  110OSM   H15S11355   4.867   2.206   9.123  0.3616  0.6018 -0.1233
  110OSM   H15T11356   4.895   2.037   9.122 -0.1701 -0.1760 -2.4280
  110OSM   C16S11357   5.063   2.157   9.046  0.1303 -0.1702 -0.1810
  110OSM   H16S11358   5.131   2.072   9.069 -0.3337 -0.5340 -0.1476
  110OSM   H16T11359   5.111   2.250   9.080  2.0960 -1.9063  2.1172
  110OSM   C17S11360   5.046   2.145   8.900 -0.0996  0.2745  0.3520
  110OSM   H17S11361   4.965   2.217   8.876 -0.0871 -0.2709 -1.4436
  110OSM   H17T11362   5.014   2.045   8.864  4.1741 -1.4525  0.7545
  110OSM   C18S11363   5.161   2.194   8.816 -0.4362  0.4033  0.1635
  110OSM   H18S11364   5.129   2.212   8.711 -1.2264  2.7242  0.7528
  110OSM   H18T11365   5.240   2.116   8.807 -0.7253 -0.0569  1.3842
  110OSM   H18U11366   5.210   2.286   8.854 -0.1840  1.7212 -3.0802
  110OSM    C1F11367   4.842   1.629  10.425 -0.3065 -0.5002  0.0174
  110OSM     OF11368   4.752   1.603  10.505  0.0822  0.1208 -0.4918
  110OSM    C2F11369   4.855   1.545  10.300  0.2821  0.5490  0.8288
  110OSM    H2F11370   4.961   1.514  10.296 -0.4408 -2.1372  1.0910
  110OSM    H2G11371   4.827   1.604  10.210 -1.2805  2.1765  2.3015
  110OSM    C3F11372   4.777   1.408  10.292 -0.1727  0.0967  0.1324
  110OSM    H3F11373   4.669   1.435  10.292  0.0804  1.2254 -0.6940
  110OSM    H3G11374   4.815   1.345  10.375  1.2087 -2.8968 -2.5607
  110OSM    C4F11375   4.816   1.322  10.162 -0.0704 -0.0369  0.2750
  110OSM    H4F11376   4.924   1.341  10.142 -0.1032  0.8508  0.8730
  110OSM    H4G11377   4.756   1.367  10.080  1.1110  1.9833  0.4520
  110OSM    C5F11378   4.804   1.168  10.178 -0.0094  0.5428  0.9700
  110OSM    H5F11379   4.716   1.139  10.238 -0.2642  0.8197  0.7318
  110OSM    H5G11380   4.894   1.143  10.238  0.0182 -0.3920  0.5602
  110OSM    C6F11381   4.828   1.085  10.044  0.5743 -0.3193 -0.2847
  110OSM    H6F11382   4.826   0.976  10.066 -1.8649  0.3274  3.7692
  110OSM    H6G11383   4.927   1.125  10.012  1.6390 -0.3481  2.6090
  110OSM    C7F11384   4.728   1.114   9.931  1.1475 -0.1234 -1.0873
  110OSM    H7F11385   4.702   1.222   9.928 -0.3362 -0.4805 -1.7584
  110OSM    H7G11386   4.631   1.074   9.967  1.8516  0.9609  2.3454
  110OSM    C8F11387   4.784   1.079   9.792 -0.5609  0.4053 -0.6918
  110OSM    H8F11388   4.709   1.059   9.713 -2.1240 -2.7720  1.3920
  110OSM    H8G11389   4.848   0.990   9.810  1.5309  1.8943 -0.3267
  110OSM    C9F11390   4.874   1.193   9.741  0.0503  0.6732 -0.1023
  110OSM    H9F11391   4.982   1.188   9.760  0.9986  0.5910 -4.4100
  110OSM   C10F11392   4.837   1.305   9.681 -0.1359 -0.3990 -0.1850
  110OSM   H10F11393   4.911   1.382   9.655  0.6613 -0.3796  1.9350
  110OSM   C11F11394   4.698   1.343   9.635 -0.4358 -0.3611 -0.1213
  110OSM   H11F11395   4.694   1.447   9.674  0.1617 -0.6505  0.7593
  110OSM   H11G11396   4.621   1.276   9.678  0.1517 -1.3610 -0.5953
  110OSM   C12F11397   4.683   1.357   9.485 -0.0446 -0.7790  0.4321
  110OSM   H12F11398   4.579   1.391   9.466 -0.9422 -3.9527 -0.8127
  110OSM   H12G11399   4.681   1.264   9.426  0.6435  0.3056 -1.3862
  110OSM   C13F11400   4.791   1.446   9.426 -0.1987 -0.7104  0.4673
  110OSM   H13F11401   4.892   1.400   9.420 -0.5090 -1.2007 -2.0098
  110OSM   H13G11402   4.791   1.544   9.478 -1.5372  0.4647 -1.6146
  110OSM   C14F11403   4.759   1.481   9.279 -0.2665  0.3680  0.2219
  110OSM   H14F11404   4.666   1.541   9.276  0.5106  1.5808 -2.3005
  110OSM   H14G11405   4.741   1.388   9.221  0.5352 -0.2979  1.0009
  110OSM   C15F11406   4.873   1.562   9.220  0.1944 -0.0929  0.2451
  110OSM   H15F11407   4.972   1.515   9.235 -0.2516 -1.1695 -0.0557
  110OSM   H15G11408   4.878   1.665   9.262  1.1282 -0.6044  1.4193
  110OSM   C16F11409   4.844   1.590   9.075  0.5990  1.0266  0.3318
  110OSM   H16F11410   4.743   1.635   9.064  0.7176  0.8909 -1.6642
  110OSM   H16G11411   4.845   1.504   9.004 -1.8630  1.5757 -0.4678
  110OSM   C17F11412   4.944   1.695   9.021  0.4735 -0.3357  0.2273
  110OSM   H17F11413   5.046   1.656   9.040  0.1683 -0.7641  1.0500
  110OSM   H17G11414   4.956   1.792   9.074  0.3856  0.2704 -0.8383
  110OSM   C18F11415   4.936   1.740   8.877 -0.0113  0.2378  0.1151
  110OSM   H18F11416   4.845   1.803   8.864  0.3241  0.4842 -1.2448
  110OSM   H18G11417   4.910   1.656   8.809 -0.0439 -0.3277  0.8138
  110OSM   H18H11418   5.019   1.806   8.847  0.3998  0.9196  2.5476
  111OSM      N11419   5.620   5.775  10.717 -0.3043 -0.9756 -0.1416
  111OSM    C1511420   5.709   5.651  10.722 -0.4097  0.5291  0.6671
  111OSM   H15A11421   5.744   5.641  10.823 -2.5998 -3.0625  1.2463
  111OSM   H15B11422   5.787   5.656  10.647 -0.4914  0.4349  0.5770
  111OSM   H15C11423   5.638   5.570  10.712 -1.5501  1.4552  1.0391
  111OSM    C1411424   5.712   5.890  10.730  0.1757  0.2391 -0.2186
  111OSM   H14A11425   5.753   5.921  10.635 -0.6608  1.7664 -0.1063
  111OSM   H14B11426   5.796   5.862  10.792  0.5410 -1.4087 -1.3796
  111OSM   H14C11427   5.659   5.976  10.767 -0.2070 -0.4709  0.9243
  111OSM    C1311428   5.560   5.792  10.579  0.5355 -0.2375 -0.0187
  111OSM   H13A11429   5.494   5.878  10.582  1.1532  0.2360  0.1961
  111OSM   H13B11430   5.498   5.706  10.558  0.9309 -0.0106 -2.2842
  111OSM   H13C11431   5.630   5.803  10.498 -0.1700  0.4541 -0.5443
  111OSM    C1211432   5.519   5.772  10.829 -0.4981  0.1080  0.0276
  111OSM   H12A11433   5.586   5.761  10.912  2.0796 -1.1080 -2.0774
  111OSM   H12B11434   5.461   5.683  10.813  1.2328 -1.1921  0.6923
  111OSM    C1111435   5.426   5.903  10.851 -0.0720  1.0247 -0.0972
  111OSM   H11A11436   5.492   5.983  10.892  0.0341 -0.3035  2.5507
  111OSM   H11B11437   5.344   5.872  10.920 -1.0316  1.4260 -1.0244
  111OSM      P11438   5.312   6.072  10.683 -0.0706  0.1227  0.5149
  111OSM    O1311439   5.180   6.073  10.610  0.0632  0.5776  0.0090
  111OSM    O1411440   5.324   6.165  10.799 -0.7184 -0.7743 -0.6486
  111OSM    O1111441   5.430   6.117  10.579 -0.4618  0.1868  0.4215
  111OSM    O1211442   5.355   5.930  10.730 -0.2344  0.2376  0.1231
  111OSM    C1S11443   5.391   6.155  10.445 -0.0081 -0.1104  0.0301
  111OSM    H1S11444   5.313   6.233  10.439  1.1866  1.1446  0.4082
  111OSM    H1T11445   5.359   6.058  10.399  1.3044 -1.0569  1.0229
  111OSM     NF11446   5.459   6.213  10.217  0.1805  0.3985  0.6021
  111OSM    HNF11447   5.471   6.139  10.152  3.8194  0.3716  1.1023
  111OSM    C2S11448   5.506   6.200  10.349  0.0930  0.1885 -0.0178
  111OSM    H2S11449   5.536   6.297  10.395  1.2431 -0.2177  0.1080
  111OSM    C3S11450   5.628   6.103  10.359 -0.6311 -0.1520  1.0434
  111OSM    H3S11451   5.583   6.002  10.352  1.1672 -0.9592  0.6647
  111OSM     O311452   5.701   6.118  10.475 -0.1162 -0.7454 -0.1858
  111OSM    HO311453   5.648   6.162  10.542  0.9423 -1.8690  1.4755
  111OSM    C4S11454   5.717   6.101  10.232 -0.2369  0.4017  0.0709
  111OSM    H4S11455   5.684   6.026  10.158 -0.2972 -1.1674  1.6104
  111OSM    C5S11456   5.831   6.171  10.214  0.7444 -0.4873  0.3348
  111OSM    H5S11457   5.866   6.230  10.300 -0.9146  2.6087 -0.9553
  111OSM    C6S11458   5.911   6.167  10.086 -0.1183 -0.1182  0.4643
  111OSM    H6S11459   6.017   6.145  10.112  0.9846  1.0322 -2.6206
  111OSM    H6T11460   5.904   6.266  10.036 -0.3818  0.0199  0.7720
  111OSM    C7S11461   5.862   6.075   9.972  0.6767 -0.1389  0.8174
  111OSM    H7S11462   5.760   6.096   9.932  1.6590  2.2218 -0.6689
  111OSM    H7T11463   5.868   5.966   9.992  0.8023 -0.2468  0.2147
  111OSM    C8S11464   5.953   6.081   9.850  0.1369 -0.0738  0.1557
  111OSM    H8S11465   6.032   6.004   9.866 -1.1037 -1.2571  0.8374
  111OSM    H8T11466   5.994   6.183   9.858 -0.2896  0.1532 -0.4799
  111OSM    C9S11467   5.883   6.040   9.718  0.3523 -0.6189  0.3410
  111OSM    H9S11468   5.772   6.039   9.726  0.2378  0.5062 -0.8244
  111OSM    H9T11469   5.917   5.935   9.708  4.8126  0.7350 -0.6770
  111OSM   C10S11470   5.933   6.123   9.599  0.2229 -0.1559 -0.2132
  111OSM   H10S11471   6.044   6.121   9.586  0.2912  0.2067  0.2759
  111OSM   H10T11472   5.901   6.226   9.623  2.9249  0.4165  1.3845
  111OSM   C11S11473   5.869   6.080   9.471  0.1591 -0.5375  0.2971
  111OSM   H11S11474   5.760   6.083   9.493  0.2039  1.0219  0.3842
  111OSM   H11T11475   5.889   5.973   9.447 -0.2708 -0.6255  0.3179
  111OSM   C12S11476   5.909   6.169   9.349 -0.1443 -0.4546  0.6143
  111OSM   H12S11477   6.020   6.176   9.343 -0.1358  1.2558  2.1016
  111OSM   H12T11478   5.868   6.269   9.373  0.1830 -0.1515 -0.0613
  111OSM   C13S11479   5.855   6.125   9.215  0.0256  0.1907  0.4581
  111OSM   H13S11480   5.745   6.134   9.227 -0.2063  0.2169 -1.4775
  111OSM   H13T11481   5.877   6.018   9.194 -0.3632  0.0288  0.8628
  111OSM   C14S11482   5.932   6.193   9.097  0.1185  0.2208  0.5024
  111OSM   H14S11483   6.041   6.172   9.104 -0.0397 -0.7045  0.2508
  111OSM   H14T11484   5.915   6.303   9.090 -0.3820  0.1023 -0.2547
  111OSM   C15S11485   5.889   6.144   8.957  0.5981  0.0772 -0.1917
  111OSM   H15S11486   5.778   6.146   8.950  0.5194 -0.8034  0.5556
  111OSM   H15T11487   5.917   6.036   8.951 -0.1282 -0.0580 -1.4709
  111OSM   C16S11488   5.972   6.205   8.842  0.5052  0.4031  0.6427
  111OSM   H16S11489   5.972   6.141   8.751  0.2371  1.8048 -0.3731
  111OSM   H16T11490   6.078   6.208   8.875 -0.2001  2.3934  2.9827
  111OSM   C17S11491   5.933   6.346   8.798  0.3653  0.2457  0.3255
  111OSM   H17S11492   5.987   6.374   8.705  0.4603  0.5065  0.4565
  111OSM   H17T11493   5.954   6.411   8.886 -0.2034 -0.7433  1.2100
  111OSM   C18S11494   5.785   6.356   8.758 -0.0526  0.1804 -0.6767
  111OSM   H18S11495   5.764   6.262   8.703  1.5966 -0.1531 -0.7861
  111OSM   H18T11496   5.763   6.450   8.704 -0.3176  1.1290  1.0104
  111OSM   H18U11497   5.710   6.369   8.839 -1.1268 -0.2595 -1.5752
  111OSM    C1F11498   5.375   6.301  10.164  1.0095 -0.4258  0.1196
  111OSM     OF11499   5.310   6.383  10.233  0.4007 -0.2148 -0.3118
  111OSM    C2F11500   5.345   6.302  10.015 -0.2051  0.4127  0.2182
  111OSM    H2F11501   5.243   6.262   9.999 -1.1867  3.2696 -1.2951
  111OSM    H2G11502   5.407   6.226   9.962  0.0203  0.9043 -0.2262
  111OSM    C3F11503   5.333   6.452   9.961 -0.0665  0.3699  1.0483
  111OSM    H3F11504   5.263   6.510  10.025 -3.3812 -2.6546  0.4775
  111OSM    H3G11505   5.296   6.437   9.857 -0.4266 -0.2986  1.2687
  111OSM    C4F11506   5.467   6.520   9.961 -0.0733  0.3199  0.0977
  111OSM    H4F11507   5.506   6.513  10.064 -0.0066  0.2346  0.0670
  111OSM    H4G11508   5.447   6.626   9.934  1.6067  1.1734  1.9711
  111OSM    C5F11509   5.574   6.469   9.858  0.2352 -0.0467  0.1968
  111OSM    H5F11510   5.602   6.367   9.892  1.9611 -1.0825 -3.8424
  111OSM    H5G11511   5.662   6.533   9.880  1.4493 -2.2446  2.2679
  111OSM    C6F11512   5.530   6.457   9.715  1.1625 -0.4131  0.5964
  111OSM    H6F11513   5.482   6.550   9.677  1.3972 -0.2803  0.6237
  111OSM    H6G11514   5.449   6.384   9.694 -0.3488  1.5517 -0.6814
  111OSM    C7F11515   5.650   6.437   9.624  0.0948  0.4151 -0.1330
  111OSM    H7F11516   5.692   6.335   9.639  1.0281  0.6325 -1.0987
  111OSM    H7G11517   5.731   6.509   9.649  1.5486 -1.0204 -0.5195
  111OSM    C8F11518   5.621   6.454   9.475  0.0632 -0.0362 -0.3640
  111OSM    H8F11519   5.719   6.439   9.425  0.1673 -3.4332  0.5944
  111OSM    H8G11520   5.581   6.555   9.454  1.2528  0.3829 -0.6871
  111OSM    C9F11521   5.533   6.333   9.434 -0.2265 -0.7615  0.1865
  111OSM    H9F11522   5.509   6.261   9.513  1.4243 -1.4518  0.1161
  111OSM   C10F11523   5.480   6.305   9.315  0.0519 -0.0804 -0.0273
  111OSM   H10F11524   5.397   6.233   9.309 -2.2610  2.3618  0.7541
  111OSM   C11F11525   5.503   6.391   9.196  0.3545 -0.1721  0.5476
  111OSM   H11F11526   5.514   6.318   9.113 -3.2155 -1.3740  0.9620
  111OSM   H11G11527   5.600   6.445   9.199  1.0918 -1.1106 -2.5246
  111OSM   C12F11528   5.404   6.507   9.182  0.4044  0.5006  1.1050
  111OSM   H12F11529   5.413   6.579   9.266  2.6353  0.3300  1.0666
  111OSM   H12G11530   5.299   6.470   9.177  0.4201  0.3810 -3.7199
  111OSM   C13F11531   5.423   6.577   9.049  0.5682  1.3106  0.5566
  111OSM   H13F11532   5.510   6.644   9.062  0.5724  1.3460  0.3565
  111OSM   H13G11533   5.332   6.641   9.054 -0.8492 -0.6492  1.2693
  111OSM   C14F11534   5.417   6.493   8.918 -0.5683  0.1816 -0.5497
  111OSM   H14F11535   5.346   6.408   8.925 -3.7453  2.7600  0.9890
  111OSM   H14G11536   5.516   6.446   8.900 -0.8907 -0.5325 -0.4948
  111OSM   C15F11537   5.392   6.563   8.785 -0.4352  0.5598  0.2530
  111OSM   H15F11538   5.299   6.624   8.785  0.0738  1.4705  2.5357
  111OSM   H15G11539   5.393   6.479   8.712  1.4226  0.8118 -0.0646
  111OSM   C16F11540   5.506   6.652   8.749 -0.3701 -0.3334  0.0369
  111OSM   H16F11541   5.594   6.592   8.716 -0.2784 -1.4362  2.1174
  111OSM   H16G11542   5.536   6.711   8.838 -0.9611  0.2361 -0.1332
  111OSM   C17F11543   5.465   6.753   8.632 -0.1716  0.1683 -0.2854
  111OSM   H17F11544   5.538   6.835   8.614  2.3752 -1.9868 -0.4221
  111OSM   H17G11545   5.368   6.796   8.665 -1.7511 -1.6831 -2.2243
  111OSM   C18F11546   5.429   6.692   8.498 -0.1099  0.1002 -0.1865
  111OSM   H18F11547   5.412   6.766   8.417  1.3200 -1.8161 -2.3673
  111OSM   H18G11548   5.342   6.624   8.514 -0.2678  0.2644 -0.3353
  111OSM   H18H11549   5.517   6.631   8.468  0.2142  0.5895 -0.2275
  112OSM      N11550   5.292   3.697  10.471 -0.2030  0.1809  0.8848
  112OSM    C1511551   5.284   3.846  10.443  0.1357  0.2293  0.2979
  112OSM   H15A11552   5.326   3.871  10.347  1.2357  1.1222  0.9825
  112OSM   H15B11553   5.350   3.893  10.515  1.9049 -0.0383 -1.0661
  112OSM   H15C11554   5.179   3.872  10.437 -0.8027 -3.4453 -2.6709
  112OSM    C1411555   5.207   3.627  10.366  0.5616  0.2238 -0.1818
  112OSM   H14A11556   5.106   3.663  10.362  0.6808  0.5218 -4.3251
  112OSM   H14B11557   5.205   3.521  10.387  1.8937  0.2908  0.4117
  112OSM   H14C11558   5.236   3.645  10.264  1.7270 -1.8334 -0.2662
  112OSM    C1311559   5.434   3.655  10.467 -0.1044 -0.1332  0.2335
  112OSM   H13A11560   5.475   3.691  10.374  0.7328  0.8355  0.9483
  112OSM   H13B11561   5.440   3.548  10.476 -0.2440 -0.0245  1.9995
  112OSM   H13C11562   5.483   3.696  10.554 -0.4679  0.3163  0.2316
  112OSM    C1211563   5.235   3.678  10.611  0.4205 -0.0849  0.2343
  112OSM   H12A11564   5.135   3.717  10.614  0.4063  0.4090 -2.8576
  112OSM   H12B11565   5.299   3.735  10.676  1.2492  0.9748 -1.4346
  112OSM    C1111566   5.219   3.541  10.674  0.0645 -0.3113  0.8861
  112OSM   H11A11567   5.199   3.565  10.781 -1.5509 -0.7282  0.7022
  112OSM   H11B11568   5.312   3.483  10.659 -1.0911 -1.8401 -0.6336
  112OSM      P11569   4.983   3.451  10.679 -0.0778 -0.1952 -0.1673
  112OSM    O1311570   4.994   3.322  10.748 -0.6931  0.7765  0.0099
  112OSM    O1411571   4.946   3.575  10.747 -0.4204  0.2579  0.8289
  112OSM    O1111572   4.880   3.426  10.564 -0.1723 -0.2894 -0.6715
  112OSM    O1211573   5.121   3.470  10.607 -0.2480 -0.0149 -0.3454
  112OSM    C1S11574   4.912   3.464  10.429  0.0692 -0.0705  0.7535
  112OSM    H1S11575   5.003   3.410  10.396 -0.6673 -1.6379  1.2173
  112OSM    H1T11576   4.928   3.574  10.420  0.8499 -0.3028 -1.2088
  112OSM     NF11577   4.849   3.447  10.191 -1.2712 -0.3403  0.5060
  112OSM    HNF11578   4.843   3.541  10.160 -1.4200 -1.0390 -1.7642
  112OSM    C2S11579   4.798   3.431  10.325  0.7722 -0.6319 -0.1572
  112OSM    H2S11580   4.765   3.327  10.347  0.7859 -0.0970  2.9144
  112OSM    C3S11581   4.674   3.518  10.367 -0.1995 -0.4961  0.1832
  112OSM    H3S11582   4.690   3.610  10.308  2.1470  0.3114  1.9154
  112OSM     O311583   4.669   3.552  10.509 -0.1473 -0.1825 -0.1035
  112OSM    HO311584   4.752   3.513  10.537  0.8262  0.8808 -1.3942
  112OSM    C4S11585   4.543   3.457  10.321  0.1980 -0.0461  0.2885
  112OSM    H4S11586   4.514   3.468  10.215 -2.8266 -2.1043  0.7885
  112OSM    C5S11587   4.455   3.389  10.390 -1.0980  0.2551 -0.4002
  112OSM    H5S11588   4.472   3.390  10.499  1.6606  1.8576 -0.7588
  112OSM    C6S11589   4.328   3.323  10.342  0.3773  0.6640  0.1361
  112OSM    H6S11590   4.241   3.384  10.376 -0.7112 -0.8381  0.1896
  112OSM    H6T11591   4.312   3.226  10.394  0.5339  1.0528  0.9220
  112OSM    C7S11592   4.296   3.320  10.189 -0.4346  0.5918 -0.2690
  112OSM    H7S11593   4.274   3.423  10.155 -0.3284  1.7998  3.0069
  112OSM    H7T11594   4.196   3.273  10.187 -0.0032 -0.4007  0.3386
  112OSM    C8S11595   4.390   3.238  10.105  0.3096  0.1711  1.2177
  112OSM    H8S11596   4.341   3.147  10.065  2.2072 -0.7044  0.7859
  112OSM    H8T11597   4.475   3.201  10.165  1.2563  2.0385  1.0987
  112OSM    C9S11598   4.456   3.311   9.991  0.7561 -0.2840 -0.0710
  112OSM    H9S11599   4.485   3.415  10.018  0.5977 -0.3474  0.3473
  112OSM    H9T11600   4.388   3.307   9.903 -2.0197  0.0052  1.9573
  112OSM   C10S11601   4.588   3.247   9.952 -0.3769  0.8342 -0.1064
  112OSM   H10S11602   4.582   3.136   9.942  3.8196  0.0317  3.2015
  112OSM   H10T11603   4.655   3.258  10.040 -1.4082 -1.0149  0.9746
  112OSM   C11S11604   4.646   3.305   9.827 -0.6984  0.3830  0.6029
  112OSM   H11S11605   4.691   3.407   9.835 -2.3152  1.5293 -2.8086
  112OSM   H11T11606   4.556   3.307   9.761 -0.3885 -4.2054 -0.2843
  112OSM   C12S11607   4.756   3.226   9.750  0.5949  0.0643 -0.0276
  112OSM   H12S11608   4.717   3.125   9.726  0.6312 -0.1204  0.6767
  112OSM   H12T11609   4.850   3.205   9.805  1.6818 -0.9159 -2.1204
  112OSM   C13S11610   4.773   3.289   9.617 -0.2815  0.5581  0.4490
  112OSM   H13S11611   4.799   3.397   9.622  2.3642  0.1653 -2.2976
  112OSM   H13T11612   4.681   3.281   9.556 -0.5993  2.1978  0.6670
  112OSM   C14S11613   4.900   3.236   9.539 -0.1851  0.0061  0.7300
  112OSM   H14S11614   4.861   3.146   9.487 -1.5869  0.7755  0.3902
  112OSM   H14T11615   4.992   3.201   9.589  1.2306 -0.7459 -2.1771
  112OSM   C15S11616   4.940   3.332   9.430  0.2792  0.4845  0.7479
  112OSM   H15S11617   4.986   3.424   9.473  0.2860  1.4802 -1.2666
  112OSM   H15T11618   4.848   3.370   9.380 -0.4290 -2.4291 -0.3500
  112OSM   C16S11619   5.035   3.277   9.312  0.6939  0.3437 -0.2019
  112OSM   H16S11620   5.128   3.230   9.350  0.5831  0.1518 -0.1694
  112OSM   H16T11621   5.073   3.365   9.256  2.4019 -1.1271 -1.4877
  112OSM   C17S11622   4.952   3.191   9.219  0.4653  0.5349 -0.1997
  112OSM   H17S11623   4.844   3.216   9.225  0.0240 -1.2754  0.1971
  112OSM   H17T11624   4.961   3.092   9.269  0.1525  0.1648 -0.8669
  112OSM   C18S11625   4.997   3.176   9.073  0.0304 -0.3224 -0.6086
  112OSM   H18S11626   4.972   3.073   9.040 -0.7275 -0.3720  0.0836
  112OSM   H18T11627   5.106   3.192   9.060  0.3810 -2.4228 -0.5587
  112OSM   H18U11628   4.935   3.243   9.010 -1.2712 -0.5877  0.3423
  112OSM    C1F11629   4.933   3.371  10.127  0.5029 -0.1772  1.0693
  112OSM     OF11630   4.967   3.264  10.175 -0.6621  0.1479  0.0624
  112OSM    C2F11631   4.986   3.427  10.000  0.3420 -0.0254  0.2954
  112OSM    H2F11632   5.009   3.533  10.021 -1.2761  0.4761 -0.2828
  112OSM    H2G11633   4.912   3.436   9.917 -0.3399 -0.1012  0.8785
  112OSM    C3F11634   5.106   3.349   9.940  0.0762 -0.0255 -0.0030
  112OSM    H3F11635   5.076   3.243   9.921 -0.3009  0.5390 -3.0047
  112OSM    H3G11636   5.202   3.351   9.997  0.6262  1.8268 -0.9206
  112OSM    C4F11637   5.137   3.381   9.799  0.3256 -0.7014 -0.1971
  112OSM    H4F11638   5.157   3.489   9.786  0.3401 -0.8584 -1.6177
  112OSM    H4G11639   5.052   3.339   9.742 -0.1941 -1.8089  1.3110
  112OSM    C5F11640   5.265   3.307   9.751 -0.1483  0.1989 -0.4908
  112OSM    H5F11641   5.248   3.197   9.749 -1.5631  0.3616  0.7193
  112OSM    H5G11642   5.353   3.334   9.813 -0.5823 -0.6179  0.4985
  112OSM    C6F11643   5.303   3.353   9.610 -0.5727 -0.7329 -0.1799
  112OSM    H6F11644   5.312   3.464   9.608 -0.1204 -0.7692 -0.2793
  112OSM    H6G11645   5.215   3.328   9.548 -0.3408 -2.6684  0.2251
  112OSM    C7F11646   5.432   3.295   9.550  0.2486  0.0888  0.5204
  112OSM    H7F11647   5.515   3.322   9.620  1.2133  0.6250 -0.7994
  112OSM    H7G11648   5.458   3.347   9.456  1.3465 -2.1487 -0.5027
  112OSM    C8F11649   5.429   3.141   9.513  0.5296 -0.5548 -0.0778
  112OSM    H8F11650   5.361   3.131   9.426 -0.0110 -0.4150  0.3229
  112OSM    H8G11651   5.383   3.095   9.603 -0.8238  1.6689  0.4303
  112OSM    C9F11652   5.565   3.077   9.487  0.7247 -0.4454 -0.4956
  112OSM    H9F11653   5.622   3.042   9.574  1.3224  1.8963  0.1285
  112OSM   C10F11654   5.623   3.091   9.368 -0.0567  0.2305  0.3091
  112OSM   H10F11655   5.719   3.044   9.345 -0.6439 -0.8172 -0.0673
  112OSM   C11F11656   5.571   3.145   9.240  0.1736  0.1521  0.6744
  112OSM   H11F11657   5.655   3.185   9.179 -0.7407  1.2122  0.0535
  112OSM   H11G11658   5.506   3.232   9.264 -0.9178 -0.5877  0.5163
  112OSM   C12F11659   5.476   3.067   9.145  0.2392 -0.0223 -0.2548
  112OSM   H12F11660   5.395   3.017   9.203 -2.0669  1.6181 -1.8863
  112OSM   H12G11661   5.537   2.992   9.090  3.6835  0.6926  2.2640
  112OSM   C13F11662   5.384   3.152   9.055  0.7524 -0.1152 -0.3702
  112OSM   H13F11663   5.337   3.231   9.117 -0.7960 -1.6401  0.5005
  112OSM   H13G11664   5.301   3.091   9.013  0.9002  0.7030 -1.9149
  112OSM   C14F11665   5.447   3.214   8.925 -0.3854  0.1511 -0.0644
  112OSM   H14F11666   5.478   3.139   8.849 -3.1083 -1.3113  0.1088
  112OSM   H14G11667   5.538   3.263   8.965 -1.3339  1.1720  0.9040
  112OSM   C15F11668   5.360   3.325   8.873  0.5233  0.6512 -0.3934
  112OSM   H15F11669   5.329   3.389   8.957 -2.1959  1.2909 -1.7498
  112OSM   H15G11670   5.268   3.276   8.834  2.0263  0.0944 -3.5897
  112OSM   C16F11671   5.420   3.406   8.757 -0.3074  0.1952  0.2315
  112OSM   H16F11672   5.380   3.370   8.659 -0.4441  1.4803 -0.2002
  112OSM   H16G11673   5.530   3.395   8.749 -0.4703 -0.9540 -0.6986
  112OSM   C17F11674   5.369   3.550   8.757 -0.0651  0.5358 -0.0149
  112OSM   H17F11675   5.393   3.591   8.858  2.1430 -0.5660 -0.0304
  112OSM   H17G11676   5.259   3.539   8.745  0.0851  0.9513 -2.1710
  112OSM   C18F11677   5.434   3.639   8.650  0.0447 -0.3088  0.7001
  112OSM   H18F11678   5.380   3.736   8.645 -1.1059 -0.9631 -0.4587
  112OSM   H18G11679   5.421   3.588   8.552  0.9875 -0.3260  0.5747
  112OSM   H18H11680   5.542   3.660   8.664  0.5611 -1.2652 -1.4501
  113OSM      N11681   5.917   4.113  10.815 -0.1426 -0.5923 -0.5399
  113OSM    C1511682   5.914   3.971  10.871  0.6482  0.9380 -0.6333
  113OSM   H15A11683   5.891   3.977  10.976 -1.8197 -0.1269 -1.0414
  113OSM   H15B11684   6.010   3.923  10.860  0.0494 -0.2734 -0.6650
  113OSM   H15C11685   5.834   3.924  10.815  0.9424  1.8292 -1.8453
  113OSM    C1411686   5.925   4.108  10.664 -0.0822 -0.3463  0.6916
  113OSM   H14A11687   5.850   4.034  10.639  1.1895 -1.5227  0.2385
  113OSM   H14B11688   6.024   4.074  10.637  0.0802  0.5991  0.0559
  113OSM   H14C11689   5.904   4.206  10.626  0.1246 -0.7953 -0.6152
  113OSM    C1311690   5.786   4.172  10.857  0.4958  0.6436 -0.3323
  113OSM   H13A11691   5.698   4.115  10.832  0.4720  0.0105  1.1248
  113OSM   H13B11692   5.785   4.272  10.816 -1.4918 -0.3640 -3.0888
  113OSM   H13C11693   5.779   4.179  10.964  0.0813 -1.7856 -0.1642
  113OSM    C1211694   6.022   4.199  10.872  0.4610 -0.4542  0.1528
  113OSM   H12A11695   6.006   4.210  10.978  0.6108 -1.1746  0.2502
  113OSM   H12B11696   6.021   4.303  10.841 -1.8814 -0.5211 -0.2083
  113OSM    C1111697   6.168   4.149  10.852  0.3147 -0.2322 -0.0318
  113OSM   H11A11698   6.176   4.040  10.871  0.3416 -0.4773 -1.3510
  113OSM   H11B11699   6.234   4.191  10.931  0.4898 -1.9946  0.8098
  113OSM      P11700   6.278   4.303  10.675  0.4616 -0.4231 -0.7448
  113OSM    O1311701   6.168   4.400  10.678 -0.4928 -0.3909 -0.5868
  113OSM    O1411702   6.385   4.338  10.768  0.2343 -0.0568 -0.2499
  113OSM    O1111703   6.330   4.269  10.525 -0.5348 -0.3475 -0.0930
  113OSM    O1211704   6.225   4.161  10.721 -0.2078  0.3539 -0.3769
  113OSM    C1S11705   6.273   4.154  10.457 -0.0668  0.7748 -0.8095
  113OSM    H1S11706   6.163   4.147  10.476 -0.0535  1.8519 -0.2381
  113OSM    H1T11707   6.321   4.061  10.492  0.0152  0.9955 -0.3295
  113OSM     NF11708   6.195   4.087  10.230 -0.1802 -0.4581  0.0695
  113OSM    HNF11709   6.228   4.015  10.169  0.1358  0.2040 -0.5592
  113OSM    C2S11710   6.295   4.163  10.304  0.8968 -0.8824 -0.0446
  113OSM    H2S11711   6.283   4.269  10.273 -0.2509 -1.1987 -0.7544
  113OSM    C3S11712   6.433   4.115  10.269 -0.1789  0.7796 -0.4187
  113OSM    H3S11713   6.428   4.004  10.276  1.2588  0.7648  0.6031
  113OSM     O311714   6.529   4.161  10.362 -0.1010 -0.0597  0.4768
  113OSM    HO311715   6.482   4.194  10.439 -0.3687  1.2451 -0.2232
  113OSM    C4S11716   6.470   4.146  10.129  0.0525 -0.3209 -0.7568
  113OSM    H4S11717   6.439   4.060  10.067 -3.2403 -1.8962  2.6707
  113OSM    C5S11718   6.525   4.258  10.080 -0.6154 -0.1034 -0.3330
  113OSM    H5S11719   6.553   4.347  10.138  2.0149  0.1242 -1.8329
  113OSM    C6S11720   6.538   4.280   9.932  0.2242 -0.7173  0.1442
  113OSM    H6S11721   6.485   4.199   9.877  2.3919 -1.5070 -0.8788
  113OSM    H6T11722   6.644   4.281   9.901 -0.1826  0.8162 -1.3792
  113OSM    C7S11723   6.474   4.420   9.888  0.5588  0.4695  0.5849
  113OSM    H7S11724   6.544   4.498   9.923 -1.9582  3.6556 -0.8764
  113OSM    H7T11725   6.385   4.449   9.948  0.4682 -0.9629  1.1820
  113OSM    C8S11726   6.452   4.430   9.736  0.1606  0.1926  0.3994
  113OSM    H8S11727   6.354   4.381   9.716  0.5928 -0.6599  0.2992
  113OSM    H8T11728   6.522   4.365   9.678 -2.1753 -3.5386  1.4223
  113OSM    C9S11729   6.453   4.574   9.680  0.1072 -0.1116  0.0620
  113OSM    H9S11730   6.541   4.631   9.717 -0.7683  1.7792 -0.6210
  113OSM    H9T11731   6.361   4.627   9.714  1.7941  2.0306  1.6154
  113OSM   C10S11732   6.450   4.582   9.529  0.0265 -0.5588 -0.2011
  113OSM   H10S11733   6.546   4.538   9.494  0.0383 -0.6925 -0.0062
  113OSM   H10T11734   6.445   4.687   9.494  0.2152 -0.9284 -1.3784
  113OSM   C11S11735   6.330   4.501   9.467  0.0414  0.6043  0.6900
  113OSM   H11S11736   6.241   4.490   9.533  0.6217 -2.0100  1.1558
  113OSM   H11T11737   6.375   4.400   9.454  0.5585  1.0656 -1.3360
  113OSM   C12S11738   6.282   4.562   9.334 -0.2579  0.5784 -0.4998
  113OSM   H12S11739   6.245   4.663   9.363 -0.8028 -0.0851  1.2328
  113OSM   H12T11740   6.192   4.502   9.307  0.2730 -0.7501  0.5780
  113OSM   C13S11741   6.394   4.551   9.231 -0.7269  0.9419  0.3113
  113OSM   H13S11742   6.451   4.458   9.253 -1.7532  0.4003  0.7649
  113OSM   H13T11743   6.463   4.638   9.232  0.9453 -0.3060 -1.1497
  113OSM   C14S11744   6.334   4.541   9.094 -0.1722  0.0767 -0.1759
  113OSM   H14S11745   6.265   4.624   9.069 -0.7136 -0.2660  0.1796
  113OSM   H14T11746   6.279   4.445   9.090 -1.9797  1.0947 -0.7875
  113OSM   C15S11747   6.436   4.539   8.978 -0.5273  0.4483  0.3806
  113OSM   H15S11748   6.507   4.456   8.998 -0.1330  1.0048  1.3510
  113OSM   H15T11749   6.495   4.633   8.978 -0.7006  0.5585  0.8079
  113OSM   C16S11750   6.377   4.527   8.836  0.1523  0.0766  0.4895
  113OSM   H16S11751   6.311   4.610   8.803 -0.0698 -0.1110  0.4573
  113OSM   H16T11752   6.317   4.434   8.845 -0.1696  0.2640  0.2806
  113OSM   C17S11753   6.476   4.491   8.729 -0.1535  0.6579  0.5094
  113OSM   H17S11754   6.570   4.457   8.776  1.1319  0.7175 -1.8397
  113OSM   H17T11755   6.497   4.582   8.668  0.2038 -0.0084 -0.3936
  113OSM   C18S11756   6.431   4.384   8.629  0.5254  0.1244 -0.6806
  113OSM   H18S11757   6.385   4.296   8.680  1.4002 -0.2030 -0.4444
  113OSM   H18T11758   6.507   4.345   8.559  1.3830 -2.1025  1.3265
  113OSM   H18U11759   6.345   4.430   8.576  1.0704  2.0368  0.0136
  113OSM    C1F11760   6.061   4.120  10.238 -0.2088  0.1990  0.0451
  113OSM     OF11761   6.031   4.232  10.291  0.0184  0.6297 -0.0109
  113OSM    C2F11762   5.969   4.018  10.189  0.3471  0.3208  0.5320
  113OSM    H2F11763   5.945   3.944  10.267  0.4927 -2.5451 -1.9432
  113OSM    H2G11764   6.020   3.961  10.108  0.4736 -2.4690  2.4563
  113OSM    C3F11765   5.833   4.068  10.138  0.1938 -0.2584 -0.5184
  113OSM    H3F11766   5.774   4.129  10.210 -0.5970  1.4942 -2.5309
  113OSM    H3G11767   5.769   3.978  10.123 -1.4537  0.5021  1.4286
  113OSM    C4F11768   5.834   4.153  10.010  0.3909  0.4514  0.6342
  113OSM    H4F11769   5.845   4.084   9.923 -1.3271  0.2988  0.5119
  113OSM    H4G11770   5.924   4.217  10.015  1.9707 -1.5368 -0.6410
  113OSM    C5F11771   5.710   4.241   9.995 -0.6428  0.1780 -0.1118
  113OSM    H5F11772   5.706   4.291  10.094 -1.8936 -3.3811  1.8062
  113OSM    H5G11773   5.614   4.186   9.999 -0.4318 -0.3440 -1.5302
  113OSM    C6F11774   5.699   4.340   9.878 -0.2944 -0.1357  1.1953
  113OSM    H6F11775   5.773   4.423   9.878  0.6102 -0.9191  0.1167
  113OSM    H6G11776   5.598   4.385   9.888  0.3534  1.7556 -0.1965
  113OSM    C7F11777   5.711   4.255   9.746 -0.1205  0.3412 -0.4332
  113OSM    H7F11778   5.631   4.178   9.757 -1.0395  1.1824 -1.0612
  113OSM    H7G11779   5.807   4.199   9.748  0.4350  1.2946 -0.2173
  113OSM    C8F11780   5.707   4.337   9.621  0.2103 -0.5250  0.2890
  113OSM    H8F11781   5.798   4.397   9.638  0.5391 -1.4041  1.7746
  113OSM    H8G11782   5.611   4.393   9.620  0.5263  0.0162 -0.1526
  113OSM    C9F11783   5.719   4.279   9.484 -0.2853  0.1115 -0.5871
  113OSM    H9F11784   5.646   4.198   9.471 -0.7684  0.5199 -0.4217
  113OSM   C10F11785   5.800   4.310   9.386  0.2621 -0.0909 -0.0649
  113OSM   H10F11786   5.795   4.244   9.298  0.7140 -0.3663  0.1133
  113OSM   C11F11787   5.902   4.422   9.368 -0.6006 -0.2954  0.2453
  113OSM   H11F11788   6.003   4.379   9.384 -0.9914 -1.0441  0.7845
  113OSM   H11G11789   5.884   4.511   9.432 -1.0181 -1.4194  1.7333
  113OSM   C12F11790   5.906   4.466   9.223 -0.1712 -1.2324  0.2222
  113OSM   H12F11791   5.919   4.373   9.164  1.4082 -1.6714  1.2035
  113OSM   H12G11792   5.992   4.531   9.199 -2.1750  1.7885  0.6355
  113OSM   C13F11793   5.792   4.561   9.182 -0.0498  0.0233  0.1907
  113OSM   H13F11794   5.810   4.651   9.245  1.3211 -0.9083  1.1939
  113OSM   H13G11795   5.696   4.506   9.189 -1.5960  2.3704 -1.3712
  113OSM   C14F11796   5.814   4.598   9.037 -0.2361  0.4217  0.2206
  113OSM   H14F11797   5.918   4.637   9.037 -0.1348  0.1893  1.1219
  113OSM   H14G11798   5.730   4.664   9.010 -2.1092 -2.1936 -0.7870
  113OSM   C15F11799   5.789   4.488   8.928  0.4698 -0.9611 -0.1087
  113OSM   H15F11800   5.685   4.451   8.940 -0.3075  1.5690  1.8148
  113OSM   H15G11801   5.863   4.408   8.952  2.0799  0.2698 -0.8060
  113OSM   C16F11802   5.820   4.545   8.787  0.8056  0.2433 -0.0157
  113OSM   H16F11803   5.750   4.626   8.759  0.5947 -0.2053 -0.8366
  113OSM   H16G11804   5.798   4.463   8.715  1.8167 -1.3424  1.4027
  113OSM   C17F11805   5.970   4.586   8.762 -0.3525 -0.1379 -0.9110
  113OSM   H17F11806   6.035   4.519   8.822 -0.9403 -0.1320 -0.2540
  113OSM   H17G11807   5.972   4.686   8.810  0.1025 -0.0145 -1.1775
  113OSM   C18F11808   6.018   4.585   8.615 -0.1086 -0.3008  0.2039
  113OSM   H18F11809   6.127   4.580   8.598  0.0347 -4.0833  1.3926
  113OSM   H18G11810   5.983   4.678   8.564 -0.5209  0.1512  1.2861
  113OSM   H18H11811   5.981   4.495   8.560 -1.6604 -0.7123  1.8368
  114OSM      N11812   5.378   1.835  11.090  0.6631  0.2000 -1.0909
  114OSM    C1511813   5.427   1.756  10.975 -0.1238  0.0044 -0.2360
  114OSM   H15A11814   5.509   1.797  10.918  1.4164 -2.7664 -0.1764
  114OSM   H15B11815   5.352   1.749  10.898 -0.3508 -0.9019  0.0621
  114OSM   H15C11816   5.446   1.652  10.996  2.6185  0.3600 -0.5850
  114OSM    C1411817   5.326   1.969  11.045  1.0783 -0.1857 -0.2815
  114OSM   H14A11818   5.389   2.018  10.972 -1.0417 -0.7685 -2.6510
  114OSM   H14B11819   5.310   2.031  11.132 -0.9666  1.6601 -1.8739
  114OSM   H14C11820   5.228   1.955  11.001 -0.3491  0.5666  2.4582
  114OSM    C1311821   5.255   1.772  11.147  0.6125 -0.1460  0.1769
  114OSM   H13A11822   5.179   1.752  11.073 -0.4488 -1.8301  1.6231
  114OSM   H13B11823   5.211   1.852  11.204  1.2276  2.4872 -2.7833
  114OSM   H13C11824   5.287   1.679  11.192 -0.1473  0.6155  2.4482
  114OSM    C1211825   5.481   1.851  11.201  0.4824  0.1152 -0.4592
  114OSM   H12A11826   5.436   1.894  11.289  0.8398  0.0975 -0.2644
  114OSM   H12B11827   5.559   1.922  11.176  1.1521  0.0275  1.2370
  114OSM    C1111828   5.558   1.724  11.251  0.3707  0.3594 -0.0328
  114OSM   H11A11829   5.615   1.750  11.343 -0.6124 -0.2907  0.7843
  114OSM   H11B11830   5.631   1.703  11.170  1.4513  1.2574  0.6743
  114OSM      P11831   5.544   1.461  11.245  0.3817 -0.3598 -0.0516
  114OSM    O1311832   5.642   1.450  11.355  0.2197 -0.7082  0.6161
  114OSM    O1411833   5.444   1.351  11.243  0.5666  0.2712  0.1636
  114OSM    O1111834   5.628   1.467  11.108 -0.1323  0.1907  0.8083
  114OSM    O1211835   5.477   1.599  11.274  0.0439 -0.4804 -0.5775
  114OSM    C1S11836   5.581   1.409  10.983  0.4140  0.2071 -0.4820
  114OSM    H1S11837   5.487   1.460  10.951 -0.7245 -2.0142 -0.8349
  114OSM    H1T11838   5.549   1.304  10.998  0.6348  0.3351  0.9828
  114OSM     NF11839   5.612   1.380  10.739 -0.9507 -0.2435 -0.1741
  114OSM    HNF11840   5.633   1.286  10.714 -0.0029  0.0216 -0.4026
  114OSM    C2S11841   5.677   1.415  10.856  0.3413  0.1317 -0.7044
  114OSM    H2S11842   5.703   1.522  10.844  2.1276  0.2954  3.0590
  114OSM    C3S11843   5.807   1.330  10.885  0.2917 -0.2660  0.3077
  114OSM    H3S11844   5.779   1.223  10.882  0.0364 -0.3935  3.5108
  114OSM     O311845   5.863   1.347  11.019 -0.1750 -0.1243 -0.3718
  114OSM    HO311846   5.792   1.391  11.066 -0.1950  1.7362 -1.9869
  114OSM    C4S11847   5.910   1.356  10.777  0.4827  0.2948 -0.4971
  114OSM    H4S11848   5.957   1.456  10.773 -0.2690  0.6428 -0.7315
  114OSM    C5S11849   5.955   1.260  10.699  0.3701  0.5141  0.2437
  114OSM    H5S11850   5.911   1.160  10.709 -0.4518  0.5072 -2.5365
  114OSM    C6S11851   6.060   1.278  10.597  0.6951 -0.0631 -0.2893
  114OSM    H6S11852   6.147   1.212  10.618  0.2612 -0.2562  1.0054
  114OSM    H6T11853   6.100   1.381  10.583  0.3100 -0.0063 -1.0240
  114OSM    C7S11854   6.013   1.241  10.456 -0.2061 -0.6084 -0.0670
  114OSM    H7S11855   5.920   1.296  10.428  0.8134  1.6450  0.6881
  114OSM    H7T11856   5.984   1.134  10.453  0.4592 -0.7975  0.0137
  114OSM    C8S11857   6.120   1.287  10.349 -0.0570 -0.0877 -0.1170
  114OSM    H8S11858   6.219   1.308  10.395  0.4429 -0.8755 -0.8062
  114OSM    H8T11859   6.097   1.388  10.310 -0.1230  0.6316  1.7135
  114OSM    C9S11860   6.117   1.173  10.242 -0.1595 -0.6988 -0.0828
  114OSM    H9S11861   6.015   1.165  10.197  0.3143  0.9199 -1.5825
  114OSM    H9T11862   6.148   1.082  10.297 -0.5235 -0.5304  0.4018
  114OSM   C10S11863   6.206   1.216  10.125 -0.0215  0.1639  0.0713
  114OSM   H10S11864   6.316   1.210  10.141  0.1923  0.5981 -1.1206
  114OSM   H10T11865   6.180   1.323  10.108  4.2345  1.4114  0.0796
  114OSM   C11S11866   6.167   1.133  10.001  0.1241  0.4479 -0.0803
  114OSM   H11S11867   6.061   1.151   9.974  0.4112  0.7538 -1.0479
  114OSM   H11T11868   6.181   1.024  10.013 -0.2166  0.3976 -0.1258
  114OSM   C12S11869   6.253   1.175   9.881  0.8642  1.1771  0.0671
  114OSM   H12S11870   6.363   1.159   9.888  1.6697  5.1482 -0.9920
  114OSM   H12T11871   6.233   1.282   9.856 -0.1619  0.8189 -0.7235
  114OSM   C13S11872   6.205   1.091   9.758  0.3455  1.1064  0.0602
  114OSM   H13S11873   6.097   1.113   9.745  0.6172  1.6950 -1.3338
  114OSM   H13T11874   6.210   0.986   9.792  0.0715  0.6183 -1.3560
  114OSM   C14S11875   6.284   1.130   9.627  1.3036 -0.0446 -0.5453
  114OSM   H14S11876   6.392   1.148   9.647  1.3677  2.0965 -2.3634
  114OSM   H14T11877   6.252   1.228   9.585  1.7533 -0.3077 -1.5554
  114OSM   C15S11878   6.260   1.031   9.508  0.3301  0.4105 -0.3766
  114OSM   H15S11879   6.152   1.023   9.484  0.4109 -0.7154 -0.4230
  114OSM   H15T11880   6.305   0.932   9.531  0.0330  0.1888 -0.7539
  114OSM   C16S11881   6.327   1.084   9.386 -0.8293 -0.8594  0.4516
  114OSM   H16S11882   6.434   1.083   9.413 -0.5638 -1.9930 -0.5461
  114OSM   H16T11883   6.312   1.193   9.372  0.5148 -0.6861  0.2464
  114OSM   C17S11884   6.295   1.000   9.263  0.1200 -0.7548  0.3993
  114OSM   H17S11885   6.189   1.012   9.234  0.1853  0.6805  0.6933
  114OSM   H17T11886   6.308   0.891   9.281 -0.5204 -0.6553  1.5490
  114OSM   C18S11887   6.377   1.050   9.148  0.3525  0.5400  0.0969
  114OSM   H18S11888   6.344   1.004   9.053 -2.6861 -0.3390  1.4390
  114OSM   H18T11889   6.485   1.033   9.164  0.0167  0.1331  2.3548
  114OSM   H18U11890   6.367   1.157   9.121  0.7818  0.2052 -1.4333
  114OSM    C1F11891   5.525   1.455  10.674  0.0178 -0.2415  0.0727
  114OSM     OF11892   5.485   1.564  10.718 -0.6320  0.5085 -0.1674
  114OSM    C2F11893   5.480   1.405  10.543 -0.1298  0.3686  0.4901
  114OSM    H2F11894   5.371   1.418  10.527  0.0729 -0.1688 -1.6520
  114OSM    H2G11895   5.508   1.297  10.538 -1.0860  0.1458 -3.8485
  114OSM    C3F11896   5.553   1.483  10.433  1.0086  0.1138 -0.7400
  114OSM    H3F11897   5.655   1.439  10.432  1.7060  1.6439  0.4464
  114OSM    H3G11898   5.558   1.590  10.460  1.8093 -0.7451  3.1035
  114OSM    C4F11899   5.490   1.448  10.290  0.4085  0.4140 -0.2410
  114OSM    H4F11900   5.382   1.472  10.288 -0.4118 -2.8346 -1.4164
  114OSM    H4G11901   5.495   1.340  10.265  0.9884  0.0934  1.1404
  114OSM    C5F11902   5.560   1.526  10.176 -0.0818  0.0692  0.7123
  114OSM    H5F11903   5.524   1.631  10.168 -2.2356 -0.5463  1.5253
  114OSM    H5G11904   5.511   1.468  10.096  0.1886  1.8097 -0.7791
  114OSM    C6F11905   5.709   1.509  10.183  0.0219  0.3078  0.8430
  114OSM    H6F11906   5.752   1.425  10.242  4.0359  1.1859 -0.5375
  114OSM    H6G11907   5.745   1.595  10.243 -1.5213  0.7004  1.2522
  114OSM    C7F11908   5.777   1.507  10.044  0.0800 -0.4728 -0.1443
  114OSM    H7F11909   5.740   1.595   9.988 -0.2393 -0.5650 -0.0803
  114OSM    H7G11910   5.754   1.418   9.981 -1.5879 -0.1819 -0.0084
  114OSM    C8F11911   5.931   1.501  10.053  0.3592 -0.5019 -0.5800
  114OSM    H8F11912   5.974   1.501   9.951 -1.7763 -2.7395 -1.5737
  114OSM    H8G11913   5.961   1.409  10.108  0.7122  0.9247  1.7630
  114OSM    C9F11914   5.984   1.614  10.135 -0.0328  0.4035 -0.4193
  114OSM    H9F11915   5.992   1.596  10.243 -1.0837 -2.0193 -0.6867
  114OSM   C10F11916   6.006   1.736  10.095  0.1293  0.3547  0.6250
  114OSM   H10F11917   6.029   1.821  10.161 -0.7100  1.3804 -0.3574
  114OSM   C11F11918   5.980   1.780   9.949 -0.4581 -0.3240  0.2792
  114OSM   H11F11919   5.955   1.887   9.933 -2.3627 -1.0210 -1.9829
  114OSM   H11G11920   5.887   1.735   9.909 -1.6196  2.6241 -0.5805
  114OSM   C12F11921   6.110   1.735   9.875  0.1670 -0.5693  0.4703
  114OSM   H12F11922   6.097   1.735   9.765  0.6659  2.6262  0.3168
  114OSM   H12G11923   6.142   1.633   9.906  1.0472 -0.1879  0.8388
  114OSM   C13F11924   6.228   1.845   9.884  0.3529 -0.1948 -0.0677
  114OSM   H13F11925   6.320   1.794   9.847 -0.1818 -2.4581  1.5281
  114OSM   H13G11926   6.251   1.857   9.992  0.0737 -1.5889  0.1640
  114OSM   C14F11927   6.196   1.985   9.827  0.3223 -0.1583 -0.1376
  114OSM   H14F11928   6.116   2.039   9.881 -0.6366 -1.5502 -0.1116
  114OSM   H14G11929   6.148   1.967   9.729  1.9468  0.5728 -1.0978
  114OSM   C15F11930   6.311   2.082   9.813 -0.5492  0.0349  0.0338
  114OSM   H15F11931   6.382   2.029   9.745  0.2365  1.8188 -0.6092
  114OSM   H15G11932   6.363   2.110   9.907  0.9055  1.0624 -1.0278
  114OSM   C16F11933   6.271   2.211   9.749  0.0157  0.1333  0.5354
  114OSM   H16F11934   6.194   2.257   9.814  1.0794 -0.5328  2.3301
  114OSM   H16G11935   6.217   2.202   9.652 -0.2186  0.7813  0.6036
  114OSM   C17F11936   6.378   2.319   9.730 -0.4310  0.5522 -0.0517
  114OSM   H17F11937   6.343   2.391   9.653  1.2624 -0.9177 -2.3464
  114OSM   H17G11938   6.467   2.278   9.677 -0.5512  0.7783 -0.4387
  114OSM   C18F11939   6.412   2.385   9.862  0.0998 -0.0537  0.8857
  114OSM   H18F11940   6.324   2.442   9.899  0.4511  1.7956 -0.9498
  114OSM   H18G11941   6.493   2.456   9.836 -0.6330  0.9097  1.1976
  114OSM   H18H11942   6.454   2.310   9.932 -0.0216 -0.0729  0.9380
  115OSM      N11943   2.740   4.123   5.963 -0.8490  0.5570  0.2834
  115OSM    C1511944   2.637   4.171   5.877 -0.0009 -0.2847  0.3982
  115OSM   H15A11945   2.604   4.093   5.811 -1.0330  0.7695 -0.3643
  115OSM   H15B11946   2.670   4.255   5.816  1.2946  1.3664  3.1849
  115OSM   H15C11947   2.557   4.214   5.934  1.6357  0.2761  2.3982
  115OSM    C1411948   2.707   4.000   6.032  0.1276  0.2131  0.3740
  115OSM   H14A11949   2.788   3.963   6.093  2.5838  2.0692 -1.5715
  115OSM   H14B11950   2.666   3.922   5.970 -0.0892  1.4845 -1.1257
  115OSM   H14C11951   2.619   4.025   6.090 -0.2284  2.2715 -0.9496
  115OSM    C1311952   2.859   4.092   5.883  0.2303  1.0317 -0.0111
  115OSM   H13A11953   2.936   4.063   5.953 -0.2770 -1.3462 -0.3378
  115OSM   H13B11954   2.897   4.174   5.824  0.1575  0.9518 -0.1716
  115OSM   H13C11955   2.843   4.017   5.807  1.7135  1.5564 -0.8904
  115OSM    C1211956   2.774   4.232   6.075 -0.3474 -0.0245  0.0351
  115OSM   H12A11957   2.821   4.316   6.025  1.8843 -2.2823 -1.9217
  115OSM   H12B11958   2.855   4.196   6.136 -0.0471  1.5751  0.6364
  115OSM    C1111959   2.664   4.290   6.169 -0.3068 -0.1300  0.1465
  115OSM   H11A11960   2.722   4.343   6.248 -1.9405 -0.9113  1.9131
  115OSM   H11B11961   2.595   4.218   6.218 -0.0947  0.2309  0.9920
  115OSM      P11962   2.430   4.394   6.102 -0.0232  0.0116  0.2595
  115OSM    O1311963   2.390   4.527   6.044 -0.4502  0.5938 -0.2405
  115OSM    O1411964   2.367   4.270   6.059  0.2058 -0.3413  0.3100
  115OSM    O1111965   2.414   4.392   6.260  0.0247 -0.0043  0.2763
  115OSM    O1211966   2.585   4.389   6.089 -0.7028 -0.1904  0.2540
  115OSM    C1S11967   2.393   4.519   6.335 -0.6950  0.3051  0.3969
  115OSM    H1S11968   2.289   4.554   6.319 -1.1101 -0.9319  0.2825
  115OSM    H1T11969   2.460   4.596   6.291  1.3030 -0.6438  1.6586
  115OSM     NF11970   2.400   4.652   6.547 -0.1053  0.1943  0.4319
  115OSM    HNF11971   2.488   4.699   6.560  0.3614 -0.9377  1.5960
  115OSM    C2S11972   2.421   4.520   6.489 -0.7146 -0.0567  0.1674
  115OSM    H2S11973   2.350   4.452   6.540 -0.9719 -0.0805 -0.2144
  115OSM    C3S11974   2.563   4.461   6.502 -0.6061 -0.4249 -0.6604
  115OSM    H3S11975   2.636   4.504   6.431  1.0559 -0.3662  1.0035
  115OSM     O311976   2.559   4.326   6.471  0.4702  0.1848 -0.6759
  115OSM    HO311977   2.502   4.334   6.394  0.5856 -0.5851 -0.8403
  115OSM    C4S11978   2.621   4.489   6.642  0.0428 -0.1545  0.7093
  115OSM    H4S11979   2.685   4.577   6.651 -1.0487  0.7753 -0.2678
  115OSM    C5S11980   2.599   4.423   6.759  0.2947 -0.7498 -0.5767
  115OSM    H5S11981   2.531   4.337   6.758 -0.1662 -0.6021  3.3229
  115OSM    C6S11982   2.638   4.464   6.900 -0.0997  0.7569 -0.3630
  115OSM    H6S11983   2.549   4.514   6.943 -0.9958 -0.8815 -0.2050
  115OSM    H6T11984   2.732   4.523   6.901  0.3280  0.4152  4.3477
  115OSM    C7S11985   2.654   4.348   7.000  0.0432 -0.8393  0.5721
  115OSM    H7S11986   2.752   4.302   6.972  1.1039  0.4574  1.9681
  115OSM    H7T11987   2.578   4.269   6.982 -0.8554  0.4188 -1.5464
  115OSM    C8S11988   2.669   4.393   7.138  0.1292  0.3667 -0.6354
  115OSM    H8S11989   2.568   4.434   7.158 -0.0407  0.5060 -1.7029
  115OSM    H8T11990   2.747   4.472   7.136  0.3742  0.1278 -0.4774
  115OSM    C9S11991   2.709   4.283   7.238  0.6489 -0.7717 -0.6286
  115OSM    H9S11992   2.811   4.245   7.216  0.1824 -0.4277 -4.0444
  115OSM    H9T11993   2.634   4.203   7.254 -1.4418  1.0967 -0.4762
  115OSM   C10S11994   2.709   4.353   7.378  0.0215 -0.8028 -0.5783
  115OSM   H10S11995   2.607   4.394   7.394 -0.2280 -1.4626 -0.4601
  115OSM   H10T11996   2.767   4.448   7.371 -0.8647 -0.2813 -1.0353
  115OSM   C11S11997   2.747   4.267   7.496 -0.5705  0.1097  0.7485
  115OSM   H11S11998   2.853   4.233   7.494 -0.8360 -0.7242  0.1967
  115OSM   H11T11999   2.682   4.177   7.502  1.0691 -1.1340  0.8695
  115OSM   C12S12000   2.739   4.345   7.627 -0.0709  0.7170  0.3042
  115OSM   H12S12001   2.636   4.388   7.629 -0.2959  0.1597  1.6963
  115OSM   H12T12002   2.808   4.432   7.619 -0.8238  1.1510 -4.0941
  115OSM   C13S12003   2.771   4.256   7.741 -0.6887  0.2481 -0.6065
  115OSM   H13S12004   2.878   4.225   7.743 -1.4207 -2.5755  1.0273
  115OSM   H13T12005   2.710   4.163   7.741 -0.6996  0.2531 -1.4843
  115OSM   C14S12006   2.736   4.339   7.866 -0.8606  0.4126  0.0986
  115OSM   H14S12007   2.626   4.355   7.857 -1.0784 -0.7705  0.4356
  115OSM   H14T12008   2.794   4.433   7.868  1.3330 -0.8475 -0.3397
  115OSM   C15S12009   2.765   4.256   7.996  0.8807 -0.0168 -0.8057
  115OSM   H15S12010   2.871   4.222   7.999  0.9010 -0.1009  3.3222
  115OSM   H15T12011   2.691   4.174   7.993 -1.3955  1.8167  1.0585
  115OSM   C16S12012   2.734   4.347   8.121 -0.3765  0.8825  0.2555
  115OSM   H16S12013   2.625   4.358   8.138 -0.2100 -0.3791  2.6336
  115OSM   H16T12014   2.776   4.447   8.100  0.9735  0.1839 -0.5363
  115OSM   C17S12015   2.781   4.278   8.253  0.0697 -0.5102 -0.5964
  115OSM   H17S12016   2.843   4.192   8.222  0.8144  0.4564 -1.9058
  115OSM   H17T12017   2.695   4.233   8.307 -0.5344 -0.3053 -1.3673
  115OSM   C18S12018   2.872   4.350   8.356 -0.9054  0.1382  0.0701
  115OSM   H18S12019   2.913   4.279   8.431  1.8615  0.2749 -1.1802
  115OSM   H18T12020   2.805   4.424   8.404 -2.1323 -0.1000 -1.1907
  115OSM   H18U12021   2.955   4.401   8.303  1.0741 -1.3834  1.5244
  115OSM    C1F12022   2.274   4.714   6.547 -0.2024 -0.7528 -0.2797
  115OSM     OF12023   2.173   4.660   6.501  0.5390  0.5553 -0.5448
  115OSM    C2F12024   2.267   4.856   6.604  0.7241  0.2426  0.5936
  115OSM    H2F12025   2.245   4.924   6.519  2.1515 -0.5281 -0.4373
  115OSM    H2G12026   2.370   4.875   6.643  2.0748 -1.6872 -1.7393
  115OSM    C3F12027   2.154   4.865   6.713 -0.3161 -0.2297  0.2783
  115OSM    H3F12028   2.065   4.809   6.676  0.6497 -0.9889 -0.9488
  115OSM    H3G12029   2.122   4.971   6.718 -0.8401 -0.4389  2.3561
  115OSM    C4F12030   2.196   4.820   6.853 -0.0891 -0.1077 -0.4793
  115OSM    H4F12031   2.102   4.800   6.908  0.6482 -1.5423  0.3033
  115OSM    H4G12032   2.261   4.900   6.894  2.3389 -1.5507 -1.3100
  115OSM    C5F12033   2.274   4.693   6.878  0.1394  0.4681  0.3226
  115OSM    H5F12034   2.379   4.728   6.865  0.9373 -2.0897 -0.7166
  115OSM    H5G12035   2.247   4.617   6.802 -1.7727 -1.0274  2.3743
  115OSM    C6F12036   2.253   4.623   7.008 -0.5030  0.1595 -0.3653
  115OSM    H6F12037   2.337   4.552   7.024  0.7165  2.3679  5.0737
  115OSM    H6G12038   2.154   4.573   7.004 -0.8438  0.8981 -2.0908
  115OSM    C7F12039   2.243   4.710   7.140  1.0836  0.4631  0.1157
  115OSM    H7F12040   2.217   4.646   7.227  1.0258 -0.6736 -0.7154
  115OSM    H7G12041   2.155   4.772   7.115  2.6407  2.2339 -1.2860
  115OSM    C8F12042   2.362   4.798   7.166  1.0362 -0.4801 -0.4867
  115OSM    H8F12043   2.335   4.849   7.261 -0.0071 -2.4281  0.3163
  115OSM    H8G12044   2.382   4.874   7.088 -0.6152  0.6943  0.1629
  115OSM    C9F12045   2.493   4.733   7.197  0.0634  0.2335 -0.5760
  115OSM    H9F12046   2.539   4.694   7.105  0.3177 -0.0201 -0.3411
  115OSM   C10F12047   2.555   4.711   7.317  0.5570 -0.1686 -0.2485
  115OSM   H10F12048   2.649   4.654   7.315 -0.1054 -1.3223  0.5498
  115OSM   C11F12049   2.501   4.748   7.453  0.0518  0.3004 -0.0069
  115OSM   H11F12050   2.412   4.814   7.437 -0.4200 -0.6107 -1.2845
  115OSM   H11G12051   2.571   4.815   7.507  0.7413 -0.4942  0.0964
  115OSM   C12F12052   2.455   4.631   7.548  0.0702  0.0105 -0.2204
  115OSM   H12F12053   2.535   4.554   7.546 -0.2278 -0.3326 -3.4144
  115OSM   H12G12054   2.359   4.584   7.517 -0.3502  0.7302 -0.0245
  115OSM   C13F12055   2.423   4.683   7.690  0.0564  0.1240 -0.6759
  115OSM   H13F12056   2.329   4.635   7.721  0.3046  0.1988  0.2142
  115OSM   H13G12057   2.402   4.792   7.679  1.3039  0.4950  0.2541
  115OSM   C14F12058   2.523   4.651   7.803  0.2004  0.0120  0.3185
  115OSM   H14F12059   2.624   4.685   7.771  1.1234 -1.0725  1.9335
  115OSM   H14G12060   2.534   4.543   7.827  0.4079  0.4886  2.6107
  115OSM   C15F12061   2.482   4.732   7.926 -0.3396 -0.4354 -0.0991
  115OSM   H15F12062   2.378   4.711   7.958 -0.1942 -3.1125 -1.1831
  115OSM   H15G12063   2.478   4.841   7.904 -1.8917 -0.3106  0.6353
  115OSM   C16F12064   2.571   4.706   8.049 -0.4187 -0.2139 -0.7487
  115OSM   H16F12065   2.657   4.776   8.058 -0.1782 -0.7000  1.2546
  115OSM   H16G12066   2.620   4.606   8.045 -1.0666 -0.5579 -0.3729
  115OSM   C17F12067   2.495   4.728   8.180  0.4252 -0.2840 -1.3100
  115OSM   H17F12068   2.414   4.656   8.202  1.1954 -2.2619 -4.2881
  115OSM   H17G12069   2.437   4.822   8.174 -1.5239 -1.3217  0.3434
  115OSM   C18F12070   2.594   4.710   8.299  0.5484 -0.0351 -0.1678
  115OSM   H18F12071   2.544   4.739   8.394 -0.1502 -0.0104 -0.5361
  115OSM   H18G12072   2.683   4.775   8.288  0.7409  0.4793  3.2619
  115OSM   H18H12073   2.635   4.608   8.315 -1.5402 -1.3139 -2.3477
  116OSM      N12074   1.931   2.289   6.041  0.1098 -0.0334 -0.4954
  116OSM    C1512075   2.026   2.230   6.153  0.4569 -0.2254  0.5818
  116OSM   H15A12076   2.071   2.315   6.202  1.4638  0.2141 -0.9907
  116OSM   H15B12077   2.106   2.175   6.105  2.3513  2.3063  0.6255
  116OSM   H15C12078   1.974   2.173   6.228 -0.6877  0.0372 -0.0006
  116OSM    C1412079   1.804   2.338   6.114 -0.1115 -0.0859  0.0982
  116OSM   H14A12080   1.744   2.258   6.153 -1.4246  0.4054 -0.8257
  116OSM   H14B12081   1.742   2.388   6.041  0.7984 -0.1352 -0.7255
  116OSM   H14C12082   1.826   2.402   6.198 -0.4583 -1.3557  1.2025
  116OSM    C1312083   2.005   2.397   5.972 -0.1961  0.7106 -0.5574
  116OSM   H13A12084   2.113   2.388   5.973 -0.1983  0.2170  1.6531
  116OSM   H13B12085   1.994   2.490   6.025  1.3813  0.6232  0.0034
  116OSM   H13C12086   1.974   2.408   5.870 -3.1329 -1.9145 -0.0920
  116OSM    C1212087   1.896   2.176   5.945 -0.3359  0.5919 -0.2166
  116OSM   H12A12088   1.984   2.169   5.882 -0.1941 -0.4262  0.0630
  116OSM   H12B12089   1.814   2.208   5.882 -0.5406  0.6412  0.0766
  116OSM    C1112090   1.846   2.032   5.995  0.0934  0.2063  0.3013
  116OSM   H11A12091   1.937   1.994   6.046  0.2554 -0.7688 -0.6780
  116OSM   H11B12092   1.832   1.974   5.901 -0.4410 -1.7961  1.5727
  116OSM      P12093   1.591   2.015   6.024  0.0058 -0.0105  0.0970
  116OSM    O1312094   1.550   2.131   5.935  0.2973  0.3556 -0.3803
  116OSM    O1412095   1.577   1.886   5.960 -0.0201 -0.0028 -0.1088
  116OSM    O1112096   1.509   2.013   6.158 -0.0435 -0.7514  0.0102
  116OSM    O1212097   1.736   2.036   6.080 -0.5610  0.2562  0.0470
  116OSM    C1S12098   1.522   1.906   6.256 -0.2742 -0.6378 -0.2042
  116OSM    H1S12099   1.614   1.928   6.315  1.3105  0.8791 -3.0445
  116OSM    H1T12100   1.538   1.807   6.209 -1.9800  0.0191 -2.3234
  116OSM     NF12101   1.446   1.856   6.484 -0.5841 -0.1724 -0.3393
  116OSM    HNF12102   1.427   1.759   6.495  1.1868 -0.3568  1.7012
  116OSM    C2S12103   1.402   1.909   6.354 -1.1387 -0.4674  0.2552
  116OSM    H2S12104   1.382   2.018   6.363  2.6707  0.5965 -2.2216
  116OSM    C3S12105   1.282   1.838   6.284 -0.3238 -0.9077  0.2116
  116OSM    H3S12106   1.327   1.741   6.252 -0.7372 -0.3460 -2.2810
  116OSM     O312107   1.240   1.905   6.170 -0.5765 -0.0450 -0.7954
  116OSM    HO312108   1.308   1.972   6.161  0.3172 -0.7561  0.4566
  116OSM    C4S12109   1.170   1.837   6.381  0.2204  0.1919  0.4543
  116OSM    H4S12110   1.118   1.934   6.384 -1.2791 -0.6063  0.9627
  116OSM    C5S12111   1.141   1.733   6.452  0.7600  0.4098 -0.0087
  116OSM    H5S12112   1.199   1.640   6.451  0.6558  0.2909  1.8305
  116OSM    C6S12113   1.037   1.719   6.558 -0.1257 -0.4085  0.2000
  116OSM    H6S12114   1.057   1.634   6.627 -1.4391 -0.5709  0.3936
  116OSM    H6T12115   0.936   1.701   6.517 -0.5193  3.2680 -0.8616
  116OSM    C7S12116   1.033   1.836   6.655 -0.3043 -1.3408 -0.9233
  116OSM    H7S12117   0.950   1.836   6.729  0.4813 -0.7368 -0.0031
  116OSM    H7T12118   1.011   1.928   6.597  0.4120 -0.0451  0.7756
  116OSM    C8S12119   1.163   1.842   6.742  0.0261 -0.1040 -0.6775
  116OSM    H8S12120   1.246   1.797   6.683  0.5481 -0.0855  0.0170
  116OSM    H8T12121   1.161   1.775   6.831  1.4179  0.1441 -0.4227
  116OSM    C9S12122   1.202   1.986   6.781 -0.5965  0.5828  0.5589
  116OSM    H9S12123   1.204   2.055   6.694 -0.5472  1.4270  1.2196
  116OSM    H9T12124   1.306   1.991   6.822  1.2563  1.8849 -3.7791
  116OSM   C10S12125   1.102   2.034   6.887 -0.3006 -0.7138 -0.1402
  116OSM   H10S12126   1.002   2.001   6.850 -2.0387  0.2248  3.3131
  116OSM   H10T12127   1.103   2.145   6.892  0.5631 -0.6967 -0.4967
  116OSM   C11S12128   1.125   1.989   7.030 -0.0029  0.4417 -0.1225
  116OSM   H11S12129   1.225   2.019   7.068  0.5084 -1.8626  0.5442
  116OSM   H11T12130   1.122   1.878   7.034  0.2525  0.4079 -0.7257
  116OSM   C12S12131   1.026   2.040   7.132  0.1895 -0.1635  1.3572
  116OSM   H12S12132   0.923   2.013   7.100 -0.0930  1.4470  0.8031
  116OSM   H12T12133   1.032   2.151   7.127  0.1227 -0.2213 -1.3611
  116OSM   C13S12134   1.041   1.988   7.274  0.7813 -0.4001  0.0151
  116OSM   H13S12135   1.052   1.877   7.265 -3.0621 -0.8001 -1.8948
  116OSM   H13T12136   0.941   2.000   7.322  0.6631 -0.4588 -0.2140
  116OSM   C14S12137   1.147   2.062   7.351 -0.5644  0.8958  0.4691
  116OSM   H14S12138   1.131   2.171   7.336  2.4139  1.1945 -1.2216
  116OSM   H14T12139   1.239   2.034   7.298 -0.7804 -0.2362  0.6683
  116OSM   C15S12140   1.149   2.019   7.499  0.7491 -0.3296  0.4933
  116OSM   H15S12141   1.229   2.078   7.550 -0.0180 -0.2595  1.6458
  116OSM   H15T12142   1.177   1.913   7.516  3.7421  0.6051  2.1066
  116OSM   C16S12143   1.020   2.044   7.566  0.4712 -0.2497  0.2487
  116OSM   H16S12144   0.939   1.979   7.527  1.2051 -2.1951  1.8271
  116OSM   H16T12145   0.983   2.147   7.544 -0.3382 -0.4593  0.6283
  116OSM   C17S12146   1.026   2.030   7.719 -0.5973  0.4706 -0.4827
  116OSM   H17S12147   1.092   1.944   7.742  1.9834  1.8909 -2.1333
  116OSM   H17T12148   0.927   2.025   7.770  0.4424 -0.7831  1.5288
  116OSM   C18S12149   1.083   2.159   7.776 -1.0439 -0.4424  0.3984
  116OSM   H18S12150   1.018   2.245   7.750 -1.7048 -1.1060 -0.1959
  116OSM   H18T12151   1.187   2.180   7.742 -1.6662 -2.5606 -3.2842
  116OSM   H18U12152   1.089   2.141   7.886 -0.0155 -1.8800  0.1371
  116OSM    C1F12153   1.529   1.926   6.566  0.3354  0.3051 -0.5045
  116OSM     OF12154   1.542   2.045   6.554 -0.5762 -0.2886  0.3553
  116OSM    C2F12155   1.575   1.853   6.689  0.1141 -0.5615 -0.0123
  116OSM    H2F12156   1.625   1.755   6.678 -0.6000 -0.7932 -1.4467
  116OSM    H2G12157   1.491   1.843   6.762  0.8162  1.8370  1.2178
  116OSM    C3F12158   1.666   1.948   6.774 -0.0326 -0.0239  0.7430
  116OSM    H3F12159   1.611   2.035   6.816  1.2299  1.9072 -1.3947
  116OSM    H3G12160   1.755   1.973   6.714 -0.5478 -0.9063 -0.4335
  116OSM    C4F12161   1.722   1.881   6.897 -0.5938  0.3912 -0.1444
  116OSM    H4F12162   1.811   1.820   6.872 -1.7760 -0.3484 -2.9543
  116OSM    H4G12163   1.650   1.821   6.957  0.8585  0.3641  1.6304
  116OSM    C5F12164   1.793   1.996   6.983 -0.6594 -0.4227  0.5106
  116OSM    H5F12165   1.711   2.065   7.013 -0.3848  0.0498  0.1773
  116OSM    H5G12166   1.866   2.049   6.918 -0.6169 -0.6505  0.3728
  116OSM    C6F12167   1.862   1.941   7.107  0.2169  0.0412 -0.1872
  116OSM    H6F12168   1.946   1.873   7.082 -0.2896 -0.5307 -0.3459
  116OSM    H6G12169   1.778   1.890   7.159  0.0522 -0.5017 -0.9804
  116OSM    C7F12170   1.925   2.036   7.203  0.6057  0.0352 -0.4813
  116OSM    H7F12171   1.859   2.117   7.239  0.6922  0.0943 -0.4564
  116OSM    H7G12172   2.014   2.086   7.160  0.3759  0.6906 -0.1984
  116OSM    C8F12173   1.972   1.982   7.339  0.8176  0.4264  0.7369
  116OSM    H8F12174   2.042   2.054   7.385 -0.8502  1.4753  1.7455
  116OSM    H8G12175   2.023   1.889   7.306  0.3805  0.7588 -1.0146
  116OSM    C9F12176   1.861   1.945   7.434 -0.0950  0.2383 -0.0557
  116OSM    H9F12177   1.761   1.966   7.391  0.9968  1.4257 -2.1866
  116OSM   C10F12178   1.878   1.905   7.562 -0.0626  0.2122 -0.0743
  116OSM   H10F12179   1.794   1.878   7.627  0.1334  0.2428  0.1934
  116OSM   C11F12180   2.011   1.883   7.625  0.4672 -0.4095  0.6766
  116OSM   H11F12181   2.090   1.911   7.552 -0.8010 -0.7418 -0.8723
  116OSM   H11G12182   2.025   1.776   7.651  1.2606 -0.5785 -0.3612
  116OSM   C12F12183   2.008   1.953   7.758 -0.3548  0.3755 -0.8920
  116OSM   H12F12184   1.924   1.917   7.822  3.0109 -0.9662  3.2639
  116OSM   H12G12185   2.009   2.062   7.740 -0.7206  0.3171 -1.2739
  116OSM   C13F12186   2.133   1.915   7.836 -0.2298 -0.2450 -0.0394
  116OSM   H13F12187   2.216   1.926   7.763  0.2245 -0.7936  0.3854
  116OSM   H13G12188   2.140   1.807   7.857 -1.9553 -0.0382  1.8817
  116OSM   C14F12189   2.143   1.989   7.968 -0.1760  0.2744  0.6243
  116OSM   H14F12190   2.067   1.938   8.031 -0.1906 -0.2837  0.1640
  116OSM   H14G12191   2.108   2.092   7.949 -1.1735 -0.2694 -0.6549
  116OSM   C15F12192   2.279   1.998   8.032  0.4586  0.6097  0.2651
  116OSM   H15F12193   2.339   2.075   7.980 -1.7752  2.3934  0.1769
  116OSM   H15G12194   2.317   1.895   8.014 -2.0408 -0.7590  2.0936
  116OSM   C16F12195   2.282   2.030   8.184  0.2388  0.0328 -0.3566
  116OSM   H16F12196   2.383   2.022   8.228  0.9711 -0.2043 -2.0065
  116OSM   H16G12197   2.221   1.956   8.240  0.0353  0.0659 -0.5333
  116OSM   C17F12198   2.221   2.173   8.195  0.2330 -0.4026  0.4715
  116OSM   H17F12199   2.115   2.169   8.160  0.1540  0.9322  0.5101
  116OSM   H17G12200   2.287   2.243   8.140 -0.7717  0.5890  0.4878
  116OSM   C18F12201   2.221   2.237   8.337 -0.2276 -0.2752  0.4435
  116OSM   H18F12202   2.122   2.283   8.360  0.3155  1.2395 -0.1675
  116OSM   H18G12203   2.296   2.319   8.333 -0.2601 -0.2769 -0.5293
  116OSM   H18H12204   2.235   2.148   8.401 -0.5558 -0.5531  0.1365
  117OSM      N12205   0.190   3.516   6.084 -0.3435 -0.2299  0.1362
  117OSM    C1512206   0.210   3.549   6.232 -0.4009 -0.5670 -0.9376
  117OSM   H15A12207   0.313   3.528   6.260 -1.1454 -1.6362  1.2177
  117OSM   H15B12208   0.160   3.475   6.291 -1.5155  0.2704 -0.8000
  117OSM   H15C12209   0.179   3.649   6.259 -3.1094 -1.6569  0.3376
  117OSM    C1412210   0.040   3.500   6.066 -0.2780 -0.4368  0.1653
  117OSM   H14A12211   0.026   3.450   5.972  2.9120  1.3345 -1.4407
  117OSM   H14B12212  -0.015   3.593   6.060 -1.6910 -1.2288  0.4278
  117OSM   H14C12213  -0.006   3.442   6.144 -1.2662 -0.4160 -0.3890
  117OSM    C1312214   0.238   3.627   6.001 -0.4967 -0.5064 -0.3271
  117OSM   H13A12215   0.253   3.607   5.896  0.9060 -0.4852 -0.1533
  117OSM   H13B12216   0.338   3.643   6.038 -0.6054  0.2265 -0.3247
  117OSM   H13C12217   0.186   3.722   5.999  1.4190  0.5880 -1.9793
  117OSM    C1212218   0.258   3.388   6.061  0.5846  0.2263  0.5852
  117OSM   H12A12219   0.238   3.348   5.963  2.1421 -2.5646  1.2877
  117OSM   H12B12220   0.220   3.319   6.136 -1.8241 -0.9069 -1.5141
  117OSM    C1112221   0.410   3.378   6.062 -0.0251  0.5286 -0.1442
  117OSM   H11A12222   0.460   3.442   5.985  1.6906 -0.6187 -0.0414
  117OSM   H11B12223   0.435   3.271   6.048 -0.2424  0.4471  0.0893
  117OSM      P12224   0.603   3.410   6.238  0.3152 -0.0425 -0.1110
  117OSM    O1312225   0.639   3.264   6.241  0.2579 -0.2368 -0.0484
  117OSM    O1412226   0.686   3.508   6.162 -0.6176 -0.4131  0.0671
  117OSM    O1112227   0.599   3.460   6.386 -0.1693 -0.1364  0.5301
  117OSM    O1212228   0.458   3.419   6.189  0.3004 -0.4607  0.8016
  117OSM    C1S12229   0.536   3.367   6.480 -0.4312 -0.6257  0.5171
  117OSM    H1S12230   0.598   3.275   6.480  1.1993  0.3136 -2.9301
  117OSM    H1T12231   0.429   3.355   6.455 -1.0057  1.5001  1.6913
  117OSM     NF12232   0.496   3.331   6.725  0.2280  0.0035 -0.1720
  117OSM    HNF12233   0.406   3.343   6.766  0.2190  0.5955 -0.3623
  117OSM    C2S12234   0.527   3.431   6.626 -0.0255  0.2930 -0.0469
  117OSM    H2S12235   0.631   3.462   6.647 -0.0301 -0.9043  1.9933
  117OSM    C3S12236   0.429   3.555   6.611 -0.5761  0.2326  0.2045
  117OSM    H3S12237   0.329   3.518   6.577 -0.9095  1.6803 -0.4583
  117OSM     O312238   0.474   3.654   6.516 -0.1119  0.2548 -0.3205
  117OSM    HO312239   0.532   3.606   6.457  0.7461  0.3766  0.3967
  117OSM    C4S12240   0.412   3.613   6.754 -0.3269  0.4065  0.9044
  117OSM    H4S12241   0.507   3.659   6.785  1.2610 -2.2339  0.2371
  117OSM    C5S12242   0.307   3.609   6.837 -0.1610 -0.2230 -0.5370
  117OSM    H5S12243   0.219   3.557   6.797  0.1438 -0.2812 -1.1387
  117OSM    C6S12244   0.302   3.663   6.980  0.2481  0.2753 -0.0843
  117OSM    H6S12245   0.235   3.751   6.982 -2.2414 -1.4196  4.0398
  117OSM    H6T12246   0.397   3.704   7.019  1.0305 -1.6613  0.1428
  117OSM    C7S12247   0.242   3.550   7.075  0.0385 -0.0269 -0.7909
  117OSM    H7S12248   0.308   3.462   7.088  0.1446  0.2356  0.5786
  117OSM    H7T12249   0.149   3.506   7.031 -0.4344 -1.1393  1.2041
  117OSM    C8S12250   0.203   3.613   7.210  0.0492  0.4277  0.9914
  117OSM    H8S12251   0.163   3.716   7.199  3.5134  2.0618  2.1283
  117OSM    H8T12252   0.300   3.638   7.258  0.1347  3.3891 -0.4897
  117OSM    C9S12253   0.104   3.526   7.290  0.2544  0.1013  0.0647
  117OSM    H9S12254   0.144   3.422   7.286 -0.2502 -0.0588 -1.0376
  117OSM    H9T12255   0.010   3.548   7.235  0.8990  1.2675 -0.5974
  117OSM   C10S12256   0.097   3.568   7.436  0.1202  0.4293 -0.3752
  117OSM   H10S12257   0.069   3.675   7.441  1.7165  0.8461  0.4369
  117OSM   H10T12258   0.203   3.576   7.470 -0.1776 -2.9073  1.7890
  117OSM   C11S12259   0.013   3.483   7.535  0.5318  0.0177  0.2207
  117OSM   H11S12260   0.059   3.383   7.550 -0.7085 -0.4827  0.8111
  117OSM   H11T12261  -0.089   3.463   7.498  0.8148  0.3713 -0.7839
  117OSM   C12S12262  -0.002   3.549   7.669 -0.0649 -0.0634 -0.0990
  117OSM   H12S12263  -0.071   3.636   7.659 -0.2982 -0.1559  0.6186
  117OSM   H12T12264   0.094   3.586   7.712  1.9212 -1.9535 -2.5910
  117OSM   C13S12265  -0.066   3.462   7.775  0.0005 -0.0817 -0.7864
  117OSM   H13S12266  -0.017   3.365   7.795 -1.0181 -0.4114  0.2310
  117OSM   H13T12267  -0.166   3.433   7.738 -0.3680 -0.8961  0.7399
  117OSM   C14S12268  -0.078   3.538   7.907  0.4863 -0.0202 -0.9104
  117OSM   H14S12269  -0.173   3.510   7.957  1.2190  0.1875  0.6606
  117OSM   H14T12270  -0.107   3.641   7.875 -3.1665  0.1259  2.1764
  117OSM   C15S12271   0.039   3.528   8.007 -0.0603  0.0820  0.0836
  117OSM   H15S12272   0.007   3.606   8.079 -0.9537 -0.2723  0.0862
  117OSM   H15T12273   0.142   3.542   7.967  0.1646 -1.8847 -0.1188
  117OSM   C16S12274   0.025   3.392   8.075  0.5095 -0.1108  0.0725
  117OSM   H16S12275   0.031   3.306   8.005  0.3653 -2.3838  2.6420
  117OSM   H16T12276  -0.076   3.378   8.119  0.0836 -1.0621 -1.1666
  117OSM   C17S12277   0.122   3.377   8.194 -0.1963 -0.2978 -0.5071
  117OSM   H17S12278   0.087   3.455   8.265 -1.4568 -0.2263 -1.1720
  117OSM   H17T12279   0.221   3.398   8.150 -0.0827 -0.3051 -0.2575
  117OSM   C18S12280   0.125   3.233   8.255 -0.0654 -0.1186 -0.2555
  117OSM   H18S12281   0.020   3.209   8.281 -0.2326 -0.9511 -1.6260
  117OSM   H18T12282   0.172   3.235   8.356 -0.5397  0.4020 -0.0446
  117OSM   H18U12283   0.159   3.165   8.174 -2.9698 -0.7836 -1.0126
  117OSM    C1F12284   0.569   3.219   6.753  0.2823 -0.0285  0.9240
  117OSM     OF12285   0.669   3.204   6.688 -0.3972 -0.2894  0.0248
  117OSM    C2F12286   0.531   3.132   6.866 -0.2781  0.1691  0.9334
  117OSM    H2F12287   0.623   3.086   6.907 -0.5574 -0.0583  1.3075
  117OSM    H2G12288   0.458   3.058   6.827 -2.2280  0.8771  2.9966
  117OSM    C3F12289   0.458   3.207   6.975  0.2258 -0.0526 -0.2925
  117OSM    H3F12290   0.351   3.220   6.950 -0.3398 -4.5417 -1.0826
  117OSM    H3G12291   0.502   3.305   7.004  0.3033 -0.8218  2.5108
  117OSM    C4F12292   0.461   3.130   7.107 -0.0597 -0.1813 -0.1634
  117OSM    H4F12293   0.565   3.106   7.138 -0.6162 -3.5876 -0.4823
  117OSM    H4G12294   0.421   3.026   7.107 -1.6079  0.2928  3.0246
  117OSM    C5F12295   0.393   3.210   7.229 -0.2524  0.1335 -0.1349
  117OSM    H5F12296   0.283   3.211   7.214 -0.2903 -1.2167 -0.1256
  117OSM    H5G12297   0.422   3.317   7.230  0.3588 -0.0316  0.1193
  117OSM    C6F12298   0.410   3.136   7.357  0.4954 -0.0192 -0.5478
  117OSM    H6F12299   0.519   3.115   7.366  1.1596  1.7132 -3.3162
  117OSM    H6G12300   0.353   3.041   7.354 -1.2178  0.9953 -1.5183
  117OSM    C7F12301   0.372   3.221   7.486  0.0784 -0.5269  0.4064
  117OSM    H7F12302   0.269   3.260   7.476 -0.2040 -0.6311  2.5372
  117OSM    H7G12303   0.436   3.311   7.495 -0.2814  0.0285 -1.9543
  117OSM    C8F12304   0.364   3.147   7.615  0.5953 -0.3306 -0.1992
  117OSM    H8F12305   0.466   3.123   7.653 -0.5575 -1.9334  2.0914
  117OSM    H8G12306   0.311   3.051   7.597  1.1948 -1.2673  2.6705
  117OSM    C9F12307   0.290   3.216   7.717 -0.2292  0.3505 -0.2599
  117OSM    H9F12308   0.183   3.192   7.710  0.2817 -1.6683 -2.1569
  117OSM   C10F12309   0.323   3.300   7.814 -0.3577  0.4986  0.5933
  117OSM   H10F12310   0.248   3.328   7.890 -2.6353  0.7418 -1.5973
  117OSM   C11F12311   0.462   3.341   7.853  0.2915 -0.2237 -0.5890
  117OSM   H11F12312   0.522   3.311   7.765 -2.5866  0.5521 -2.9802
  117OSM   H11G12313   0.505   3.301   7.947 -2.0282 -1.8208 -0.1117
  117OSM   C12F12314   0.459   3.495   7.858 -0.7298 -0.6776 -0.4015
  117OSM   H12F12315   0.562   3.532   7.873 -1.3308  1.1057 -0.5269
  117OSM   H12G12316   0.400   3.534   7.944 -0.1231 -0.4786 -0.0646
  117OSM   C13F12317   0.425   3.564   7.730  0.1029 -0.1957  0.0219
  117OSM   H13F12318   0.338   3.522   7.676 -1.2434  1.9476  0.3854
  117OSM   H13G12319   0.519   3.559   7.670  1.3565 -2.9184  2.0142
  117OSM   C14F12320   0.382   3.713   7.759 -0.6159  0.9787  0.6400
  117OSM   H14F12321   0.468   3.775   7.790  0.0565  0.4945 -0.2176
  117OSM   H14G12322   0.308   3.714   7.842 -1.1539  1.2143  0.1696
  117OSM   C15F12323   0.332   3.792   7.633 -0.1773 -0.3558  0.4222
  117OSM   H15F12324   0.298   3.892   7.666 -3.7962 -1.4488  0.4774
  117OSM   H15G12325   0.238   3.750   7.591  0.6222  0.1729 -2.0242
  117OSM   C16F12326   0.436   3.806   7.514  0.1704  0.3240  0.3345
  117OSM   H16F12327   0.460   3.707   7.470  0.4722  0.3912  0.3491
  117OSM   H16G12328   0.530   3.851   7.550  0.4290 -0.0900  0.1805
  117OSM   C17F12329   0.372   3.886   7.401 -0.6150  0.0315  0.1078
  117OSM   H17F12330   0.275   3.835   7.384  0.0263 -1.3634  0.4433
  117OSM   H17G12331   0.345   3.990   7.430 -1.8567 -0.3691  0.4154
  117OSM   C18F12332   0.450   3.881   7.270 -0.2021  0.0282  0.3137
  117OSM   H18F12333   0.554   3.910   7.294  0.1660  0.1963 -1.3672
  117OSM   H18G12334   0.428   3.969   7.206 -0.4640 -1.3165 -1.4924
  117OSM   H18H12335   0.461   3.782   7.222  0.6717 -0.8432  2.1967
  118OSM      N12336   3.434   0.395   5.873  0.1099 -0.3398 -0.4316
  118OSM    C1512337   3.559   0.313   5.901 -0.5759  0.2662 -0.6535
  118OSM   H15A12338   3.647   0.356   5.855  0.4810 -3.4867 -2.4824
  118OSM   H15B12339   3.566   0.217   5.852  0.7886 -0.0063  0.0255
  118OSM   H15C12340   3.563   0.293   6.007  1.2736  1.2035 -0.5087
  118OSM    C1412341   3.449   0.526   5.947 -0.1329 -0.1657  0.2978
  118OSM   H14A12342   3.369   0.595   5.927  0.0370 -0.3569 -1.1322
  118OSM   H14B12343   3.534   0.579   5.906 -0.1663  0.8833  1.5209
  118OSM   H14C12344   3.467   0.507   6.052  2.7426  0.7357  0.0614
  118OSM    C1312345   3.430   0.434   5.723 -0.0600  1.1850  0.1729
  118OSM   H13A12346   3.417   0.342   5.669  2.3631  0.1132  1.2251
  118OSM   H13B12347   3.525   0.479   5.696  1.0154 -0.1775  1.4534
  118OSM   H13C12348   3.348   0.498   5.695 -1.6066 -0.0334  1.7222
  118OSM    C1212349   3.309   0.312   5.902  0.0879 -0.5307 -0.1484
  118OSM   H12A12350   3.317   0.234   5.827 -1.4643  1.6860 -2.8080
  118OSM   H12B12351   3.215   0.354   5.867 -1.8012 -3.1955  1.3757
  118OSM    C1112352   3.288   0.249   6.041 -0.2215  0.4718 -0.3169
  118OSM   H11A12353   3.191   0.196   6.033  1.0484 -1.9317 -0.8806
  118OSM   H11B12354   3.279   0.331   6.115  2.1928  0.5869 -0.0462
  118OSM      P12355   3.466   0.159   6.225  0.0932 -0.0579  0.1647
  118OSM    O1312356   3.546   0.033   6.240  0.6590 -0.1936 -0.2988
  118OSM    O1412357   3.542   0.289   6.225 -0.6084 -0.0668  0.1846
  118OSM    O1112358   3.349   0.158   6.334  0.5132 -0.8047 -0.0440
  118OSM    O1212359   3.388   0.160   6.087 -0.0843 -0.0823 -0.1623
  118OSM    C1S12360   3.282   0.036   6.366  0.0133 -0.0345 -0.3697
  118OSM    H1S12361   3.355  -0.044   6.390  0.6020  0.7902  0.6717
  118OSM    H1T12362   3.217   0.004   6.282 -1.4321  0.5847  0.4757
  118OSM     NF12363   3.171  -0.081   6.544 -0.5688  0.1681  0.2526
  118OSM    HNF12364   3.085  -0.117   6.509 -0.3116 -0.8619  0.6205
  118OSM    C2S12365   3.199   0.054   6.499 -0.2643 -0.3950  0.8823
  118OSM    H2S12366   3.253   0.124   6.566 -0.0815  0.2763  0.0477
  118OSM    C3S12367   3.072   0.130   6.458 -0.7207 -0.1669 -0.0263
  118OSM    H3S12368   3.016   0.081   6.375  0.4747 -0.1209 -0.8822
  118OSM     O312369   3.119   0.259   6.409  0.1108 -0.9361  0.3069
  118OSM    HO312370   3.214   0.259   6.422  0.0506 -1.5687  0.8011
  118OSM    C4S12371   2.966   0.147   6.571 -0.2260  0.3642  0.2165
  118OSM    H4S12372   2.918   0.052   6.597  0.4798 -0.2925 -0.8030
  118OSM    C5S12373   2.922   0.254   6.625  0.2698 -0.1895 -0.0409
  118OSM    H5S12374   2.962   0.350   6.589 -0.6647 -1.0134 -3.8040
  118OSM    C6S12375   2.831   0.260   6.737  0.4897 -0.3423  0.4512
  118OSM    H6S12376   2.769   0.168   6.742 -0.0410 -0.0997 -0.9637
  118OSM    H6T12377   2.760   0.346   6.733  1.5752  0.6033  0.8378
  118OSM    C7S12378   2.905   0.277   6.872 -0.2348 -1.0620 -0.4686
  118OSM    H7S12379   2.951   0.377   6.874 -2.3878  0.0980  4.3504
  118OSM    H7T12380   2.979   0.195   6.887  0.0705 -1.0755 -1.8643
  118OSM    C8S12381   2.814   0.274   6.988  0.3159 -0.4238 -0.3983
  118OSM    H8S12382   2.761   0.176   6.982 -1.5303  0.3319  2.0307
  118OSM    H8T12383   2.740   0.356   6.984 -0.7502 -1.3181  0.4038
  118OSM    C9S12384   2.884   0.286   7.123  0.4153 -0.4982 -0.0517
  118OSM    H9S12385   2.952   0.374   7.129 -2.1058  1.5132  0.8027
  118OSM    H9T12386   2.949   0.196   7.137  0.2242 -0.5432  0.5735
  118OSM   C10S12387   2.786   0.286   7.238 -0.2550 -0.1361  0.6067
  118OSM   H10S12388   2.727   0.193   7.254  0.7496 -0.4986  2.5284
  118OSM   H10T12389   2.710   0.366   7.228 -0.7993 -0.2285  3.3491
  118OSM   C11S12390   2.869   0.310   7.364  0.0542 -0.5472 -0.7089
  118OSM   H11S12391   2.941   0.394   7.360 -2.5361  2.0376  2.1898
  118OSM   H11T12392   2.929   0.217   7.375  0.9510 -0.1844 -2.3183
  118OSM   C12S12393   2.776   0.325   7.486 -0.1881  0.3371  0.2335
  118OSM   H12S12394   2.706   0.240   7.473 -0.9175  1.1440 -1.4240
  118OSM   H12T12395   2.726   0.424   7.482  1.0698  1.1465  2.5710
  118OSM   C13S12396   2.853   0.311   7.620 -0.5248  0.0413 -0.5418
  118OSM   H13S12397   2.931   0.389   7.629 -0.3589 -0.3057  1.5133
  118OSM   H13T12398   2.895   0.209   7.633 -2.2704 -0.4987  1.2028
  118OSM   C14S12399   2.763   0.325   7.738 -0.2512  0.1079  0.7315
  118OSM   H14S12400   2.692   0.240   7.737  0.1333 -0.2156  0.7070
  118OSM   H14T12401   2.704   0.420   7.739  0.0694  0.3118  0.5710
  118OSM   C15S12402   2.845   0.328   7.865 -0.5020 -0.0849  0.5310
  118OSM   H15S12403   2.944   0.280   7.849 -0.1612  0.2572  1.5242
  118OSM   H15T12404   2.808   0.255   7.940  1.2386 -1.3902  0.1748
  118OSM   C16S12405   2.860   0.467   7.943 -0.4085 -0.2788  0.3195
  118OSM   H16S12406   2.899   0.534   7.863  1.9306  1.2952  2.5913
  118OSM   H16T12407   2.943   0.454   8.016 -0.2261 -0.6729  0.0456
  118OSM   C17S12408   2.732   0.522   7.998  0.8332 -0.1970  0.4246
  118OSM   H17S12409   2.675   0.556   7.908  1.1729  1.5434  0.8260
  118OSM   H17T12410   2.743   0.608   8.068 -1.6553 -0.0053  0.6700
  118OSM   C18S12411   2.655   0.412   8.073  0.5406  0.3555 -0.2984
  118OSM   H18S12412   2.603   0.334   8.014  1.1921 -1.5224  1.4761
  118OSM   H18T12413   2.582   0.469   8.135 -1.7148 -2.4157 -0.1940
  118OSM   H18U12414   2.727   0.364   8.142  1.4859  1.6336 -0.3799
  118OSM    C1F12415   3.257  -0.155   6.618  1.1640  0.4743  0.1031
  118OSM     OF12416   3.376  -0.133   6.624 -0.2109  0.5428 -0.1743
  118OSM    C2F12417   3.201  -0.280   6.687  0.4275 -0.1652 -0.0747
  118OSM    H2F12418   3.287  -0.329   6.739  0.7180 -0.3352 -0.6973
  118OSM    H2G12419   3.171  -0.356   6.612 -0.3255 -2.1368  2.1105
  118OSM    C3F12420   3.083  -0.258   6.789  0.2532  0.4283  0.4367
  118OSM    H3F12421   3.060  -0.353   6.841  0.9553  0.4290  0.7610
  118OSM    H3G12422   2.991  -0.250   6.727 -0.3138 -2.7836  0.7331
  118OSM    C4F12423   3.098  -0.146   6.893  0.5351  0.5356  0.0605
  118OSM    H4F12424   3.113  -0.042   6.856 -2.9021  2.1508  2.6892
  118OSM    H4G12425   3.185  -0.155   6.962  0.7537  2.3524  0.0759
  118OSM    C5F12426   2.978  -0.153   6.991 -0.6561  0.1654  0.3703
  118OSM    H5F12427   2.996  -0.075   7.068  1.6157  0.5836 -0.5142
  118OSM    H5G12428   2.970  -0.253   7.038 -1.3727 -0.2105 -0.5263
  118OSM    C6F12429   2.848  -0.096   6.934 -0.0976 -0.4085  0.1016
  118OSM    H6F12430   2.798  -0.163   6.861 -0.2522 -2.2928  1.8464
  118OSM    H6G12431   2.873   0.001   6.885  0.7809  0.1553  1.6260
  118OSM    C7F12432   2.744  -0.072   7.052 -1.0920 -0.2800 -0.3048
  118OSM    H7F12433   2.657  -0.021   7.006 -2.0359  1.1539  2.7557
  118OSM    H7G12434   2.790  -0.004   7.128  0.4112 -1.6475  0.0550
  118OSM    C8F12435   2.707  -0.211   7.111  0.1353  0.0381  0.8689
  118OSM    H8F12436   2.782  -0.252   7.182  1.3379 -1.3454 -1.0718
  118OSM    H8G12437   2.709  -0.284   7.027  0.5955  0.0974  0.8255
  118OSM    C9F12438   2.576  -0.200   7.187  0.6381 -0.1641  0.2531
  118OSM    H9F12439   2.490  -0.250   7.140  0.8893 -1.2687  0.9244
  118OSM   C10F12440   2.554  -0.148   7.307  0.0332  0.1884  0.0283
  118OSM   H10F12441   2.451  -0.157   7.347 -0.6079  0.2318 -1.5395
  118OSM   C11F12442   2.663  -0.089   7.396  0.4128  0.1936  0.8218
  118OSM   H11F12443   2.650   0.018   7.423  1.5145  1.2454 -2.3218
  118OSM   H11G12444   2.764  -0.099   7.351  0.1431 -2.3537  0.6339
  118OSM   C12F12445   2.683  -0.168   7.527 -0.3856  0.1532 -0.6433
  118OSM   H12F12446   2.742  -0.261   7.515 -1.6120 -0.6264 -0.8567
  118OSM   H12G12447   2.587  -0.183   7.581  0.3421  0.2436  0.7089
  118OSM   C13F12448   2.776  -0.106   7.634 -0.0503 -0.0684  0.2359
  118OSM   H13F12449   2.713  -0.023   7.671  0.6489  1.3233 -1.4953
  118OSM   H13G12450   2.864  -0.053   7.591 -0.7435  0.4774 -0.5459
  118OSM   C14F12451   2.802  -0.187   7.761 -0.7131 -0.2376  0.4646
  118OSM   H14F12452   2.856  -0.283   7.751 -0.9491 -0.1992 -1.3521
  118OSM   H14G12453   2.700  -0.212   7.795 -1.0440 -0.7598 -0.8768
  118OSM   C15F12454   2.870  -0.106   7.868 -0.3399  0.2200 -0.0477
  118OSM   H15F12455   2.819  -0.008   7.875  0.7448  0.7645  0.6120
  118OSM   H15G12456   2.978  -0.088   7.851  0.1595 -0.9287  1.5984
  118OSM   C16F12457   2.868  -0.184   8.002 -0.4115 -0.4979 -0.2835
  118OSM   H16F12458   2.954  -0.253   7.990  1.2936  1.6097 -0.7464
  118OSM   H16G12459   2.773  -0.241   8.015 -1.7129  0.9813 -2.5000
  118OSM   C17F12460   2.884  -0.101   8.128  0.2577  0.1470 -0.4618
  118OSM   H17F12461   2.950  -0.013   8.110  0.2438  1.1941  3.5568
  118OSM   H17G12462   2.921  -0.168   8.208 -0.3788  1.2505  0.7966
  118OSM   C18F12463   2.745  -0.047   8.177  0.1039  0.4935 -0.0498
  118OSM   H18F12464   2.684  -0.125   8.227  0.4476 -0.6545 -1.3489
  118OSM   H18G12465   2.693  -0.009   8.086  0.7928  0.5435 -0.4287
  118OSM   H18H12466   2.771   0.029   8.253  1.8329  0.0526 -0.1628
  119OSM      N12467   2.944   5.658   5.500 -0.1273 -0.4779  0.2233
  119OSM    C1512468   2.979   5.677   5.356  0.7433  0.2200 -0.1319
  119OSM   H15A12469   3.083   5.674   5.327  0.0160  1.7553 -3.2993
  119OSM   H15B12470   2.939   5.772   5.327  0.1107  1.4280  3.9918
  119OSM   H15C12471   2.937   5.602   5.291 -1.5382  0.1925  1.2650
  119OSM    C1412472   2.794   5.631   5.512  0.2053 -0.3254 -0.2997
  119OSM   H14A12473   2.726   5.691   5.453 -1.4917 -2.0730 -0.1944
  119OSM   H14B12474   2.760   5.646   5.613 -1.6319 -2.5221 -0.5375
  119OSM   H14C12475   2.765   5.534   5.476  1.6610 -0.9292  0.0778
  119OSM    C1312476   3.015   5.544   5.562  0.7550 -0.3492  0.3543
  119OSM   H13A12477   3.123   5.552   5.555  0.8473 -2.4594 -2.1514
  119OSM   H13B12478   2.989   5.450   5.516  1.2061 -1.5549  2.4425
  119OSM   H13C12479   2.986   5.543   5.666 -1.2675  2.5506 -0.0501
  119OSM    C1212480   2.985   5.794   5.568 -0.3812 -0.3081 -1.1335
  119OSM   H12A12481   2.950   5.878   5.509 -2.1809 -0.3812 -0.2269
  119OSM   H12B12482   3.093   5.792   5.555  0.2031  0.8431  2.5404
  119OSM    C1112483   2.965   5.814   5.723  0.3778 -0.0310  0.2009
  119OSM   H11A12484   3.010   5.912   5.749  1.0756 -0.2450 -0.1721
  119OSM   H11B12485   3.034   5.738   5.766  1.3543  0.6147 -0.1894
  119OSM      P12486   2.790   5.675   5.854 -0.2770  0.0220 -0.1478
  119OSM    O1312487   2.643   5.668   5.846 -0.3254 -0.4145 -0.0134
  119OSM    O1412488   2.869   5.558   5.826 -0.3770  0.6767  0.6568
  119OSM    O1112489   2.816   5.726   6.005 -0.0591  0.0534 -0.3400
  119OSM    O1212490   2.829   5.795   5.763 -0.0827 -0.3595 -0.2404
  119OSM    C1S12491   2.926   5.663   6.078 -0.6572  0.0676  0.3342
  119OSM    H1S12492   3.024   5.706   6.049 -0.3591 -1.8466 -1.7087
  119OSM    H1T12493   2.931   5.552   6.068  2.6741  0.2189 -0.6690
  119OSM     NF12494   3.012   5.648   6.308 -0.6162  0.3372  0.7115
  119OSM    HNF12495   3.011   5.557   6.349 -0.4961 -1.0149 -2.0552
  119OSM    C2S12496   2.898   5.677   6.221 -0.0855  0.4489 -0.4489
  119OSM    H2S12497   2.885   5.786   6.239  1.1070  0.3245  1.3480
  119OSM    C3S12498   2.767   5.595   6.268 -0.6268 -0.0393  0.2009
  119OSM    H3S12499   2.801   5.490   6.276  0.5031  0.3923  1.4583
  119OSM     O312500   2.649   5.588   6.185 -0.0943  0.4160  0.0047
  119OSM    HO312501   2.682   5.627   6.104  0.2508 -4.6786 -2.6890
  119OSM    C4S12502   2.731   5.643   6.404  0.0331 -0.8635  0.2620
  119OSM    H4S12503   2.756   5.749   6.413  1.9142 -1.3111  0.7490
  119OSM    C5S12504   2.703   5.579   6.515  0.0613 -0.0375  0.7427
  119OSM    H5S12505   2.721   5.471   6.513  0.8362  0.1024 -1.1004
  119OSM    C6S12506   2.686   5.641   6.650  0.1448 -0.4270  0.5350
  119OSM    H6S12507   2.749   5.595   6.729 -0.1910  0.4277  1.3257
  119OSM    H6T12508   2.585   5.622   6.692  0.2117 -0.8607  0.4986
  119OSM    C7S12509   2.713   5.789   6.671  0.6974 -0.6383  0.2072
  119OSM    H7S12510   2.634   5.846   6.617  2.1426  0.4098 -0.8730
  119OSM    H7T12511   2.809   5.826   6.630 -0.2337  2.9464  0.9271
  119OSM    C8S12512   2.722   5.837   6.823  0.3188 -0.1128  0.5825
  119OSM    H8S12513   2.740   5.947   6.819 -1.5458  0.2279  0.4144
  119OSM    H8T12514   2.820   5.796   6.855  0.7781 -1.2851 -2.0051
  119OSM    C9S12515   2.610   5.813   6.916  0.0187  0.3248 -0.1160
  119OSM    H9S12516   2.563   5.716   6.889  1.8811 -0.9000  0.8125
  119OSM    H9T12517   2.533   5.893   6.917 -0.0683  0.2496 -0.5959
  119OSM   C10S12518   2.662   5.810   7.061 -0.4959  0.2301  0.4551
  119OSM   H10S12519   2.719   5.905   7.065  1.4001 -0.7701 -0.9705
  119OSM   H10T12520   2.748   5.741   7.071 -1.4668 -1.1914 -0.6094
  119OSM   C11S12521   2.553   5.809   7.164  0.9784  0.0125 -0.4411
  119OSM   H11S12522   2.490   5.718   7.162  0.2013  0.4955  0.7718
  119OSM   H11T12523   2.485   5.894   7.138  2.4435  0.8250 -1.7733
  119OSM   C12S12524   2.602   5.848   7.305  0.2374  0.0162 -0.3861
  119OSM   H12S12525   2.649   5.947   7.317  1.8899 -0.5179 -2.0270
  119OSM   H12T12526   2.694   5.792   7.330 -0.0943  0.3021  1.7139
  119OSM   C13S12527   2.488   5.834   7.407 -0.5860  0.3265  0.2836
  119OSM   H13S12528   2.425   5.746   7.380 -1.7221  1.3776 -0.6051
  119OSM   H13T12529   2.426   5.926   7.400 -1.7879 -0.5901 -2.4213
  119OSM   C14S12530   2.553   5.831   7.547 -0.5969 -0.2393 -0.6593
  119OSM   H14S12531   2.601   5.929   7.565 -0.6156 -0.2822 -0.3775
  119OSM   H14T12532   2.637   5.760   7.565  0.9833  1.7059 -0.0021
  119OSM   C15S12533   2.459   5.804   7.663 -0.2751  0.3508 -0.2024
  119OSM   H15S12534   2.432   5.698   7.645 -1.5756  0.7913 -1.0171
  119OSM   H15T12535   2.365   5.863   7.675 -0.1498  0.0470  3.3705
  119OSM   C16S12536   2.537   5.820   7.794  0.8212  0.0330  0.6127
  119OSM   H16S12537   2.584   5.921   7.798 -2.8419  1.8880  1.2026
  119OSM   H16T12538   2.608   5.736   7.810 -1.3356 -1.7466  1.3921
  119OSM   C17S12539   2.443   5.812   7.923  0.8132  0.5405  0.5465
  119OSM   H17S12540   2.369   5.730   7.911  1.0394  0.3569  0.3989
  119OSM   H17T12541   2.385   5.907   7.931  0.8043  0.6796 -0.8122
  119OSM   C18S12542   2.525   5.798   8.049  0.2355  0.5301 -1.1168
  119OSM   H18S12543   2.635   5.786   8.038  0.5179  1.2988  0.6244
  119OSM   H18T12544   2.484   5.717   8.114  0.3688  1.5030  0.2093
  119OSM   H18U12545   2.511   5.891   8.108 -1.0392  0.8087 -1.8086
  119OSM    C1F12546   3.133   5.705   6.300  0.3742  0.0773 -0.3957
  119OSM     OF12547   3.156   5.805   6.229  0.4112  0.3754 -0.7408
  119OSM    C2F12548   3.244   5.660   6.392 -0.4054  1.0329  0.4983
  119OSM    H2F12549   3.314   5.600   6.329 -1.9059 -1.7003  1.2866
  119OSM    H2G12550   3.207   5.584   6.464 -2.2141  1.2722 -0.1344
  119OSM    C3F12551   3.315   5.775   6.451  0.4294 -0.0103 -0.4237
  119OSM    H3F12552   3.239   5.840   6.500  0.6847 -0.8873  1.2092
  119OSM    H3G12553   3.350   5.837   6.366 -3.1917 -2.5012 -4.1162
  119OSM    C4F12554   3.433   5.739   6.545  0.0815  0.1331 -0.1437
  119OSM    H4F12555   3.485   5.832   6.576  1.0054 -0.4863  0.2167
  119OSM    H4G12556   3.500   5.676   6.483  1.2037  1.7167 -0.6020
  119OSM    C5F12557   3.396   5.665   6.678  0.4744 -0.9848 -0.1813
  119OSM    H5F12558   3.481   5.674   6.749  0.8616  2.0183 -0.9040
  119OSM    H5G12559   3.354   5.565   6.651 -0.4156 -0.4881 -0.6670
  119OSM    C6F12560   3.271   5.725   6.750 -0.7484 -0.1897 -0.3275
  119OSM    H6F12561   3.184   5.748   6.684 -1.5805 -0.6344  0.5846
  119OSM    H6G12562   3.279   5.823   6.802 -2.9387  0.4358 -1.0359
  119OSM    C7F12563   3.219   5.627   6.863 -0.1271 -0.3273  0.4289
  119OSM    H7F12564   3.312   5.601   6.918  0.3054  0.7826  0.2567
  119OSM    H7G12565   3.180   5.541   6.804 -1.1300 -0.0523  0.6700
  119OSM    C8F12566   3.094   5.675   6.950 -0.6919  0.4487 -0.1124
  119OSM    H8F12567   3.046   5.582   6.987  0.4771  0.2442  0.9566
  119OSM    H8G12568   3.030   5.726   6.875  1.0133  2.6678 -0.1640
  119OSM    C9F12569   3.141   5.769   7.053 -0.0270  0.2968  0.9996
  119OSM    H9F12570   3.107   5.871   7.029 -0.0581 -0.3681 -2.2861
  119OSM   C10F12571   3.219   5.746   7.154 -0.3581  0.0154  0.4756
  119OSM   H10F12572   3.233   5.835   7.216  2.1189  1.1309 -1.5380
  119OSM   C11F12573   3.281   5.615   7.195 -0.3172  0.0168  0.6223
  119OSM   H11F12574   3.390   5.618   7.173 -0.7133 -0.8175 -1.8069
  119OSM   H11G12575   3.238   5.533   7.133 -0.7704  2.0474 -1.9432
  119OSM   C12F12576   3.271   5.594   7.349  0.4686  0.4491 -0.2820
  119OSM   H12F12577   3.337   5.665   7.403  2.1343  0.0196 -1.6670
  119OSM   H12G12578   3.311   5.491   7.360 -1.6864 -0.3118  1.0593
  119OSM   C13F12579   3.133   5.597   7.409 -0.0723  0.6992 -0.8600
  119OSM   H13F12580   3.058   5.549   7.343 -0.1226 -1.3031  0.5549
  119OSM   H13G12581   3.103   5.704   7.421 -1.2661  0.4353 -1.2987
  119OSM   C14F12582   3.122   5.512   7.532  0.5139 -0.1174 -0.0965
  119OSM   H14F12583   3.209   5.523   7.599 -2.0083 -1.2210  3.7124
  119OSM   H14G12584   3.104   5.409   7.493  1.1933 -0.0544 -0.5895
  119OSM   C15F12585   3.002   5.549   7.625 -0.1049  0.0373  0.4167
  119OSM   H15F12586   2.981   5.460   7.688 -0.7800 -0.9953 -1.1880
  119OSM   H15G12587   2.908   5.573   7.570  0.1749  1.5649  0.5818
  119OSM   C16F12588   3.032   5.671   7.714  0.1034 -0.0031 -0.5581
  119OSM   H16F12589   3.092   5.751   7.666 -1.0533  1.5393  0.4791
  119OSM   H16G12590   3.089   5.629   7.799 -1.5966 -2.0610 -0.3290
  119OSM   C17F12591   2.903   5.729   7.777 -0.7829  0.0505  1.1311
  119OSM   H17F12592   2.860   5.645   7.835  0.6641 -1.3782  0.1983
  119OSM   H17G12593   2.832   5.765   7.699  0.2860 -0.3234 -0.0337
  119OSM   C18F12594   2.935   5.840   7.878 -0.0877  0.2062 -0.5255
  119OSM   H18F12595   2.956   5.938   7.830  0.0213  0.4181 -0.0543
  119OSM   H18G12596   3.032   5.823   7.931 -0.2554  0.9989  0.0617
  119OSM   H18H12597   2.861   5.854   7.960  1.8841 -2.8762  2.0429
  120OSM      N12598   1.250   2.915   6.151  0.3404  0.9203  0.2402
  120OSM    C1512599   1.185   2.815   6.237  0.0144  0.5797 -0.2831
  120OSM   H15A12600   1.211   2.711   6.225  1.0084  0.6046  1.3416
  120OSM   H15B12601   1.078   2.829   6.238 -0.0505  0.0722  0.1882
  120OSM   H15C12602   1.219   2.829   6.339  1.6596 -1.4235 -0.4828
  120OSM    C1412603   1.194   2.893   6.011  0.7376 -0.2783 -0.0440
  120OSM   H14A12604   1.219   2.794   5.977 -1.6587 -0.3553 -1.8656
  120OSM   H14B12605   1.223   2.961   5.932  0.0658  0.1088  0.0359
  120OSM   H14C12606   1.086   2.901   6.021  0.6349  0.9501 -1.7235
  120OSM    C1312607   1.212   3.056   6.184  0.0065  0.2558 -0.1684
  120OSM   H13A12608   1.110   3.082   6.211  1.1442  3.4191  1.6992
  120OSM   H13B12609   1.238   3.125   6.105 -0.9083 -0.8336 -1.4793
  120OSM   H13C12610   1.260   3.097   6.272 -2.4566  0.7093  1.0636
  120OSM    C1212611   1.402   2.887   6.149 -0.5522  0.5468  0.5169
  120OSM   H12A12612   1.448   2.970   6.096 -1.1904 -0.2800 -1.4507
  120OSM   H12B12613   1.420   2.795   6.095 -0.4285 -0.6418  2.5155
  120OSM    C1112614   1.470   2.875   6.283  0.4548  0.0210  0.1524
  120OSM   H11A12615   1.407   2.824   6.359  1.3094  1.5900  2.0331
  120OSM   H11B12616   1.483   2.979   6.320 -1.9275  1.0640 -1.6686
  120OSM      P12617   1.612   2.660   6.275  0.2009 -0.9992 -0.1255
  120OSM    O1312618   1.513   2.605   6.183 -0.2116 -0.1011 -0.4875
  120OSM    O1412619   1.755   2.620   6.262  0.3364 -0.0988 -0.2291
  120OSM    O1112620   1.564   2.614   6.423  0.5099 -0.0707 -0.2320
  120OSM    O1212621   1.596   2.818   6.266  0.0894  0.0492  0.4149
  120OSM    C1S12622   1.624   2.676   6.533 -1.0365 -0.3330 -0.3235
  120OSM    H1S12623   1.622   2.787   6.534  1.6587 -0.2118 -0.1590
  120OSM    H1T12624   1.731   2.646   6.544 -0.4993  1.5165 -0.1127
  120OSM     NF12625   1.602   2.700   6.782  0.0616  0.0348 -0.4491
  120OSM    HNF12626   1.660   2.654   6.849  0.0312 -0.0960 -0.5135
  120OSM    C2S12627   1.563   2.626   6.663 -0.5656  0.3154  0.0037
  120OSM    H2S12628   1.453   2.643   6.669 -0.6034  0.9473 -1.7302
  120OSM    C3S12629   1.597   2.473   6.681 -0.1467  0.1462  0.5346
  120OSM    H3S12630   1.705   2.451   6.690 -0.5874 -1.7963  1.6032
  120OSM     O312631   1.564   2.399   6.567 -0.1377  0.1707  0.1532
  120OSM    HO312632   1.575   2.465   6.498 -1.6695  1.2688  0.8878
  120OSM    C4S12633   1.529   2.417   6.813 -0.2384  0.4638 -0.8274
  120OSM    H4S12634   1.602   2.393   6.892 -1.1287 -0.4150 -0.2505
  120OSM    C5S12635   1.398   2.388   6.834  0.0389 -0.8041 -0.6496
  120OSM    H5S12636   1.329   2.384   6.749 -0.6227 -0.6173 -0.1272
  120OSM    C6S12637   1.335   2.343   6.961  0.2247  0.9291 -0.5697
  120OSM    H6S12638   1.301   2.237   6.956  1.0552  0.6399 -0.2490
  120OSM    H6T12639   1.242   2.403   6.974  0.3652  0.9993  0.1442
  120OSM    C7S12640   1.408   2.359   7.087  0.3850  0.4671 -0.0810
  120OSM    H7S12641   1.440   2.465   7.100  1.5919  0.2119 -0.7530
  120OSM    H7T12642   1.506   2.308   7.071 -0.0406 -0.6197  0.7540
  120OSM    C8S12643   1.328   2.314   7.209  0.4246  0.1030  0.0270
  120OSM    H8S12644   1.303   2.210   7.177  0.0648  0.5709 -1.2909
  120OSM    H8T12645   1.233   2.371   7.214  1.5364  1.9300  1.4745
  120OSM    C9S12646   1.394   2.312   7.346 -0.2775 -0.7404  0.0047
  120OSM    H9S12647   1.319   2.279   7.420 -0.0407 -0.6566  0.2834
  120OSM    H9T12648   1.414   2.413   7.387  0.1888 -1.6819  2.2718
  120OSM   C10S12649   1.522   2.224   7.356  0.4943 -0.4114 -0.9332
  120OSM   H10S12650   1.595   2.274   7.289  0.3379 -1.8828 -2.2602
  120OSM   H10T12651   1.495   2.121   7.324 -0.7989 -1.2273  2.3142
  120OSM   C11S12652   1.581   2.228   7.498 -0.2609  0.4172 -0.4063
  120OSM   H11S12653   1.569   2.328   7.546 -3.0674 -0.7190  1.4853
  120OSM   H11T12654   1.692   2.230   7.489 -0.0388  1.6269  1.7351
  120OSM   C12S12655   1.525   2.126   7.601  0.4718 -0.1474  0.0247
  120OSM   H12S12656   1.554   2.025   7.567  0.8954 -1.1287  3.0735
  120OSM   H12T12657   1.414   2.134   7.606  0.4585 -0.7842  1.0387
  120OSM   C13S12658   1.571   2.145   7.748  0.1881 -0.2548  0.5657
  120OSM   H13S12659   1.503   2.217   7.798  1.0419  1.0945 -0.1759
  120OSM   H13T12660   1.675   2.184   7.749 -1.1376  3.6814  1.4544
  120OSM   C14S12661   1.579   2.008   7.819 -0.0470 -0.3950 -1.0479
  120OSM   H14S12662   1.649   1.947   7.758  0.9334 -0.3781  0.0245
  120OSM   H14T12663   1.477   1.968   7.834 -0.7493  1.7800  0.5010
  120OSM   C15S12664   1.645   2.022   7.959 -0.0157  0.4857  0.8265
  120OSM   H15S12665   1.569   2.077   8.020 -0.7197 -1.0534  1.3840
  120OSM   H15T12666   1.734   2.088   7.953  1.3968 -1.3328  1.1098
  120OSM   C16S12667   1.695   1.894   8.028 -0.5703  0.3062  0.6421
  120OSM   H16S12668   1.776   1.908   8.103  2.8983  2.4707 -3.1381
  120OSM   H16T12669   1.756   1.828   7.964  0.0444 -2.0533  3.4406
  120OSM   C17S12670   1.577   1.803   8.056  0.0573  0.2607  0.9945
  120OSM   H17S12671   1.524   1.769   7.964  0.3636  0.0796  0.8866
  120OSM   H17T12672   1.504   1.844   8.129 -0.6056  0.4803  0.2285
  120OSM   C18S12673   1.640   1.679   8.125 -0.3067  0.0917 -0.5319
  120OSM   H18S12674   1.701   1.698   8.216  0.0534  0.8512 -0.9253
  120OSM   H18T12675   1.703   1.625   8.051  0.4185 -1.7505  1.3277
  120OSM   H18U12676   1.557   1.615   8.165 -0.2570  0.2733 -0.1314
  120OSM    C1F12677   1.574   2.829   6.803  0.2398 -0.2806 -0.5455
  120OSM     OF12678   1.520   2.906   6.726  0.1149 -0.5403 -0.1909
  120OSM    C2F12679   1.615   2.880   6.938 -0.1543 -0.1203  0.0596
  120OSM    H2F12680   1.672   2.974   6.923 -1.0463  0.2440 -1.2485
  120OSM    H2G12681   1.671   2.799   6.989 -1.9883 -0.2176  2.1007
  120OSM    C3F12682   1.491   2.916   7.024 -0.0310 -0.3964 -0.3422
  120OSM    H3F12683   1.430   2.993   6.970  0.5087  0.3697  0.1195
  120OSM    H3G12684   1.522   2.972   7.115 -1.1577  1.8589 -1.2760
  120OSM    C4F12685   1.406   2.800   7.067  0.2380  0.4117  0.1677
  120OSM    H4F12686   1.472   2.714   7.090 -1.7640 -1.7225 -1.6230
  120OSM    H4G12687   1.344   2.784   6.976  0.6434  0.2137 -0.0760
  120OSM    C5F12688   1.315   2.825   7.190 -0.2642  0.5558 -0.2075
  120OSM    H5F12689   1.220   2.772   7.165 -0.7240  0.1023  2.3023
  120OSM    H5G12690   1.293   2.933   7.206  1.2446  0.8366  0.1208
  120OSM    C6F12691   1.371   2.777   7.335  0.4393 -0.1011 -0.1230
  120OSM    H6F12692   1.467   2.830   7.350  2.1246 -3.1372  0.5197
  120OSM    H6G12693   1.398   2.670   7.345  0.6101 -0.0515 -0.0561
  120OSM    C7F12694   1.264   2.801   7.447  0.1265 -0.4928 -0.2391
  120OSM    H7F12695   1.170   2.743   7.431 -2.0314  1.9872  2.3476
  120OSM    H7G12696   1.241   2.909   7.441 -1.4743 -0.7536  0.6883
  120OSM    C8F12697   1.314   2.755   7.595  0.4964  0.1623 -0.0496
  120OSM    H8F12698   1.250   2.819   7.659 -0.6371 -1.3016  0.3240
  120OSM    H8G12699   1.424   2.767   7.609  0.4418  0.7504 -0.0916
  120OSM    C9F12700   1.279   2.607   7.608 -0.0567  0.5032  0.6425
  120OSM    H9F12701   1.218   2.565   7.528  0.5274 -2.0425  1.4409
  120OSM   C10F12702   1.332   2.521   7.692 -0.1524 -0.2048  0.1992
  120OSM   H10F12703   1.311   2.413   7.690  0.7385 -0.3840  0.3525
  120OSM   C11F12704   1.410   2.559   7.814 -0.4023  0.0356  0.3568
  120OSM   H11F12705   1.428   2.667   7.828 -0.9093  0.3866 -1.4931
  120OSM   H11G12706   1.510   2.512   7.799 -0.6754 -0.5955  0.4889
  120OSM   C12F12707   1.343   2.494   7.939  0.1562 -0.0846 -0.0986
  120OSM   H12F12708   1.421   2.496   8.019 -0.6048  0.3373  0.6435
  120OSM   H12G12709   1.311   2.393   7.908  0.1816  0.1924 -1.0612
  120OSM   C13F12710   1.220   2.573   7.974  0.8991 -0.1894  0.1205
  120OSM   H13F12711   1.144   2.580   7.894  0.1665  0.3215  0.8419
  120OSM   H13G12712   1.256   2.671   8.013  1.5481 -0.4033  0.0845
  120OSM   C14F12713   1.136   2.502   8.081  0.3563  0.8025 -0.3271
  120OSM   H14F12714   1.156   2.550   8.179  0.0669  0.6324 -0.1842
  120OSM   H14G12715   1.169   2.396   8.082 -2.3388 -0.1276  0.9996
  120OSM   C15F12716   0.984   2.487   8.059  0.1335  0.0789 -0.4277
  120OSM   H15F12717   0.951   2.442   7.964 -1.8800  0.2269  0.1535
  120OSM   H15G12718   0.935   2.586   8.076 -0.7587 -0.4553  0.1816
  120OSM   C16F12719   0.931   2.394   8.164  0.1290 -0.6365  0.1289
  120OSM   H16F12720   0.969   2.423   8.264 -2.3063  1.3394  0.5805
  120OSM   H16G12721   0.961   2.287   8.159 -0.4658 -0.8665  1.3122
  120OSM   C17F12722   0.781   2.381   8.176  0.1254  0.1041  0.2544
  120OSM   H17F12723   0.773   2.290   8.239  0.0962  0.2921  0.5255
  120OSM   H17G12724   0.733   2.370   8.076  1.4236  2.2381 -0.6930
  120OSM   C18F12725   0.720   2.503   8.248  0.6803 -0.8484 -0.7759
  120OSM   H18F12726   0.610   2.488   8.262  0.3228 -0.6258 -2.9706
  120OSM   H18G12727   0.725   2.597   8.188 -0.6120 -0.6392 -0.5986
  120OSM   H18H12728   0.769   2.517   8.347  0.4812  1.1633 -0.9148
  121OSM      N12729   2.696   5.175   5.989  0.0453 -0.2131 -0.3344
  121OSM    C1512730   2.570   5.223   5.928  0.1679 -0.1908  0.0026
  121OSM   H15A12731   2.502   5.139   5.919  1.8384 -1.5326 -0.6078
  121OSM   H15B12732   2.592   5.271   5.834  0.5858  1.9792  1.1467
  121OSM   H15C12733   2.513   5.297   5.981  0.2050  0.2880 -0.6196
  121OSM    C1412734   2.743   5.060   5.900 -0.2681 -0.0370 -0.0845
  121OSM   H14A12735   2.752   5.080   5.795 -0.2857  3.1203  0.4364
  121OSM   H14B12736   2.668   4.983   5.909  1.2149 -1.5582 -0.1808
  121OSM   H14C12737   2.838   5.026   5.942  0.2008  0.5174 -0.6824
  121OSM    C1312738   2.807   5.276   5.988 -0.1220 -0.2883 -0.1850
  121OSM   H13A12739   2.839   5.319   5.894 -1.0039 -1.1791 -0.9189
  121OSM   H13B12740   2.897   5.233   6.028 -0.5307 -2.3786 -1.3868
  121OSM   H13C12741   2.787   5.356   6.058  2.6195  1.7977 -1.5764
  121OSM    C1212742   2.678   5.125   6.130  0.0315 -0.4025  0.9137
  121OSM   H12A12743   2.621   5.034   6.125 -0.4944 -0.2581  3.3438
  121OSM   H12B12744   2.624   5.198   6.188 -2.0346 -1.5852  0.5711
  121OSM    C1112745   2.810   5.082   6.206  0.2318 -0.2398 -0.2890
  121OSM   H11A12746   2.771   5.027   6.294 -1.6104 -1.7391 -1.9549
  121OSM   H11B12747   2.867   5.172   6.237  1.2448 -0.3829 -1.6442
  121OSM      P12748   2.882   4.842   6.156  0.7630  0.0217  0.2765
  121OSM    O1312749   2.747   4.797   6.142 -0.1280 -0.0110  0.5122
  121OSM    O1412750   2.974   4.772   6.071  0.4213 -0.3008  0.7021
  121OSM    O1112751   2.931   4.823   6.304  1.1463  0.3086 -0.0804
  121OSM    O1212752   2.896   4.998   6.129  0.1608 -0.7611 -0.2472
  121OSM    C1S12753   3.054   4.877   6.354 -0.2984  0.5793  0.2623
  121OSM    H1S12754   3.069   4.983   6.325  0.0998  1.0563  2.0955
  121OSM    H1T12755   3.131   4.809   6.311 -1.2593 -0.0390 -0.5201
  121OSM     NF12756   3.153   4.969   6.567 -0.0486 -0.0030 -0.2741
  121OSM    HNF12757   3.247   4.939   6.586  0.4626  1.3063 -0.6504
  121OSM    C2S12758   3.061   4.874   6.506  0.2803 -0.3000 -0.7682
  121OSM    H2S12759   2.962   4.904   6.546  0.6684 -0.0948  0.0797
  121OSM    C3S12760   3.085   4.726   6.547 -0.0759  0.8481  0.2753
  121OSM    H3S12761   3.185   4.692   6.513 -1.1980  0.0358 -2.5788
  121OSM     O312762   3.002   4.626   6.475  0.2244 -0.0874  0.4872
  121OSM    HO312763   2.960   4.679   6.407  1.5012 -1.3798 -1.4185
  121OSM    C4S12764   3.069   4.710   6.696 -0.3066 -0.0206  0.3564
  121OSM    H4S12765   3.168   4.729   6.740  0.4986  2.3670 -2.2512
  121OSM    C5S12766   2.964   4.675   6.773  0.1607 -0.0759 -0.3220
  121OSM    H5S12767   2.873   4.645   6.719 -0.8172 -0.4892  1.4656
  121OSM    C6S12768   2.980   4.649   6.923  0.3107 -0.0119  0.1323
  121OSM    H6S12769   2.958   4.542   6.942 -0.7862  0.3417  0.9665
  121OSM    H6T12770   2.896   4.709   6.965 -0.4522 -0.4325 -0.7496
  121OSM    C7S12771   3.098   4.688   7.002  0.3339 -0.3670  1.7910
  121OSM    H7S12772   3.105   4.798   6.986 -1.8433 -0.6006 -1.8160
  121OSM    H7T12773   3.185   4.632   6.963 -0.0959  0.0332  0.1808
  121OSM    C8S12774   3.092   4.664   7.159 -0.4154  0.6671 -0.7377
  121OSM    H8S12775   3.181   4.722   7.193 -0.4197  0.0872  0.2653
  121OSM    H8T12776   3.118   4.557   7.175  1.4893  1.2420  0.3756
  121OSM    C9S12777   2.961   4.712   7.233  0.0430 -0.4628 -0.4166
  121OSM    H9S12778   2.897   4.621   7.240  0.0523 -0.6229 -2.1112
  121OSM    H9T12779   2.908   4.788   7.172  0.0251 -0.3715 -0.2883
  121OSM   C10S12780   2.974   4.766   7.380  0.2760  0.2351 -0.3318
  121OSM   H10S12781   2.878   4.805   7.420 -0.5257 -0.8721 -1.1279
  121OSM   H10T12782   3.042   4.854   7.376  1.6662 -0.7021  1.3378
  121OSM   C11S12783   3.035   4.661   7.477 -0.3846 -1.1132  0.0464
  121OSM   H11S12784   3.127   4.621   7.431  0.8459  0.5081  0.9673
  121OSM   H11T12785   2.965   4.576   7.490 -2.1914  0.3262  0.2761
  121OSM   C12S12786   3.068   4.721   7.622 -0.4459  0.3917 -0.0275
  121OSM   H12S12787   3.145   4.800   7.612 -0.3675  0.1652 -1.4730
  121OSM   H12T12788   3.117   4.636   7.675 -0.0633 -0.5219 -1.7757
  121OSM   C13S12789   2.948   4.784   7.693  0.1623  0.5789 -0.4101
  121OSM   H13S12790   2.859   4.717   7.687  0.3612  0.3726 -1.2427
  121OSM   H13T12791   2.919   4.877   7.640  0.5792  0.5624 -0.6734
  121OSM   C14S12792   2.969   4.815   7.837  0.0427  0.2906  0.0748
  121OSM   H14S12793   2.880   4.863   7.883  1.3316  1.6943  1.1871
  121OSM   H14T12794   3.058   4.880   7.841 -2.0479  3.3251  3.0281
  121OSM   C15S12795   2.989   4.689   7.927 -0.0391  0.5636 -0.4318
  121OSM   H15S12796   3.060   4.618   7.880 -0.9769 -0.4638 -0.3171
  121OSM   H15T12797   2.895   4.631   7.931 -0.4052  1.2208  1.1315
  121OSM   C16S12798   3.043   4.707   8.068  0.2248 -0.5858  0.3361
  121OSM   H16S12799   3.065   4.608   8.113  2.0809  2.1851  6.7360
  121OSM   H16T12800   2.956   4.755   8.119 -0.4237  0.7069 -1.8325
  121OSM   C17S12801   3.164   4.798   8.082 -0.0343 -0.4636  0.2919
  121OSM   H17S12802   3.194   4.813   8.187  0.3181 -2.0540  0.4410
  121OSM   H17T12803   3.148   4.898   8.037 -0.3138 -0.3818  0.5753
  121OSM   C18S12804   3.288   4.752   8.004 -0.1043 -0.5771 -0.0647
  121OSM   H18S12805   3.329   4.664   8.058  1.3385  0.9859  1.5190
  121OSM   H18T12806   3.364   4.833   7.993 -0.2065 -0.4607  0.0690
  121OSM   H18U12807   3.257   4.728   7.900  0.0529 -0.6802 -0.0879
  121OSM    C1F12808   3.132   5.102   6.564 -0.1804  0.7213  0.2938
  121OSM     OF12809   3.021   5.147   6.550  0.1172 -0.0869 -0.0289
  121OSM    C2F12810   3.258   5.188   6.561 -0.5117  0.0262 -0.4306
  121OSM    H2F12811   3.270   5.230   6.459  0.4637 -0.0295 -0.3435
  121OSM    H2G12812   3.349   5.127   6.580 -0.8081 -0.5042 -0.6729
  121OSM    C3F12813   3.263   5.305   6.672  0.0626 -0.3648  0.9272
  121OSM    H3F12814   3.191   5.387   6.652 -0.2354 -0.4673  1.5810
  121OSM    H3G12815   3.359   5.360   6.677 -0.1866  0.5227 -2.1832
  121OSM    C4F12816   3.250   5.253   6.823  0.2588  0.3979  0.5772
  121OSM    H4F12817   3.145   5.220   6.837 -0.4535  2.1284 -0.3289
  121OSM    H4G12818   3.278   5.344   6.881  0.9179  1.6651 -1.5725
  121OSM    C5F12819   3.327   5.124   6.850 -0.6938 -0.6432 -1.2597
  121OSM    H5F12820   3.421   5.140   6.793  0.5989 -3.1412 -0.0129
  121OSM    H5G12821   3.279   5.031   6.811  0.4223 -1.4066 -0.8838
  121OSM    C6F12822   3.375   5.104   6.995 -0.0994 -0.1023 -0.0006
  121OSM    H6F12823   3.410   5.199   7.041  3.1604 -1.7274  1.2424
  121OSM    H6G12824   3.469   5.045   6.989  0.4510  0.7874 -0.3059
  121OSM    C7F12825   3.272   5.050   7.103  0.1210  0.4714  0.0950
  121OSM    H7F12826   3.247   4.949   7.066 -0.5588  1.1165 -1.2789
  121OSM    H7G12827   3.185   5.116   7.081 -0.3248 -0.9340 -2.8845
  121OSM    C8F12828   3.323   5.043   7.243 -0.2222  0.2530  0.9399
  121OSM    H8F12829   3.418   4.985   7.245  0.4326  1.3003  1.6301
  121OSM    H8G12830   3.250   4.988   7.305 -0.2645 -0.9306 -0.1288
  121OSM    C9F12831   3.355   5.175   7.311 -0.9324 -0.5718 -0.6452
  121OSM    H9F12832   3.401   5.253   7.248 -1.6702 -0.2223 -0.7547
  121OSM   C10F12833   3.328   5.203   7.440 -0.4384 -0.1006  0.1662
  121OSM   H10F12834   3.370   5.296   7.481 -0.8089  0.1496 -0.0075
  121OSM   C11F12835   3.247   5.117   7.531  0.3521 -0.2817 -0.0166
  121OSM   H11F12836   3.180   5.042   7.483  0.1977 -1.2713  1.6615
  121OSM   H11G12837   3.177   5.183   7.586  2.4622  2.2359 -0.1713
  121OSM   C12F12838   3.330   5.044   7.637 -0.1475  0.2151 -0.7487
  121OSM   H12F12839   3.393   4.965   7.590 -0.7632 -0.6960 -0.0736
  121OSM   H12G12840   3.267   4.973   7.694  0.8404 -2.0670 -2.3184
  121OSM   C13F12841   3.417   5.134   7.727  0.1474 -0.6427 -0.3284
  121OSM   H13F12842   3.363   5.225   7.758  0.2411 -0.3355 -1.0380
  121OSM   H13G12843   3.510   5.170   7.677  0.2721  1.3289  1.1975
  121OSM   C14F12844   3.452   5.068   7.863  0.7821  0.1543  0.1089
  121OSM   H14F12845   3.496   4.968   7.843 -2.9502 -1.6769  0.2089
  121OSM   H14G12846   3.359   5.039   7.915 -0.6551  0.4053 -2.1589
  121OSM   C15F12847   3.539   5.156   7.949  0.4517  0.1185  0.3073
  121OSM   H15F12848   3.487   5.254   7.956  1.5434  0.6237  1.7889
  121OSM   H15G12849   3.628   5.191   7.894  0.9070  1.4485  1.8281
  121OSM   C16F12850   3.578   5.080   8.077 -0.0447 -0.6188 -0.1143
  121OSM   H16F12851   3.642   5.147   8.138 -3.7940  1.8682  1.4761
  121OSM   H16G12852   3.645   4.993   8.059 -0.5797 -1.5945  2.2577
  121OSM   C17F12853   3.468   5.033   8.173 -0.0393 -0.0935  0.4541
  121OSM   H17F12854   3.423   4.943   8.125  0.6112 -0.1016 -0.1555
  121OSM   H17G12855   3.393   5.115   8.165 -0.6023 -0.6208  0.2543
  121OSM   C18F12856   3.511   4.997   8.314  0.0492  0.8588 -0.2318
  121OSM   H18F12857   3.605   4.937   8.312  0.1201  0.9858 -0.9933
  121OSM   H18G12858   3.430   4.930   8.351 -0.5699  1.7084 -0.0185
  121OSM   H18H12859   3.526   5.086   8.379  2.9294  1.2841 -1.3187
  122OSM      N12860   2.213   0.197   6.030  0.0196  0.0273  0.3416
  122OSM    C1512861   2.202   0.206   6.180 -0.4440  1.3074  0.6072
  122OSM   H15A12862   2.298   0.175   6.218 -0.3299  0.8921 -0.0006
  122OSM   H15B12863   2.133   0.139   6.229 -1.5356  1.7020 -0.3205
  122OSM   H15C12864   2.186   0.306   6.218  0.3783  0.6875  2.6951
  122OSM    C1412865   2.327   0.285   5.997 -0.0851 -0.0990  0.6325
  122OSM   H14A12866   2.399   0.291   6.077  0.3195  0.4696  0.2308
  122OSM   H14B12867   2.292   0.386   5.985  0.1127  0.0449  1.2127
  122OSM   H14C12868   2.374   0.253   5.905 -0.4730  0.2718  0.3057
  122OSM    C1312869   2.238   0.052   5.999 -0.4073 -0.3446  0.1876
  122OSM   H13A12870   2.147  -0.006   6.005  0.0753 -1.0932  0.3406
  122OSM   H13B12871   2.309   0.018   6.073  2.0382  1.0151 -1.4068
  122OSM   H13C12872   2.291   0.037   5.906 -0.3042 -0.5162  0.2730
  122OSM    C1212873   2.091   0.241   5.953 -0.0409  0.1376  0.0067
  122OSM   H12A12874   2.020   0.161   5.973  2.0579 -1.3890  1.8627
  122OSM   H12B12875   2.122   0.260   5.852  0.5495  2.3212  0.5552
  122OSM    C1112876   2.002   0.370   5.998  0.4357  0.1655 -0.4013
  122OSM   H11A12877   1.961   0.344   6.098 -0.3692  3.6867  0.3119
  122OSM   H11B12878   1.915   0.367   5.928 -0.3379 -0.9557  0.5741
  122OSM      P12879   2.002   0.628   5.992 -0.0897  0.0061 -0.2480
  122OSM    O1312880   2.099   0.738   6.007 -0.7408  1.3418 -0.1795
  122OSM    O1412881   1.901   0.643   5.883  0.5887  0.4080 -0.2724
  122OSM    O1112882   1.915   0.624   6.129 -0.0789 -0.0187  0.1180
  122OSM    O1212883   2.079   0.490   5.981 -0.7750  0.7983 -0.4921
  122OSM    C1S12884   1.973   0.561   6.246 -0.0957  0.0066  0.8402
  122OSM    H1S12885   2.061   0.498   6.219  0.4664  1.5741 -1.2478
  122OSM    H1T12886   1.904   0.485   6.291 -0.4171 -1.6145 -2.1129
  122OSM     NF12887   2.049   0.562   6.479 -0.4090  0.4428 -0.9179
  122OSM    HNF12888   1.986   0.559   6.556  0.8395  0.4088  0.1332
  122OSM    C2S12889   2.013   0.650   6.369  0.0303  0.0779  0.5212
  122OSM    H2S12890   2.108   0.704   6.353 -1.2970  2.7396  1.0840
  122OSM    C3S12891   1.908   0.764   6.391 -1.4311  0.3294 -0.4718
  122OSM    H3S12892   1.815   0.714   6.425 -1.2113  0.0813 -0.2276
  122OSM     O312893   1.879   0.847   6.273 -0.2190  0.1067  0.4677
  122OSM    HO312894   1.925   0.787   6.213  1.4246 -2.0996  3.5978
  122OSM    C4S12895   1.945   0.854   6.504 -0.0311 -0.1241 -0.1558
  122OSM    H4S12896   1.906   0.824   6.602  1.3606 -0.4959  0.2933
  122OSM    C5S12897   2.015   0.975   6.503 -0.3023  0.4653 -0.1654
  122OSM    H5S12898   2.061   1.003   6.407 -1.9986  1.8109 -0.6342
  122OSM    C6S12899   2.047   1.069   6.621 -0.4521  0.1694  0.1955
  122OSM    H6S12900   2.018   1.169   6.583 -0.7344 -0.4341 -1.2675
  122OSM    H6T12901   2.156   1.066   6.643 -0.4599 -0.3096  0.1767
  122OSM    C7S12902   1.975   1.038   6.755  0.0045 -0.3941  0.1019
  122OSM    H7S12903   1.961   0.929   6.771 -2.2701  0.1754  2.8611
  122OSM    H7T12904   1.871   1.075   6.750 -0.4423 -1.6917 -0.5129
  122OSM    C8S12905   2.052   1.086   6.872  0.1773 -0.5169 -0.2981
  122OSM    H8S12906   2.082   1.193   6.875  1.5924 -0.8889 -0.3231
  122OSM    H8T12907   2.155   1.050   6.896 -0.2354 -1.0013  0.7990
  122OSM    C9S12908   1.974   1.066   7.008 -0.2126  0.4964  0.3969
  122OSM    H9S12909   1.942   0.960   7.024  2.0277 -0.1523  1.0097
  122OSM    H9T12910   1.875   1.115   7.001  0.2597  1.2558 -1.6667
  122OSM   C10S12911   2.051   1.115   7.129 -0.1055 -0.3108  0.5025
  122OSM   H10S12912   2.062   1.225   7.122 -0.5703 -0.3785 -2.7152
  122OSM   H10T12913   2.151   1.068   7.115 -1.3855 -2.6048 -2.0779
  122OSM   C11S12914   1.970   1.080   7.254  0.6289  0.2928 -0.3887
  122OSM   H11S12915   1.948   0.971   7.255  3.4318 -0.4138 -1.9632
  122OSM   H11T12916   1.874   1.135   7.253  0.3229  0.1249  3.6233
  122OSM   C12S12917   2.032   1.098   7.389 -0.8510  0.0842 -0.5030
  122OSM   H12S12918   2.078   1.199   7.396 -1.1405  0.1858 -0.0402
  122OSM   H12T12919   2.124   1.036   7.399 -0.2459  1.0317 -0.0725
  122OSM   C13S12920   1.933   1.063   7.495 -0.4151 -0.2610 -0.8997
  122OSM   H13S12921   1.896   0.960   7.478  1.5956 -0.8588 -2.0442
  122OSM   H13T12922   1.849   1.134   7.484 -1.5017 -1.2486  0.6048
  122OSM   C14S12923   1.991   1.075   7.639  0.3716  0.1341 -0.7009
  122OSM   H14S12924   1.919   1.049   7.720  1.9806 -0.0657  0.7092
  122OSM   H14T12925   2.017   1.183   7.645 -3.2490  1.1605 -1.0823
  122OSM   C15S12926   2.122   0.986   7.678 -0.1496  0.1331  0.2117
  122OSM   H15S12927   2.185   1.027   7.596  0.2764  0.7643  0.8368
  122OSM   H15T12928   2.085   0.882   7.665 -2.1656  0.5057  2.3263
  122OSM   C16S12929   2.167   1.019   7.819  0.3152 -0.0228  0.2930
  122OSM   H16S12930   2.078   0.991   7.879  1.3715 -2.3333  0.8997
  122OSM   H16T12931   2.183   1.129   7.825  1.1064 -0.1586  0.8484
  122OSM   C17S12932   2.289   0.941   7.869  0.4525 -0.0214 -0.4117
  122OSM   H17S12933   2.375   0.969   7.804 -0.4709 -0.5250 -1.8904
  122OSM   H17T12934   2.274   0.833   7.851  1.9915 -0.4909  0.8925
  122OSM   C18S12935   2.323   0.969   8.016  0.0062 -0.1180 -0.4731
  122OSM   H18S12936   2.413   1.034   8.025  1.1413 -1.4255 -1.8678
  122OSM   H18T12937   2.333   0.868   8.062  0.3029  0.1776  0.1300
  122OSM   H18U12938   2.239   1.024   8.064 -1.3545 -1.8207 -0.8016
  122OSM    C1F12939   2.145   0.469   6.472  0.2031 -0.4060 -0.3082
  122OSM     OF12940   2.225   0.467   6.381  0.5808  0.3257 -0.8105
  122OSM    C2F12941   2.150   0.360   6.574 -0.5879  0.2185  0.4165
  122OSM    H2F12942   2.065   0.290   6.558 -1.0584  1.2583 -2.0816
  122OSM    H2G12943   2.154   0.401   6.677 -0.4201 -0.2232  0.5884
  122OSM    C3F12944   2.280   0.273   6.560 -0.1840 -0.4492 -0.4870
  122OSM    H3F12945   2.366   0.339   6.534 -0.1329 -0.4164 -0.2377
  122OSM    H3G12946   2.258   0.214   6.469 -1.0144 -1.1164  0.1319
  122OSM    C4F12947   2.305   0.180   6.680  0.2757 -0.0977  0.3528
  122OSM    H4F12948   2.386   0.107   6.656  0.6970  1.2072 -2.6530
  122OSM    H4G12949   2.211   0.122   6.691 -1.6377  2.9170  1.0255
  122OSM    C5F12950   2.343   0.248   6.814 -0.4675 -0.1726  0.0311
  122OSM    H5F12951   2.257   0.313   6.842 -0.1330  0.5786 -0.6283
  122OSM    H5G12952   2.430   0.315   6.798  2.2631 -3.2885  0.7233
  122OSM    C6F12953   2.394   0.150   6.927  0.1632  0.0081 -0.5856
  122OSM    H6F12954   2.494   0.109   6.902  0.1299 -0.9698  0.7638
  122OSM    H6G12955   2.312   0.075   6.937 -0.8278  1.3188  2.9666
  122OSM    C7F12956   2.404   0.234   7.050  0.7625 -0.7314 -0.0609
  122OSM    H7F12957   2.311   0.290   7.071 -0.4153 -2.6373  0.0129
  122OSM    H7G12958   2.488   0.306   7.039  0.4317 -0.2084  0.7357
  122OSM    C8F12959   2.423   0.146   7.171  0.9157  0.1830 -0.2414
  122OSM    H8F12960   2.473   0.195   7.258 -0.1752 -0.2720  0.6645
  122OSM    H8G12961   2.499   0.069   7.146  0.6781  0.0669 -0.6112
  122OSM    C9F12962   2.296   0.060   7.213 -0.5140  0.5896 -0.2584
  122OSM    H9F12963   2.287  -0.029   7.149  1.3079 -1.0419  1.6085
  122OSM   C10F12964   2.221   0.086   7.318  0.1959 -0.7248 -0.0814
  122OSM   H10F12965   2.139   0.015   7.338 -0.2660 -0.0596  0.4337
  122OSM   C11F12966   2.244   0.202   7.401 -0.0265 -0.4507  0.8299
  122OSM   H11F12967   2.149   0.219   7.456 -0.1491 -1.0473  0.8200
  122OSM   H11G12968   2.278   0.290   7.343  1.2282 -1.6649 -0.3382
  122OSM   C12F12969   2.348   0.178   7.518 -0.5740 -0.2880  0.4069
  122OSM   H12F12970   2.337   0.260   7.592  0.9053  0.9638 -0.7035
  122OSM   H12G12971   2.454   0.169   7.488 -0.9128 -2.0302 -0.3951
  122OSM   C13F12972   2.319   0.046   7.593 -0.3406 -0.4880  0.4605
  122OSM   H13F12973   2.345  -0.039   7.526 -1.1472  2.4335 -3.9714
  122OSM   H13G12974   2.212   0.034   7.617 -0.4449  0.7274  0.6619
  122OSM   C14F12975   2.401   0.045   7.722 -0.3472 -0.2176 -0.3129
  122OSM   H14F12976   2.362   0.132   7.779 -0.9273 -0.1987 -0.7321
  122OSM   H14G12977   2.506   0.059   7.689 -0.6362 -1.4078 -1.8251
  122OSM   C15F12978   2.375  -0.086   7.809 -0.1313  0.1245  1.2776
  122OSM   H15F12979   2.434  -0.165   7.758 -0.9993 -0.8273  1.7062
  122OSM   H15G12980   2.268  -0.114   7.809 -0.2454  0.2710 -1.4851
  122OSM   C16F12981   2.436  -0.086   7.950 -0.2642 -0.7265 -0.0128
  122OSM   H16F12982   2.394   0.002   8.003 -0.5765 -2.3151  2.5556
  122OSM   H16G12983   2.546  -0.082   7.941 -0.0353 -0.6032  2.2530
  122OSM   C17F12984   2.406  -0.209   8.031 -0.2952 -0.3688 -0.5046
  122OSM   H17F12985   2.298  -0.232   8.023 -1.0095  2.8348 -1.6415
  122OSM   H17G12986   2.409  -0.182   8.138 -3.4848  0.6650 -0.5747
  122OSM   C18F12987   2.496  -0.332   8.016  0.5484 -0.8781 -0.0611
  122OSM   H18F12988   2.505  -0.358   7.908 -0.8494 -0.1154 -0.3852
  122OSM   H18G12989   2.460  -0.418   8.077  0.6092  1.0837  2.8877
  122OSM   H18H12990   2.594  -0.301   8.058 -0.0629 -0.9707  1.4585
  123OSM      N12991   0.634   1.675   6.242  0.7024  0.5724  0.2260
  123OSM    C1512992   0.570   1.680   6.372  0.9107 -0.3856 -0.0810
  123OSM   H15A12993   0.631   1.719   6.452 -0.0291 -2.6761  1.9062
  123OSM   H15B12994   0.525   1.584   6.394  0.2558  0.2398  1.4392
  123OSM   H15C12995   0.487   1.748   6.385  1.9737  0.4408  3.6005
  123OSM    C1412996   0.688   1.815   6.210 -0.5724  0.4594 -0.4144
  123OSM   H14A12997   0.607   1.886   6.217 -0.0301  1.0499 -0.0846
  123OSM   H14B12998   0.722   1.818   6.108 -0.2275  1.4312 -0.2788
  123OSM   H14C12999   0.757   1.841   6.289 -3.0612 -0.9447  2.4370
  123OSM    C1313000   0.750   1.576   6.251  0.0166  0.0067 -0.1388
  123OSM   H13A13001   0.795   1.555   6.155  0.7604 -0.7347  0.3642
  123OSM   H13B13002   0.720   1.482   6.295  1.6861  0.1738  1.4564
  123OSM   H13C13003   0.836   1.605   6.309  0.6470 -1.4124 -0.3366
  123OSM    C1213004   0.527   1.633   6.134 -0.3427 -0.6678  0.6489
  123OSM   H12A13005   0.560   1.651   6.033  1.0018 -0.1083  1.1677
  123OSM   H12B13006   0.438   1.691   6.151 -0.9743 -1.6025  0.6336
  123OSM    C1113007   0.480   1.488   6.145  0.4578 -0.0961  0.1541
  123OSM   H11A13008   0.567   1.419   6.141 -1.2561 -2.3247 -1.9949
  123OSM   H11B13009   0.416   1.463   6.058 -0.7503 -1.8623  1.4642
  123OSM      P13010   0.261   1.446   6.275  0.3036  0.4150  0.4325
  123OSM    O1313011   0.209   1.590   6.259  0.1026 -0.0622  0.2066
  123OSM    O1413012   0.214   1.347   6.176 -0.2974  0.0988 -0.4276
  123OSM    O1113013   0.219   1.399   6.422  1.0057  0.5607 -0.0862
  123OSM    O1213014   0.417   1.459   6.269  0.2832 -0.1740 -0.1142
  123OSM    C1S13015   0.338   1.375   6.501  1.1068 -0.8699 -0.3662
  123OSM    H1S13016   0.402   1.465   6.509  0.9752 -0.8510  0.5141
  123OSM    H1T13017   0.400   1.290   6.465  1.5901 -0.1754 -1.2352
  123OSM     NF13018   0.416   1.364   6.739  0.1660  0.9239  0.4149
  123OSM    HNF13019   0.445   1.277   6.780  0.1726  0.8246  0.2014
  123OSM    C2S13020   0.301   1.357   6.647 -0.2003 -0.1290  0.2590
  123OSM    H2S13021   0.250   1.451   6.675  0.0665  0.0269  0.2288
  123OSM    C3S13022   0.204   1.231   6.661 -0.7636 -0.1324 -0.9199
  123OSM    H3S13023   0.270   1.142   6.662 -1.2005 -0.5378  1.7752
  123OSM     O313024   0.107   1.222   6.562 -0.2951  0.2498  0.1249
  123OSM    HO313025   0.146   1.286   6.502  1.9155 -0.6893  0.4720
  123OSM    C4S13026   0.130   1.222   6.799 -0.4311  0.2765 -0.3678
  123OSM    H4S13027   0.205   1.187   6.871  0.5588 -1.4205 -2.1090
  123OSM    C5S13028   0.001   1.241   6.831  0.2826  0.3776  0.8609
  123OSM    H5S13029  -0.063   1.278   6.750  0.5069 -0.6342  0.1965
  123OSM    C6S13030  -0.072   1.217   6.960  0.3051  0.7758 -0.5696
  123OSM    H6S13031  -0.140   1.132   6.936 -1.2248  1.3799  1.3865
  123OSM    H6T13032  -0.125   1.309   6.993  0.0037  0.5853 -0.5195
  123OSM    C7S13033   0.017   1.178   7.083 -0.0587 -0.6447  0.0729
  123OSM    H7S13034   0.082   1.268   7.098  0.8886 -1.2318 -0.4186
  123OSM    H7T13035   0.065   1.081   7.058 -2.3493 -1.3352 -1.9031
  123OSM    C8S13036  -0.065   1.158   7.209 -0.4588 -0.1072 -0.6207
  123OSM    H8S13037  -0.148   1.085   7.201 -1.2828  0.6194  0.7923
  123OSM    H8T13038  -0.114   1.252   7.242 -0.8781 -0.8708  1.0352
  123OSM    C9S13039   0.010   1.114   7.338 -0.3092 -0.0919  0.3782
  123OSM    H9S13040   0.105   1.171   7.338  0.7576 -1.7953 -0.0448
  123OSM    H9T13041   0.031   1.006   7.356 -0.5487 -0.5863 -1.9887
  123OSM   C10S13042  -0.074   1.160   7.460 -0.2279 -0.3177  0.1081
  123OSM   H10S13043  -0.178   1.122   7.457 -0.7558  1.1105 -2.6092
  123OSM   H10T13044  -0.081   1.271   7.452  2.3063  0.0361  1.4890
  123OSM   C11S13045  -0.013   1.117   7.589  0.9980  0.3589 -1.4838
  123OSM   H11S13046   0.089   1.155   7.609  0.6396  0.0560  1.4314
  123OSM   H11T13047  -0.007   1.007   7.577 -0.0539  0.1354 -0.2123
  123OSM   C12S13048  -0.084   1.153   7.716 -0.2043  0.0617 -0.1277
  123OSM   H12S13049  -0.193   1.132   7.708 -0.6256  1.5922  0.9854
  123OSM   H12T13050  -0.062   1.261   7.730  0.7856  0.0489 -1.4448
  123OSM   C13S13051  -0.017   1.082   7.833 -0.2688 -0.6848  0.2981
  123OSM   H13S13052   0.084   1.128   7.835 -0.0492 -1.1456 -0.0209
  123OSM   H13T13053  -0.012   0.971   7.824 -2.0562 -0.7562 -0.1209
  123OSM   C14S13054  -0.087   1.121   7.967  0.0602  0.2908 -0.4137
  123OSM   H14S13055  -0.183   1.066   7.978  0.5115 -0.3410  0.4862
  123OSM   H14T13056  -0.113   1.229   7.970 -0.2266  0.2183 -0.2538
  123OSM   C15S13057  -0.001   1.087   8.090 -0.4728 -0.7721  0.2271
  123OSM   H15S13058   0.098   1.132   8.068 -1.8699  1.5006 -2.0914
  123OSM   H15T13059  -0.016   0.979   8.111 -3.8821  0.0129  2.8703
  123OSM   C16S13060  -0.058   1.155   8.220 -0.6017 -0.4515 -0.2029
  123OSM   H16S13061  -0.010   1.094   8.300  0.5432 -0.3236 -0.7713
  123OSM   H16T13062  -0.168   1.146   8.224 -1.0178  2.9785  4.7537
  123OSM   C17S13063  -0.027   1.307   8.232 -0.3816 -0.7527  0.0971
  123OSM   H17S13064  -0.094   1.367   8.167  1.2750  0.7930 -0.2921
  123OSM   H17T13065   0.076   1.332   8.196  0.6334 -0.1933  3.1229
  123OSM   C18S13066  -0.049   1.365   8.375  0.2210 -0.5200  0.1437
  123OSM   H18S13067  -0.092   1.467   8.370 -1.9665 -1.2564  2.1406
  123OSM   H18T13068   0.042   1.369   8.439 -1.4066  1.5511  2.5075
  123OSM   H18U13069  -0.133   1.306   8.416 -1.5503  0.2983 -2.0811
  123OSM    C1F13070   0.497   1.473   6.751  0.9924  0.6850 -0.6559
  123OSM     OF13071   0.482   1.574   6.687  0.4005  0.2032 -0.2746
  123OSM    C2F13072   0.613   1.457   6.843  0.0611 -0.4688 -0.5445
  123OSM    H2F13073   0.710   1.474   6.793 -1.6208  2.1128 -3.2435
  123OSM    H2G13074   0.616   1.354   6.886  1.4161 -0.3458 -0.2916
  123OSM    C3F13075   0.601   1.552   6.958 -0.3329  0.5355 -0.2218
  123OSM    H3F13076   0.501   1.560   7.004  0.6515  1.5628  1.8579
  123OSM    H3G13077   0.632   1.653   6.924  2.3719 -0.3503 -0.6242
  123OSM    C4F13078   0.696   1.509   7.071  0.0748  0.3686  0.1925
  123OSM    H4F13079   0.800   1.493   7.036  0.9969 -0.7802  3.1340
  123OSM    H4G13080   0.661   1.409   7.106 -0.0913  0.2023 -0.4329
  123OSM    C5F13081   0.697   1.611   7.182  0.2766 -0.0097 -0.0278
  123OSM    H5F13082   0.597   1.648   7.212 -0.3466 -2.9898  1.8977
  123OSM    H5G13083   0.746   1.705   7.147  1.2658 -0.2734  0.6224
  123OSM    C6F13084   0.777   1.566   7.304 -0.0754  0.3137  0.5352
  123OSM    H6F13085   0.753   1.458   7.312 -0.9411  0.3904 -0.8394
  123OSM    H6G13086   0.736   1.611   7.397 -0.5588 -0.9372  0.9493
  123OSM    C7F13087   0.929   1.592   7.289 -0.5765 -0.4327 -0.2061
  123OSM    H7F13088   0.951   1.698   7.313  0.0828 -0.9730  1.7325
  123OSM    H7G13089   0.962   1.581   7.184 -0.9682 -0.7185 -0.3032
  123OSM    C8F13090   1.033   1.526   7.387  0.1684  0.5948  0.6054
  123OSM    H8F13091   1.000   1.533   7.493  0.5759 -0.1712  0.7913
  123OSM    H8G13092   1.130   1.575   7.367  0.8695 -0.6053  0.9678
  123OSM    C9F13093   1.054   1.382   7.332  0.6127  0.2768  0.7309
  123OSM    H9F13094   1.040   1.375   7.223  0.4132  2.1786  0.6161
  123OSM   C10F13095   1.099   1.280   7.402  0.5822 -0.0172  0.0523
  123OSM   H10F13096   1.110   1.177   7.364  0.7859  1.3684 -4.1977
  123OSM   C11F13097   1.136   1.294   7.548 -0.1031  0.5573 -1.0460
  123OSM   H11F13098   1.042   1.282   7.607 -0.2739 -0.1407 -1.4417
  123OSM   H11G13099   1.176   1.393   7.580  1.7219 -0.3538 -0.3682
  123OSM   C12F13100   1.221   1.179   7.592  0.7674 -0.3081 -0.5971
  123OSM   H12F13101   1.308   1.149   7.530  0.1316 -1.9768 -0.7333
  123OSM   H12G13102   1.153   1.092   7.582  1.0347 -0.5661 -0.2124
  123OSM   C13F13103   1.289   1.182   7.725 -0.6385  0.6831 -0.6656
  123OSM   H13F13104   1.222   1.219   7.805 -1.0981  0.2984 -0.8685
  123OSM   H13G13105   1.375   1.252   7.723  0.9595 -1.1995 -1.3116
  123OSM   C14F13106   1.351   1.045   7.759  0.1032 -0.0536 -0.0581
  123OSM   H14F13107   1.416   1.011   7.676  0.9858  1.2001  0.0894
  123OSM   H14G13108   1.261   0.979   7.755  0.7548 -0.8973 -2.9330
  123OSM   C15F13109   1.419   1.034   7.895  0.3385 -0.1502  0.4366
  123OSM   H15F13110   1.511   1.095   7.889  0.2914 -0.0905  0.3008
  123OSM   H15G13111   1.456   0.930   7.907 -1.2663 -0.7833  0.1960
  123OSM   C16F13112   1.329   1.092   8.003 -0.0978  0.2363 -0.0376
  123OSM   H16F13113   1.310   1.201   7.993  0.6405  0.3048 -0.8401
  123OSM   H16G13114   1.377   1.080   8.102 -2.7095 -0.7469  1.2047
  123OSM   C17F13115   1.186   1.027   8.023 -0.1773  0.1351 -0.0914
  123OSM   H17F13116   1.202   0.918   8.034  1.0116  0.2971 -0.1279
  123OSM   H17G13117   1.128   1.033   7.928 -0.5965  1.7345  0.2230
  123OSM   C18F13118   1.097   1.100   8.135 -0.1323 -0.3005 -0.0064
  123OSM   H18F13119   1.133   1.076   8.238  2.7674 -1.3502 -1.1501
  123OSM   H18G13120   0.987   1.084   8.133 -0.3946  1.4244 -0.5732
  123OSM   H18H13121   1.108   1.208   8.114  1.0536 -0.1377  1.2839
  124OSM      N13122   1.604   4.987   5.944 -0.0422 -0.0336 -0.1703
  124OSM    C1513123   1.559   5.008   5.806  0.4381 -0.0483 -0.2060
  124OSM   H15A13124   1.476   4.946   5.776 -1.2678  2.1103 -0.1994
  124OSM   H15B13125   1.636   4.983   5.735  0.6975  0.0813  0.0294
  124OSM   H15C13126   1.535   5.112   5.785  0.9103  0.3440  1.1048
  124OSM    C1413127   1.723   5.076   5.977  0.2807 -0.0587  1.0701
  124OSM   H14A13128   1.713   5.175   5.936  1.1900 -1.3445 -2.6138
  124OSM   H14B13129   1.814   5.038   5.933  0.7647  0.0137  1.9804
  124OSM   H14C13130   1.739   5.083   6.084  2.7681 -0.6999  0.8030
  124OSM    C1313131   1.472   5.034   6.005 -0.0712 -0.0762  0.7249
  124OSM   H13A13132   1.385   4.985   5.964  1.2381  0.0930 -2.5147
  124OSM   H13B13133   1.459   5.141   6.005  2.2384  0.2864  2.0758
  124OSM   H13C13134   1.460   5.008   6.110 -2.7248 -1.8586  0.0737
  124OSM    C1213135   1.634   4.848   5.977 -0.1837 -0.3159  0.0386
  124OSM   H12A13136   1.734   4.839   5.937  0.6224 -0.8384  2.0402
  124OSM   H12B13137   1.566   4.775   5.934 -0.8107 -1.2130  2.3817
  124OSM    C1113138   1.644   4.796   6.124  0.0584  0.2553  0.6481
  124OSM   H11A13139   1.714   4.850   6.192 -1.3908  1.4814  1.2449
  124OSM   H11B13140   1.692   4.697   6.113 -0.1782  0.1213  0.8169
  124OSM      P13141   1.405   4.685   6.143  0.3980 -0.1646 -0.2755
  124OSM    O1313142   1.272   4.739   6.172  0.1626  0.6191  0.0688
  124OSM    O1413143   1.420   4.640   6.002 -0.2750  0.4369  0.2257
  124OSM    O1113144   1.423   4.562   6.237  0.2882  0.1082 -0.1462
  124OSM    O1213145   1.513   4.793   6.185 -0.4608  0.3129 -0.2312
  124OSM    C1S13146   1.521   4.554   6.342 -0.4372 -0.0927 -0.2427
  124OSM    H1S13147   1.602   4.629   6.329  0.0610 -0.5558  0.1202
  124OSM    H1T13148   1.568   4.454   6.342  0.9655  0.5403 -1.0708
  124OSM     NF13149   1.539   4.565   6.592  0.4630 -0.2687 -0.6265
  124OSM    HNF13150   1.568   4.477   6.628  1.1756  0.3403  0.3442
  124OSM    C2S13151   1.443   4.571   6.481 -0.2416 -0.4522  0.0020
  124OSM    H2S13152   1.394   4.670   6.487 -0.1000 -0.3675 -0.2185
  124OSM    C3S13153   1.325   4.472   6.481  0.0801  0.1170  0.2376
  124OSM    H3S13154   1.358   4.374   6.439 -0.1698  0.0254  0.2547
  124OSM     O313155   1.207   4.523   6.420 -0.3149  0.3774  0.1406
  124OSM    HO313156   1.247   4.585   6.359  0.3218 -0.0212  0.1441
  124OSM    C4S13157   1.273   4.429   6.619  0.5185 -0.6012  0.4337
  124OSM    H4S13158   1.267   4.512   6.691  1.4784  0.4026 -0.6084
  124OSM    C5S13159   1.247   4.304   6.660 -0.4626 -0.3013 -0.2383
  124OSM    H5S13160   1.268   4.222   6.589  2.6076  0.2620 -0.1031
  124OSM    C6S13161   1.212   4.269   6.805  0.5427  0.0795  0.7779
  124OSM    H6S13162   1.151   4.176   6.802 -0.2120  0.4258 -4.4898
  124OSM    H6T13163   1.154   4.342   6.865 -2.7579 -1.3111 -0.4548
  124OSM    C7S13164   1.341   4.244   6.875  0.1338  0.6262  0.2679
  124OSM    H7S13165   1.389   4.344   6.888  0.3852  0.7814 -1.5106
  124OSM    H7T13166   1.397   4.173   6.810  0.9036  1.9367 -0.5510
  124OSM    C8S13167   1.322   4.184   7.014 -0.1807 -0.9192 -1.2011
  124OSM    H8S13168   1.242   4.232   7.075  1.9652  0.1129  0.9575
  124OSM    H8T13169   1.416   4.211   7.067 -1.1063  0.4081 -0.1749
  124OSM    C9S13170   1.306   4.028   7.023  0.3193  0.0597  0.1738
  124OSM    H9S13171   1.386   3.995   6.954 -0.5070  2.9032 -2.3625
  124OSM    H9T13172   1.209   4.004   6.974 -0.0315 -0.7420  1.2296
  124OSM   C10S13173   1.297   3.984   7.166  0.4695 -0.0661 -0.6511
  124OSM   H10S13174   1.206   4.025   7.215 -0.4854 -1.5679 -1.1286
  124OSM   H10T13175   1.385   4.031   7.216 -0.2536 -0.7643  1.3514
  124OSM   C11S13176   1.287   3.832   7.189  0.7056 -0.3235  0.3633
  124OSM   H11S13177   1.379   3.787   7.147  1.0591  0.4507  0.2887
  124OSM   H11T13178   1.207   3.788   7.126 -0.6571  3.2728 -0.6752
  124OSM   C12S13179   1.251   3.788   7.332 -0.4721 -0.4316 -0.2646
  124OSM   H12S13180   1.256   3.677   7.329  0.6575 -0.3881 -2.6128
  124OSM   H12T13181   1.151   3.822   7.366 -0.2929 -0.9293  0.8040
  124OSM   C13S13182   1.346   3.840   7.445 -0.6404 -0.3487  0.4103
  124OSM   H13S13183   1.357   3.951   7.439  1.0868 -0.5663 -1.9654
  124OSM   H13T13184   1.442   3.794   7.415  0.3243  1.4232  0.6075
  124OSM   C14S13185   1.310   3.798   7.587  0.1792 -0.2749 -0.3062
  124OSM   H14S13186   1.355   3.697   7.593  1.9668  0.4919 -0.1737
  124OSM   H14T13187   1.199   3.796   7.596 -0.0741  1.9272 -1.9963
  124OSM   C15S13188   1.353   3.897   7.702 -1.0398  0.3257  0.3697
  124OSM   H15S13189   1.464   3.902   7.704 -0.8745  0.0209 -2.6857
  124OSM   H15T13190   1.329   3.866   7.806  1.6238 -0.7839  0.7337
  124OSM   C16S13191   1.308   4.040   7.680  0.1077  0.1732  0.3435
  124OSM   H16S13192   1.219   4.043   7.613 -1.1946 -2.8519  1.7651
  124OSM   H16T13193   1.394   4.094   7.634  0.1699  0.0676  0.3343
  124OSM   C17S13194   1.284   4.102   7.810  0.1464  0.3241  0.1645
  124OSM   H17S13195   1.222   4.035   7.873 -0.9542  0.0705 -1.1422
  124OSM   H17T13196   1.234   4.200   7.796  0.2462  0.2202 -1.0291
  124OSM   C18S13197   1.409   4.128   7.896 -0.6970 -0.3387 -0.1121
  124OSM   H18S13198   1.456   4.039   7.945  0.3282 -1.0246 -2.2287
  124OSM   H18T13199   1.379   4.203   7.973  1.2765 -1.8732  2.3389
  124OSM   H18U13200   1.487   4.165   7.826  1.9684 -1.7140  1.9101
  124OSM    C1F13201   1.618   4.666   6.621  0.1996 -0.2868 -0.3183
  124OSM     OF13202   1.595   4.779   6.579 -0.4283 -0.2577  0.1106
  124OSM    C2F13203   1.742   4.628   6.686 -0.1790 -0.6182  0.1744
  124OSM    H2F13204   1.832   4.669   6.635 -1.3414 -0.3478 -1.7588
  124OSM    H2G13205   1.760   4.519   6.702  1.8739 -0.3368  0.0953
  124OSM    C3F13206   1.766   4.691   6.829  0.5649 -0.2891  0.4414
  124OSM    H3F13207   1.752   4.801   6.821  2.0409 -0.0892  0.4305
  124OSM    H3G13208   1.865   4.665   6.871  0.5661 -0.4280  0.3542
  124OSM    C4F13209   1.655   4.650   6.924  0.0779  0.0639 -0.2227
  124OSM    H4F13210   1.621   4.545   6.915 -1.8891  0.5020  1.2775
  124OSM    H4G13211   1.562   4.709   6.906 -0.9815 -2.2739 -3.3937
  124OSM    C5F13212   1.692   4.670   7.076 -0.0228 -0.5267  0.2221
  124OSM    H5F13213   1.598   4.687   7.132  0.6993  0.2429  1.2368
  124OSM    H5G13214   1.751   4.764   7.080 -1.0440  0.0899  1.0929
  124OSM    C6F13215   1.784   4.561   7.123 -0.9644  0.6114  0.7198
  124OSM    H6F13216   1.832   4.509   7.037 -1.0486 -0.4031  1.2670
  124OSM    H6G13217   1.731   4.474   7.167  1.3774 -0.1353  2.2486
  124OSM    C7F13218   1.896   4.601   7.224 -0.0648  0.6803  0.3472
  124OSM    H7F13219   1.959   4.677   7.171 -1.3468  1.2471 -0.4070
  124OSM    H7G13220   1.968   4.517   7.231  0.9491  1.3373 -1.4004
  124OSM    C8F13221   1.857   4.657   7.361  0.9133  0.0839  0.5224
  124OSM    H8F13222   1.792   4.586   7.417  0.6443  0.4593  0.6854
  124OSM    H8G13223   1.787   4.738   7.332  0.5867 -0.8999 -1.5976
  124OSM    C9F13224   1.965   4.703   7.448  0.0364 -0.7827 -0.4590
  124OSM    H9F13225   2.028   4.778   7.397  1.1173 -0.7598  0.8611
  124OSM   C10F13226   1.996   4.675   7.576  0.2544  0.2954  0.2932
  124OSM   H10F13227   2.086   4.723   7.618 -0.1992  1.0903  0.3866
  124OSM   C11F13228   1.933   4.588   7.679 -0.5189 -0.2431  0.1259
  124OSM   H11F13229   2.001   4.508   7.715  0.1519  1.1844  2.1866
  124OSM   H11G13230   1.846   4.525   7.649 -1.0760  0.5377  0.0775
  124OSM   C12F13231   1.883   4.663   7.797  0.4822  0.2568 -0.7624
  124OSM   H12F13232   1.960   4.723   7.849 -1.1158  0.5011  1.4954
  124OSM   H12G13233   1.856   4.601   7.885 -1.5450  0.4219 -1.2000
  124OSM   C13F13234   1.759   4.745   7.766 -0.1426 -0.4392 -0.1710
  124OSM   H13F13235   1.691   4.669   7.723  1.6143 -1.7526 -0.7241
  124OSM   H13G13236   1.774   4.823   7.688  0.4668  3.1904  3.2372
  124OSM   C14F13237   1.688   4.814   7.894  0.6990 -0.1382  0.7341
  124OSM   H14F13238   1.612   4.884   7.854 -1.1837 -2.9601 -0.9534
  124OSM   H14G13239   1.758   4.880   7.949  1.1494 -0.4063  0.4846
  124OSM   C15F13240   1.613   4.724   7.996  0.5758  0.2678  0.3472
  124OSM   H15F13241   1.675   4.639   8.032  0.0278  0.0335  0.7464
  124OSM   H15G13242   1.526   4.679   7.944 -0.2418 -2.8165  3.9689
  124OSM   C16F13243   1.534   4.808   8.094 -0.1231  0.0901 -0.6306
  124OSM   H16F13244   1.484   4.748   8.173  1.8308  1.9546  2.2100
  124OSM   H16G13245   1.457   4.865   8.038  1.0513  0.7725 -1.5857
  124OSM   C17F13246   1.619   4.912   8.174  0.0902  0.9524  0.2655
  124OSM   H17F13247   1.669   4.977   8.099  0.6702 -1.4529 -1.5564
  124OSM   H17G13248   1.694   4.860   8.238 -1.2064  1.1643  2.0400
  124OSM   C18F13249   1.527   4.999   8.260 -0.0941  0.0374 -0.1918
  124OSM   H18F13250   1.450   5.053   8.199 -0.0431  0.3886  0.0491
  124OSM   H18G13251   1.592   5.081   8.298 -0.1854 -0.5851  1.3618
  124OSM   H18H13252   1.466   4.950   8.339 -2.5452  1.2179 -1.2275
  125OSM      N13253   3.544   3.012   5.951  0.5972 -0.1544 -0.0080
  125OSM    C1513254   3.444   2.921   6.029  0.2418 -0.8932 -0.0526
  125OSM   H15A13255   3.345   2.908   5.989  0.8847 -2.2222 -1.2922
  125OSM   H15B13256   3.428   2.959   6.129  1.0769 -1.5613  0.3436
  125OSM   H15C13257   3.480   2.822   6.050  0.3603 -0.6157  1.1013
  125OSM    C1413258   3.565   2.948   5.813  0.2433 -0.1964  0.1799
  125OSM   H14A13259   3.664   2.904   5.806  0.6201  0.5012  0.9542
  125OSM   H14B13260   3.559   3.013   5.727  1.4350  0.7584  0.7839
  125OSM   H14C13261   3.490   2.874   5.789 -2.2208  2.0924  0.4438
  125OSM    C1313262   3.485   3.140   5.912 -0.4001 -0.1315 -0.1168
  125OSM   H13A13263   3.549   3.202   5.852  0.4581 -1.1786 -0.3243
  125OSM   H13B13264   3.449   3.192   6.000 -2.1103 -1.0835 -0.2272
  125OSM   H13C13265   3.395   3.115   5.859 -0.9480 -0.1674  0.7949
  125OSM    C1213266   3.669   3.018   6.033 -0.1266 -0.1546  0.0955
  125OSM   H12A13267   3.740   3.080   5.980  0.3875  0.2107  1.1712
  125OSM   H12B13268   3.698   2.916   6.053  3.0647  0.3688 -1.2544
  125OSM    C1113269   3.666   3.092   6.168 -0.5152 -0.3523 -0.3863
  125OSM   H11A13270   3.761   3.094   6.224 -0.6747  0.7875 -0.1329
  125OSM   H11B13271   3.600   3.030   6.233 -2.0181  0.9366 -0.6207
  125OSM      P13272   3.701   3.336   6.102 -0.1461 -0.3109 -0.1764
  125OSM    O1313273   3.767   3.283   5.981  0.1423 -0.3779 -0.0729
  125OSM    O1413274   3.608   3.452   6.082  0.0873 -0.4744 -0.0907
  125OSM    O1113275   3.812   3.373   6.208  0.4841  0.1676 -0.0055
  125OSM    O1213276   3.613   3.225   6.160  0.0742  0.2191  0.5414
  125OSM    C1S13277   3.800   3.455   6.321 -0.0246 -0.6575  0.0395
  125OSM    H1S13278   3.714   3.526   6.321  2.7968  3.0600  1.0508
  125OSM    H1T13279   3.899   3.503   6.335 -0.7695  0.4321  2.0157
  125OSM     NF13280   3.781   3.449   6.572 -0.4431  0.2596  0.3649
  125OSM    HNF13281   3.863   3.465   6.626  0.0766 -0.6011 -0.1438
  125OSM    C2S13282   3.801   3.368   6.452 -0.0577  0.1403  0.4541
  125OSM    H2S13283   3.710   3.307   6.441 -0.7942  1.3513 -0.4958
  125OSM    C3S13284   3.930   3.282   6.462  0.1401 -0.1558 -0.3983
  125OSM    H3S13285   4.011   3.351   6.494 -0.2212 -0.6164  1.6030
  125OSM     O313286   3.985   3.238   6.339 -0.3703 -0.0163 -0.3035
  125OSM    HO313287   3.943   3.297   6.277 -0.6449  0.8979  0.7223
  125OSM    C4S13288   3.913   3.171   6.565  0.0083  0.2394 -0.2457
  125OSM    H4S13289   3.981   3.173   6.652 -0.4528  0.3651  0.1111
  125OSM    C5S13290   3.821   3.068   6.543  0.5699  0.0998 -0.3856
  125OSM    H5S13291   3.750   3.075   6.460  0.7172 -0.2579 -0.5460
  125OSM    C6S13292   3.795   2.960   6.651  0.0177 -0.1436  0.3206
  125OSM    H6S13293   3.834   2.870   6.599 -0.9292 -0.8455  0.7752
  125OSM    H6T13294   3.690   2.938   6.682  0.0521 -0.0522  0.5068
  125OSM    C7S13295   3.870   2.983   6.785  0.5821 -0.0277  0.4636
  125OSM    H7S13296   3.980   2.995   6.771  0.4677 -0.6538 -1.0870
  125OSM    H7T13297   3.871   2.883   6.833  0.9012  0.2932  1.1403
  125OSM    C8S13298   3.824   3.093   6.882 -0.0827  0.1602 -0.0158
  125OSM    H8S13299   3.713   3.094   6.883 -0.0796  0.8137  0.4158
  125OSM    H8T13300   3.849   3.191   6.834  1.5453 -0.0088  0.4202
  125OSM    C9S13301   3.886   3.076   7.025 -0.6642 -0.7788 -0.2490
  125OSM    H9S13302   3.992   3.112   7.024 -0.5790 -1.0077  0.3581
  125OSM    H9T13303   3.896   2.970   7.056 -0.3910 -0.7769 -0.3271
  125OSM   C10S13304   3.825   3.158   7.146 -0.3293  0.2726 -0.0687
  125OSM   H10S13305   3.720   3.131   7.167 -0.3010 -0.0591 -0.3404
  125OSM   H10T13306   3.831   3.267   7.126 -0.8425  0.5603  1.2494
  125OSM   C11S13307   3.904   3.127   7.274  0.0655  0.2738  0.4726
  125OSM   H11S13308   4.008   3.163   7.255 -0.2139 -0.1022 -2.0691
  125OSM   H11T13309   3.923   3.019   7.295  0.4200  0.2934  0.2585
  125OSM   C12S13310   3.844   3.189   7.393  0.4179 -0.1332  0.0629
  125OSM   H12S13311   3.777   3.112   7.435 -1.9055  1.0947 -1.1683
  125OSM   H12T13312   3.782   3.277   7.364 -2.0288 -1.3582  1.3123
  125OSM   C13S13313   3.942   3.243   7.494  0.4455  0.7432 -0.3775
  125OSM   H13S13314   3.985   3.341   7.465  3.0769 -0.8942 -2.4813
  125OSM   H13T13315   4.019   3.162   7.494 -0.8362 -0.5629 -2.5450
  125OSM   C14S13316   3.881   3.257   7.632  0.4311 -0.3114 -0.5068
  125OSM   H14S13317   3.771   3.272   7.640  0.7777  1.5899  3.5504
  125OSM   H14T13318   3.934   3.338   7.686  2.4427 -0.9346 -1.4669
  125OSM   C15S13319   3.902   3.127   7.711 -0.5572  0.8572  0.4893
  125OSM   H15S13320   4.009   3.097   7.702 -0.8316  0.3203 -1.7295
  125OSM   H15T13321   3.837   3.045   7.672  1.0449  0.2133 -1.0213
  125OSM   C16S13322   3.889   3.146   7.865 -0.1612 -0.1023  0.1267
  125OSM   H16S13323   3.785   3.183   7.874 -0.0898  0.0734  0.2317
  125OSM   H16T13324   3.957   3.225   7.904  0.1687  0.7228 -2.0213
  125OSM   C17S13325   3.895   3.017   7.951  0.1128  0.0391 -0.8305
  125OSM   H17S13326   3.989   2.965   7.923 -0.0645  0.1073 -1.5764
  125OSM   H17T13327   3.819   2.944   7.915 -2.0648 -0.5529  4.0714
  125OSM   C18S13328   3.859   3.040   8.104  0.5974  0.2122 -0.0379
  125OSM   H18S13329   3.861   2.948   8.166 -1.0098 -0.1677 -0.5213
  125OSM   H18T13330   3.765   3.098   8.110 -0.1285 -1.0480  1.1572
  125OSM   H18U13331   3.942   3.101   8.146  3.5518 -1.1403 -3.3277
  125OSM    C1F13332   3.664   3.524   6.586  0.4901  0.1566  0.2931
  125OSM     OF13333   3.567   3.519   6.516  0.2543  0.1058  0.1089
  125OSM    C2F13334   3.658   3.620   6.701  0.3339 -0.2441 -0.1512
  125OSM    H2F13335   3.597   3.707   6.668 -2.0365 -1.0172  1.9435
  125OSM    H2G13336   3.758   3.662   6.725 -0.1772  0.6436  0.4625
  125OSM    C3F13337   3.596   3.555   6.827 -0.4886  0.3493  0.0154
  125OSM    H3F13338   3.636   3.451   6.832  1.7144  1.0754 -1.0662
  125OSM    H3G13339   3.485   3.554   6.818 -0.4977  0.2247  0.1450
  125OSM    C4F13340   3.643   3.626   6.957 -0.1386 -0.4816  0.1354
  125OSM    H4F13341   3.617   3.734   6.961  1.6147 -0.0371  0.2919
  125OSM    H4G13342   3.753   3.617   6.964 -0.0316  0.9522  0.7031
  125OSM    C5F13343   3.593   3.562   7.084  0.2177  0.2871 -0.5557
  125OSM    H5F13344   3.639   3.461   7.088  3.0375  1.4881 -0.6575
  125OSM    H5G13345   3.482   3.553   7.084  0.0622  1.8952 -0.4587
  125OSM    C6F13346   3.642   3.627   7.218 -0.3661 -0.8685  0.0271
  125OSM    H6F13347   3.614   3.734   7.216  2.0843 -0.1614  0.7078
  125OSM    H6G13348   3.753   3.628   7.213 -0.3446  0.6579  0.4996
  125OSM    C7F13349   3.589   3.564   7.345 -0.1428 -0.0980 -0.0057
  125OSM    H7F13350   3.630   3.461   7.352  0.7547  0.2019 -0.6262
  125OSM    H7G13351   3.479   3.557   7.334 -0.1233 -0.2220 -0.1217
  125OSM    C8F13352   3.621   3.641   7.475 -0.1641  0.0541  0.7873
  125OSM    H8F13353   3.560   3.577   7.543 -0.8192 -1.6828 -1.3078
  125OSM    H8G13354   3.591   3.747   7.471 -1.0612 -0.2057  0.2904
  125OSM    C9F13355   3.761   3.632   7.519  0.2618  0.3936 -0.7848
  125OSM    H9F13356   3.833   3.667   7.444  2.0943 -0.5665  0.4720
  125OSM   C10F13357   3.803   3.599   7.646  0.2254  0.6644 -0.1014
  125OSM   H10F13358   3.910   3.603   7.672  0.3719 -0.3993 -0.4829
  125OSM   C11F13359   3.700   3.572   7.754  0.5198 -0.6012  0.6056
  125OSM   H11F13360   3.671   3.465   7.753 -0.2377 -0.4078  1.1458
  125OSM   H11G13361   3.605   3.625   7.731  0.7799 -0.8281 -1.1078
  125OSM   C12F13362   3.735   3.613   7.897 -0.3297  0.1174  0.1432
  125OSM   H12F13363   3.649   3.583   7.960 -1.1524  0.6668 -0.7019
  125OSM   H12G13364   3.752   3.723   7.905 -0.1733  0.0883  0.2249
  125OSM   C13F13365   3.860   3.528   7.940  0.1363  0.0717 -0.7405
  125OSM   H13F13366   3.950   3.535   7.876  0.6745 -2.1042 -0.3035
  125OSM   H13G13367   3.821   3.424   7.943 -1.0581  0.5068 -0.4427
  125OSM   C14F13368   3.890   3.573   8.082 -0.4197 -0.2714 -0.2728
  125OSM   H14F13369   3.804   3.530   8.139  0.5499 -3.0158 -0.7305
  125OSM   H14G13370   3.900   3.683   8.097  1.5895 -0.6572  1.5929
  125OSM   C15F13371   4.029   3.516   8.144  0.7392 -0.4298  0.3863
  125OSM   H15F13372   4.113   3.554   8.083  0.0015  0.7675  0.0786
  125OSM   H15G13373   4.015   3.406   8.149 -1.5415 -0.1557  1.2653
  125OSM   C16F13374   4.050   3.571   8.290 -0.2517 -0.0150 -0.2112
  125OSM   H16F13375   4.041   3.681   8.279  2.4883  0.2806  0.0211
  125OSM   H16G13376   4.151   3.551   8.331 -0.8559 -0.8222  0.9466
  125OSM   C17F13377   3.935   3.523   8.388 -0.3638 -0.0994  0.5338
  125OSM   H17F13378   3.903   3.418   8.367 -3.1571  0.7514  0.0814
  125OSM   H17G13379   3.846   3.590   8.384  2.3745  3.8878  0.4317
  125OSM   C18F13380   3.979   3.516   8.527 -0.2149 -0.5624  0.0304
  125OSM   H18F13381   3.995   3.619   8.568  1.5071 -0.5854 -0.4801
  125OSM   H18G13382   4.074   3.458   8.527  1.2543  1.6886 -1.0155
  125OSM   H18H13383   3.896   3.473   8.587 -2.7298  3.0963 -0.4937
  126OSM      N13384   6.248   0.459   6.557  0.0149  0.2954  0.5547
  126OSM    C1513385   6.272   0.451   6.413 -0.2102  0.0196 -0.1552
  126OSM   H15A13386   6.354   0.392   6.375  1.3212  2.0112 -0.1335
  126OSM   H15B13387   6.290   0.550   6.373 -0.4402  1.0410  2.1323
  126OSM   H15C13388   6.183   0.414   6.365 -2.4064  2.7956  1.4455
  126OSM    C1413389   6.209   0.324   6.608 -0.0585 -0.0153  0.6039
  126OSM   H14A13390   6.125   0.287   6.551 -0.8104  2.6016 -0.1496
  126OSM   H14B13391   6.174   0.342   6.708  1.3032  1.5613  0.8334
  126OSM   H14C13392   6.288   0.251   6.610  0.7790  0.8829  1.0334
  126OSM    C1313393   6.373   0.508   6.628  0.0224 -0.0819  0.0096
  126OSM   H13A13394   6.350   0.530   6.731 -3.6046  2.3281 -1.1331
  126OSM   H13B13395   6.415   0.597   6.584  0.3006  0.4668  1.3449
  126OSM   H13C13396   6.445   0.428   6.627 -1.0564 -1.1144 -2.5205
  126OSM    C1213397   6.141   0.557   6.575  0.0853  0.8111  0.2342
  126OSM   H12A13398   6.111   0.555   6.679  0.5005 -1.1658  0.3604
  126OSM   H12B13399   6.052   0.533   6.520  0.8081 -0.5119 -0.4128
  126OSM    C1113400   6.172   0.710   6.551  0.2916  0.7756  0.2608
  126OSM   H11A13401   6.236   0.740   6.636 -2.3115  2.1063  1.8839
  126OSM   H11B13402   6.068   0.748   6.555  0.1556  0.6887 -1.3784
  126OSM      P13403   6.349   0.832   6.396 -0.1730  0.2025  0.1040
  126OSM    O1313404   6.414   0.759   6.281 -0.6124  0.0596  0.6686
  126OSM    O1413405   6.308   0.971   6.368 -0.1573  0.0567  0.0965
  126OSM    O1113406   6.438   0.814   6.529  0.3075  0.0033  0.3050
  126OSM    O1213407   6.224   0.745   6.428  0.1490  0.3082  0.0836
  126OSM    C1S13408   6.456   0.916   6.618  0.1440  0.3164 -0.5073
  126OSM    H1S13409   6.360   0.956   6.656 -0.5027 -2.2009  0.6917
  126OSM    H1T13410   6.496   1.005   6.564  0.6988 -1.4946 -3.3463
  126OSM     NF13411   6.555   1.031   6.796  0.5877  0.1980 -0.2632
  126OSM    HNF13412   6.644   1.073   6.782  0.9040 -0.2121  0.4718
  126OSM    C2S13413   6.547   0.894   6.738 -0.5534 -0.2138  1.0125
  126OSM    H2S13414   6.501   0.823   6.811  1.1213 -1.3693  1.0037
  126OSM    C3S13415   6.684   0.833   6.687  0.4298  0.1906 -0.3877
  126OSM    H3S13416   6.733   0.905   6.618  1.1632 -0.7945 -0.9196
  126OSM     O313417   6.674   0.711   6.610 -0.1777  0.0112  0.4858
  126OSM    HO313418   6.589   0.730   6.571  1.2287  2.9799 -1.5211
  126OSM    C4S13419   6.774   0.808   6.801  0.2158 -0.2634 -0.3508
  126OSM    H4S13420   6.737   0.730   6.869 -0.6804  1.3951  1.1469
  126OSM    C5S13421   6.884   0.873   6.826  0.5446 -0.4797  0.6186
  126OSM    H5S13422   6.905   0.961   6.765 -0.6967 -0.0354  0.7955
  126OSM    C6S13423   6.981   0.842   6.942 -0.3624 -0.1529  0.3080
  126OSM    H6S13424   7.024   0.939   6.975 -2.7038  1.2447 -0.4608
  126OSM    H6T13425   7.068   0.779   6.915  0.6125  0.3909  2.0584
  126OSM    C7S13426   6.922   0.778   7.059  0.4318 -0.1224  0.6503
  126OSM    H7S13427   6.878   0.678   7.039  1.5927 -0.0803 -2.7476
  126OSM    H7T13428   6.848   0.846   7.106  0.5483  0.9380 -0.6521
  126OSM    C8S13429   7.025   0.752   7.171  0.1278 -0.2645  0.1853
  126OSM    H8S13430   7.071   0.847   7.207  0.3623 -0.7114  1.0839
  126OSM    H8T13431   7.118   0.699   7.142  1.7887  1.6749  1.5864
  126OSM    C9S13432   6.954   0.683   7.284  0.3240  0.0801  0.4648
  126OSM    H9S13433   6.900   0.598   7.237 -1.2724  0.6236  1.2535
  126OSM    H9T13434   6.873   0.739   7.335 -1.4923 -1.5035 -0.5369
  126OSM   C10S13435   7.046   0.626   7.394 -0.6658  0.2869 -0.0162
  126OSM   H10S13436   7.156   0.631   7.375 -0.4532 -0.3290  0.9878
  126OSM   H10T13437   7.025   0.517   7.397  1.8090 -0.2816 -0.7921
  126OSM   C11S13438   7.020   0.679   7.534  0.4561 -0.1503  0.6412
  126OSM   H11S13439   6.916   0.653   7.561  0.6081  0.3119  1.6890
  126OSM   H11T13440   7.035   0.789   7.531 -3.3991  0.5138 -2.1098
  126OSM   C12S13441   7.110   0.607   7.631  0.5655  0.5124 -0.1916
  126OSM   H12S13442   7.216   0.616   7.599  0.3346  0.5470 -0.9570
  126OSM   H12T13443   7.089   0.498   7.631 -0.5507  0.6942  1.1719
  126OSM   C13S13444   7.120   0.676   7.763  0.2989 -0.2162  0.1778
  126OSM   H13S13445   7.016   0.709   7.785  0.3780 -0.2274  0.5707
  126OSM   H13T13446   7.161   0.777   7.744 -1.9109  0.8627  0.7214
  126OSM   C14S13447   7.193   0.596   7.874  0.0607  0.5438  0.2233
  126OSM   H14S13448   7.246   0.655   7.952  0.8661 -1.3817  1.2053
  126OSM   H14T13449   7.275   0.547   7.818 -2.3202  0.5388 -3.6016
  126OSM   C15S13450   7.102   0.491   7.940 -0.6262 -0.5092 -0.0565
  126OSM   H15S13451   7.054   0.431   7.859 -1.7771 -0.8512  0.8570
  126OSM   H15T13452   7.020   0.540   7.995  1.0616  1.7870  0.5629
  126OSM   C16S13453   7.177   0.394   8.032 -0.7481  0.3910 -0.0810
  126OSM   H16S13454   7.263   0.342   7.984 -0.8177  0.9718 -0.8547
  126OSM   H16T13455   7.100   0.317   8.056  2.1240 -2.4990  0.4498
  126OSM   C17S13456   7.217   0.454   8.164 -1.0634  0.5616 -0.0245
  126OSM   H17S13457   7.268   0.552   8.151  0.7868 -0.3307  0.0974
  126OSM   H17T13458   7.288   0.391   8.222 -1.1588 -0.6590 -1.2016
  126OSM   C18S13459   7.105   0.489   8.250  0.6312 -0.9148 -0.4551
  126OSM   H18S13460   7.033   0.562   8.208 -0.6917 -2.9338 -1.9322
  126OSM   H18T13461   7.130   0.510   8.356  1.7464  0.8168 -1.0301
  126OSM   H18U13462   7.043   0.398   8.267 -0.2727  0.1716  2.7369
  126OSM    C1F13463   6.451   1.086   6.862  0.0370  0.3886  0.2290
  126OSM     OF13464   6.355   1.014   6.890  0.0153  0.1403 -0.2977
  126OSM    C2F13465   6.453   1.231   6.884 -0.0651 -0.1657  0.1709
  126OSM    H2F13466   6.369   1.272   6.824 -0.0968 -0.3531  0.0872
  126OSM    H2G13467   6.550   1.275   6.853  0.0163 -0.6778 -0.3016
  126OSM    C3F13468   6.425   1.256   7.035 -0.1361  0.2880 -1.0977
  126OSM    H3F13469   6.509   1.222   7.099 -0.7524  3.3044  1.5470
  126OSM    H3G13470   6.340   1.196   7.073  1.2456 -1.5985 -0.8629
  126OSM    C4F13471   6.418   1.405   7.080  0.3283  0.2421 -0.5797
  126OSM    H4F13472   6.347   1.455   7.011 -0.0833 -0.2067 -0.4954
  126OSM    H4G13473   6.516   1.449   7.055  0.5957 -0.7865 -1.4277
  126OSM    C5F13474   6.380   1.418   7.226 -0.0779 -0.2247 -0.2945
  126OSM    H5F13475   6.393   1.526   7.248  1.5127  0.9891 -5.6419
  126OSM    H5G13476   6.441   1.372   7.306  0.1041  2.9932  1.5650
  126OSM    C6F13477   6.230   1.370   7.245  0.0095  0.1591  0.4281
  126OSM    H6F13478   6.223   1.262   7.220  3.4668 -0.0945 -0.0405
  126OSM    H6G13479   6.147   1.429   7.201 -2.7165 -1.6657  2.7402
  126OSM    C7F13480   6.198   1.389   7.396  0.7263 -0.3210 -0.2634
  126OSM    H7F13481   6.225   1.489   7.437 -1.6607  0.3624 -0.2042
  126OSM    H7G13482   6.260   1.315   7.451 -0.7933 -1.5416 -0.1105
  126OSM    C8F13483   6.050   1.362   7.432 -0.7083 -0.4075 -0.2048
  126OSM    H8F13484   6.011   1.265   7.394 -2.4055  0.2179 -0.1703
  126OSM    H8G13485   5.993   1.450   7.394  0.0303 -0.7664 -2.2836
  126OSM    C9F13486   6.029   1.343   7.580 -0.0047  0.0632 -0.0272
  126OSM    H9F13487   5.977   1.420   7.638  0.1358 -0.7407  1.2084
  126OSM   C10F13488   6.073   1.233   7.640  0.0874  0.1040 -0.0415
  126OSM   H10F13489   6.063   1.236   7.749  0.7485  0.9539  0.0078
  126OSM   C11F13490   6.135   1.108   7.583  0.3657 -0.1573  0.3915
  126OSM   H11F13491   6.237   1.099   7.625  0.9431 -0.7674 -1.0871
  126OSM   H11G13492   6.129   1.112   7.472 -1.7061 -2.1594  0.3490
  126OSM   C12F13493   6.059   0.983   7.627 -0.0438 -0.2678 -0.0169
  126OSM   H12F13494   6.085   0.895   7.564 -0.1312  0.3421 -0.9206
  126OSM   H12G13495   5.956   1.006   7.592 -0.5623 -2.6021 -0.2128
  126OSM   C13F13496   6.070   0.955   7.777 -0.6739  0.0826 -0.3202
  126OSM   H13F13497   6.047   1.045   7.839  2.9455 -0.1801  1.7367
  126OSM   H13G13498   6.175   0.926   7.799 -0.4797 -0.0429 -1.3612
  126OSM   C14F13499   5.972   0.835   7.808 -0.1926  0.1830  0.3496
  126OSM   H14F13500   6.011   0.747   7.752 -3.5160 -2.1893  1.4801
  126OSM   H14G13501   5.872   0.864   7.771 -0.0753  3.6458  2.3552
  126OSM   C15F13502   5.984   0.784   7.955  0.3108 -0.1190  0.6874
  126OSM   H15F13503   5.985   0.873   8.021  2.5202 -1.8869  3.2266
  126OSM   H15G13504   6.089   0.748   7.963 -0.8696 -4.5444 -0.6820
  126OSM   C16F13505   5.865   0.692   8.000 -0.4252  0.2002 -0.0357
  126OSM   H16F13506   5.867   0.607   7.929  0.7786  1.9172 -2.1825
  126OSM   H16G13507   5.773   0.753   7.985  2.4575  4.7503 -1.0802
  126OSM   C17F13508   5.876   0.627   8.143  0.2984 -0.2077 -0.7589
  126OSM   H17F13509   5.773   0.594   8.169  1.3507 -1.4701  2.2794
  126OSM   H17G13510   5.902   0.709   8.214  0.7732 -0.8499 -0.1657
  126OSM   C18F13511   5.973   0.507   8.160 -0.5322 -0.3465  0.2278
  126OSM   H18F13512   5.940   0.420   8.099  1.9126 -0.7488 -0.6631
  126OSM   H18G13513   6.004   0.473   8.261  1.9851 -0.8683 -0.6447
  126OSM   H18H13514   6.070   0.541   8.118 -0.6326  0.3303  0.5340
  127OSM      N13515   5.168   3.155   6.228 -0.8135  0.5040 -0.4084
  127OSM    C1513516   5.204   3.096   6.358 -0.0620  0.0044  0.2588
  127OSM   H15A13517   5.253   3.005   6.325 -1.4775  0.0545 -2.1650
  127OSM   H15B13518   5.119   3.076   6.422  0.0042  3.9423  1.8523
  127OSM   H15C13519   5.280   3.157   6.406 -1.4822  1.1537  1.1335
  127OSM    C1413520   5.072   3.261   6.254  0.0250 -0.5901  0.9479
  127OSM   H14A13521   4.972   3.224   6.273  0.1885 -1.9135 -0.6133
  127OSM   H14B13522   5.060   3.323   6.167  0.3890 -0.1168  1.2287
  127OSM   H14C13523   5.099   3.324   6.338 -0.3158 -0.7137  1.1550
  127OSM    C1313524   5.278   3.211   6.144  1.1354  0.0761  0.0026
  127OSM   H13A13525   5.348   3.264   6.207  0.7205  1.4751 -0.6758
  127OSM   H13B13526   5.253   3.286   6.070  1.8001  0.8904  0.5870
  127OSM   H13C13527   5.339   3.133   6.101  2.0140  0.2314  0.9325
  127OSM    C1213528   5.101   3.046   6.146 -0.2800  0.2757  0.0157
  127OSM   H12A13529   5.051   3.086   6.060 -0.6886  1.1518  0.6508
  127OSM   H12B13530   5.025   2.999   6.207 -1.0371 -0.3277 -1.3663
  127OSM    C1113531   5.186   2.922   6.097 -0.0982 -0.2729 -0.0248
  127OSM   H11A13532   5.274   2.958   6.040  0.4883  0.0632  1.0501
  127OSM   H11B13533   5.124   2.861   6.028 -3.0954  2.2289  0.2763
  127OSM      P13534   5.128   2.753   6.271 -0.0674 -0.2254  0.0816
  127OSM    O1313535   4.996   2.818   6.262 -0.1226  0.5171 -0.3713
  127OSM    O1413536   5.143   2.624   6.201 -0.2428 -0.1130  0.7152
  127OSM    O1113537   5.164   2.727   6.424  0.4964 -0.5974  0.3058
  127OSM    O1213538   5.236   2.853   6.209 -0.6020  0.1177  0.2567
  127OSM    C1S13539   5.282   2.663   6.480 -0.1764 -0.4270 -0.8957
  127OSM    H1S13540   5.377   2.717   6.461 -0.4736  0.2127 -0.5828
  127OSM    H1T13541   5.301   2.570   6.423  1.1612  0.3423 -1.7484
  127OSM     NF13542   5.401   2.555   6.669 -0.3250 -0.1307  0.5945
  127OSM    HNF13543   5.396   2.459   6.695  1.5971 -0.2801  0.5070
  127OSM    C2S13544   5.279   2.619   6.628  0.6895  0.1072  0.2663
  127OSM    H2S13545   5.263   2.716   6.681  0.1000 -0.6671  1.5676
  127OSM    C3S13546   5.148   2.534   6.653 -0.6286  0.2352  0.3070
  127OSM    H3S13547   5.155   2.441   6.593  0.0369  0.4040  0.1178
  127OSM     O313548   5.036   2.605   6.613  0.0099 -0.1755 -0.2272
  127OSM    HO313549   5.070   2.666   6.546  0.4458  1.1105  1.1009
  127OSM    C4S13550   5.131   2.492   6.798  0.3436  0.1562 -0.2886
  127OSM    H4S13551   5.183   2.401   6.832 -0.2472  0.2013  0.8032
  127OSM    C5S13552   5.055   2.542   6.896 -0.1447  0.7162 -0.2493
  127OSM    H5S13553   4.998   2.636   6.891 -0.0853  0.7742  0.1051
  127OSM    C6S13554   5.041   2.479   7.035 -0.0382 -0.2203  0.0495
  127OSM    H6S13555   5.070   2.371   7.030 -1.4573 -0.5933 -0.7216
  127OSM    H6T13556   4.932   2.469   7.053 -0.0756  1.3786  0.9273
  127OSM    C7S13557   5.100   2.558   7.152 -0.0056 -0.2373  0.0431
  127OSM    H7S13558   5.047   2.655   7.151  0.4802  0.0724 -2.3930
  127OSM    H7T13559   5.208   2.583   7.144 -0.5521  4.4396  3.3594
  127OSM    C8S13560   5.063   2.491   7.285  0.7516 -0.6577  0.2834
  127OSM    H8S13561   5.114   2.393   7.295  2.0417 -0.1093 -0.5465
  127OSM    H8T13562   4.954   2.470   7.281  0.7126 -0.6148  0.9525
  127OSM    C9S13563   5.112   2.577   7.402 -1.1511  0.3148 -0.1477
  127OSM    H9S13564   5.074   2.681   7.395 -4.0226 -0.7354 -1.9221
  127OSM    H9T13565   5.223   2.577   7.404 -1.0304 -0.9177  4.2846
  127OSM   C10S13566   5.063   2.524   7.538 -0.2668  0.8376 -0.4203
  127OSM   H10S13567   5.091   2.416   7.538 -2.2926  0.2667 -0.1315
  127OSM   H10T13568   4.953   2.539   7.534 -0.1644  1.5509 -0.6818
  127OSM   C11S13569   5.122   2.588   7.665 -0.3908 -0.0111  0.3602
  127OSM   H11S13570   5.115   2.699   7.660 -1.8234 -0.0680  0.6904
  127OSM   H11T13571   5.229   2.558   7.659 -0.9721 -2.0602 -0.7768
  127OSM   C12S13572   5.070   2.532   7.796 -0.0207 -0.2475 -0.0959
  127OSM   H12S13573   5.088   2.423   7.803  0.3665 -0.1638  0.1915
  127OSM   H12T13574   4.962   2.549   7.817 -0.6810 -0.1775 -3.0238
  127OSM   C13S13575   5.158   2.573   7.925  0.1989  0.3571 -0.0908
  127OSM   H13S13576   5.146   2.683   7.933 -1.8945  0.1566  0.0579
  127OSM   H13T13577   5.265   2.545   7.914 -0.2968 -1.9147  0.5244
  127OSM   C14S13578   5.109   2.512   8.052  0.5576  0.6850  0.4129
  127OSM   H14S13579   5.093   2.402   8.054  1.3685  0.5009 -1.4557
  127OSM   H14T13580   5.007   2.554   8.050  1.2544  2.5458 -3.0688
  127OSM   C15S13581   5.177   2.557   8.185  0.0097  0.6212  0.6476
  127OSM   H15S13582   5.190   2.667   8.201  0.0573  0.4334  1.9935
  127OSM   H15T13583   5.280   2.516   8.186  1.9488  4.8236 -1.0671
  127OSM   C16S13584   5.083   2.521   8.300 -0.2851  0.3084  0.8887
  127OSM   H16S13585   5.057   2.413   8.298 -0.1184  0.2725  0.5217
  127OSM   H16T13586   4.990   2.577   8.274 -0.7246 -1.0052 -0.4860
  127OSM   C17S13587   5.137   2.563   8.432 -0.0631 -0.3826  0.3851
  127OSM   H17S13588   5.171   2.668   8.420 -0.2017 -0.5103 -1.2626
  127OSM   H17T13589   5.229   2.501   8.441  1.0727  1.1452 -0.3509
  127OSM   C18S13590   5.037   2.532   8.548  0.4634 -0.0281  0.0640
  127OSM   H18S13591   5.007   2.425   8.560  3.6944 -0.8936  1.4417
  127OSM   H18T13592   4.951   2.603   8.553 -1.1897 -2.0260  1.8346
  127OSM   H18U13593   5.092   2.561   8.640 -1.2087 -1.0412  1.4479
  127OSM    C1F13594   5.520   2.618   6.681  0.0815  0.6378 -0.7874
  127OSM     OF13595   5.534   2.729   6.639  0.6214  0.4766 -0.1539
  127OSM    C2F13596   5.637   2.548   6.754 -0.5579 -0.0918  0.2270
  127OSM    H2F13597   5.718   2.544   6.678 -1.1451 -0.2201 -0.4066
  127OSM    H2G13598   5.612   2.445   6.788  0.2292  0.3518  2.2855
  127OSM    C3F13599   5.681   2.629   6.875  0.1388 -0.0965  0.2867
  127OSM    H3F13600   5.701   2.731   6.834  0.0888  0.0344  0.5817
  127OSM    H3G13601   5.779   2.595   6.914 -0.1620 -0.4624  0.7358
  127OSM    C4F13602   5.579   2.640   6.989 -0.1775 -0.1034 -0.6324
  127OSM    H4F13603   5.496   2.698   6.943 -0.6215  0.2340  0.5743
  127OSM    H4G13604   5.623   2.710   7.063 -1.0499  0.7789 -0.9306
  127OSM    C5F13605   5.550   2.511   7.062  0.2542  0.2033 -0.0462
  127OSM    H5F13606   5.641   2.448   7.065  0.2767  0.2889  1.4643
  127OSM    H5G13607   5.479   2.444   7.008  0.9065 -0.4274 -0.1345
  127OSM    C6F13608   5.492   2.512   7.205  0.0839  0.9123  0.9819
  127OSM    H6F13609   5.431   2.420   7.213 -0.4426  1.1107 -0.5187
  127OSM    H6G13610   5.418   2.594   7.220 -1.6872 -0.6623  1.1041
  127OSM    C7F13611   5.597   2.525   7.311  0.5833  0.0977 -0.1135
  127OSM    H7F13612   5.645   2.625   7.302  4.4805 -1.3216  2.3888
  127OSM    H7G13613   5.671   2.443   7.301  0.7597  0.1152  0.9527
  127OSM    C8F13614   5.526   2.531   7.448 -0.2127  0.5537  0.7520
  127OSM    H8F13615   5.462   2.622   7.459 -1.5144 -0.1979 -0.3959
  127OSM    H8G13616   5.613   2.531   7.518  0.3615 -0.5091  0.0610
  127OSM    C9F13617   5.446   2.405   7.480 -0.2330 -0.2290 -0.9726
  127OSM    H9F13618   5.368   2.364   7.414 -1.3083 -4.4433  2.4627
  127OSM   C10F13619   5.455   2.329   7.590  0.7888 -0.1683 -0.4741
  127OSM   H10F13620   5.408   2.231   7.603  1.1285 -0.2682  0.0503
  127OSM   C11F13621   5.553   2.371   7.704  0.1219 -0.9115 -0.1371
  127OSM   H11F13622   5.571   2.481   7.702 -1.4517 -0.6361 -0.3495
  127OSM   H11G13623   5.652   2.326   7.683  0.0601 -1.3187  0.4305
  127OSM   C12F13624   5.495   2.347   7.842 -0.3233  0.9461 -0.4197
  127OSM   H12F13625   5.403   2.407   7.860 -0.9055  0.4886 -1.7045
  127OSM   H12G13626   5.573   2.391   7.908  0.5566 -0.5802 -0.3721
  127OSM   C13F13627   5.490   2.195   7.874 -0.7622  0.1761 -0.1954
  127OSM   H13F13628   5.597   2.166   7.888 -0.6502  1.6530  2.7896
  127OSM   H13G13629   5.437   2.141   7.793 -1.9738  1.4875 -0.3186
  127OSM   C14F13630   5.408   2.175   8.003  0.9616  0.5848 -0.1043
  127OSM   H14F13631   5.423   2.071   8.040  1.7489  0.7881  0.1491
  127OSM   H14G13632   5.298   2.191   7.992  1.0562  2.9168  1.7600
  127OSM   C15F13633   5.460   2.255   8.124 -0.1114  0.4817  0.4153
  127OSM   H15F13634   5.452   2.363   8.102 -0.7249  0.0062 -1.9581
  127OSM   H15G13635   5.568   2.232   8.139  0.5212  3.6181  1.3514
  127OSM   C16F13636   5.396   2.210   8.254  0.3543 -0.2365 -0.2846
  127OSM   H16F13637   5.367   2.103   8.247  2.8483 -0.9542 -0.5159
  127OSM   H16G13638   5.298   2.263   8.262 -0.7122 -1.6241 -2.9201
  127OSM   C17F13639   5.487   2.223   8.378 -0.2752 -0.4672 -0.0338
  127OSM   H17F13640   5.480   2.328   8.416 -0.3405 -1.0247  1.5661
  127OSM   H17G13641   5.590   2.211   8.339  0.6447  2.0016  1.3632
  127OSM   C18F13642   5.465   2.116   8.486  0.1983  0.0662  0.5397
  127OSM   H18F13643   5.358   2.128   8.514 -0.5669  3.9112 -3.1113
  127OSM   H18G13644   5.539   2.127   8.568  1.0887  0.3631 -0.2763
  127OSM   H18H13645   5.481   2.013   8.447  2.4561  0.6670 -0.3005
  128OSM      N13646   5.623   5.224   6.211 -0.3666 -0.2684 -0.1737
  128OSM    C1513647   5.620   5.300   6.078  0.0831  0.1367  0.0106
  128OSM   H15A13648   5.697   5.376   6.086  0.7310 -0.6633  2.0830
  128OSM   H15B13649   5.532   5.362   6.076 -0.1672 -0.1891 -3.0173
  128OSM   H15C13650   5.619   5.233   5.993 -0.4845  0.4143 -0.2002
  128OSM    C1413651   5.522   5.116   6.216 -0.1847 -0.3298  0.7369
  128OSM   H14A13652   5.529   5.068   6.312 -1.2729  1.1876  1.6167
  128OSM   H14B13653   5.542   5.053   6.130  1.7337  2.0382 -0.6999
  128OSM   H14C13654   5.418   5.143   6.213 -0.4249 -1.2804 -0.5317
  128OSM    C1313655   5.761   5.163   6.226  0.6603  0.1594  0.3129
  128OSM   H13A13656   5.844   5.231   6.210 -0.5791  1.5321 -0.5040
  128OSM   H13B13657   5.767   5.078   6.159 -0.9004 -0.9463  1.5133
  128OSM   H13C13658   5.773   5.121   6.324  0.9270 -0.8372 -0.1339
  128OSM    C1213659   5.610   5.324   6.322 -0.0298  0.2755 -0.0854
  128OSM   H12A13660   5.600   5.272   6.416  2.2744 -0.0749  0.0210
  128OSM   H12B13661   5.512   5.370   6.323  0.1197  0.5968 -0.1533
  128OSM    C1113662   5.715   5.433   6.337 -0.5018 -0.5050 -0.4616
  128OSM   H11A13663   5.819   5.395   6.323 -0.0552  0.1915  0.8215
  128OSM   H11B13664   5.709   5.467   6.442  1.6681 -2.1220  0.2556
  128OSM      P13665   5.552   5.626   6.255 -0.1626 -0.0165 -0.1837
  128OSM    O1313666   5.577   5.763   6.207 -0.0334 -0.1944  0.3742
  128OSM    O1413667   5.442   5.558   6.181 -0.0307  0.3763  0.7197
  128OSM    O1113668   5.521   5.628   6.409 -0.2723  0.0858  0.3718
  128OSM    O1213669   5.689   5.543   6.248 -0.5167 -0.2622  0.2533
  128OSM    C1S13670   5.577   5.722   6.498  0.0883  0.0824 -0.0587
  128OSM    H1S13671   5.598   5.821   6.452 -1.0994  0.7654  0.8289
  128OSM    H1T13672   5.676   5.684   6.532  1.0552  0.6679 -2.0399
  128OSM     NF13673   5.525   5.868   6.702  0.0252 -0.4269  0.2602
  128OSM    HNF13674   5.578   5.855   6.786 -0.6760  1.9056  1.1442
  128OSM    C2S13675   5.494   5.749   6.624 -0.4968  0.3430 -0.3236
  128OSM    H2S13676   5.391   5.757   6.584 -0.0148 -0.4661 -1.7849
  128OSM    C3S13677   5.507   5.625   6.722  0.1306  0.0877 -1.0387
  128OSM    H3S13678   5.614   5.634   6.750 -0.6003  2.4173  1.3953
  128OSM     O313679   5.487   5.504   6.645  0.4144 -0.1505 -0.1716
  128OSM    HO313680   5.482   5.542   6.557 -1.3433 -0.1360 -0.1114
  128OSM    C4S13681   5.416   5.628   6.841 -0.4886 -0.3745  0.1624
  128OSM    H4S13682   5.465   5.672   6.930 -2.2305  2.2609 -0.0552
  128OSM    C5S13683   5.288   5.594   6.856 -0.0022  0.0701  0.6750
  128OSM    H5S13684   5.242   5.551   6.766 -0.5783  0.5811  0.7156
  128OSM    C6S13685   5.198   5.601   6.976 -0.6742 -0.5752 -0.2296
  128OSM    H6S13686   5.148   5.503   6.986  1.1214 -1.4392  0.8216
  128OSM    H6T13687   5.128   5.687   6.980  1.1829  0.9943  0.6524
  128OSM    C7S13688   5.269   5.646   7.104 -0.3056  0.8307 -0.3340
  128OSM    H7S13689   5.321   5.745   7.097  1.2036  0.2782  1.7875
  128OSM    H7T13690   5.348   5.573   7.131 -0.0082  1.1892 -0.2237
  128OSM    C8S13691   5.164   5.663   7.222  0.2765 -0.7723 -0.2194
  128OSM    H8S13692   5.088   5.583   7.212 -1.0343  0.4427 -0.3367
  128OSM    H8T13693   5.105   5.751   7.188 -0.5253 -1.7532 -1.4279
  128OSM    C9S13694   5.220   5.665   7.360  0.1877  0.5511 -0.1437
  128OSM    H9S13695   5.127   5.690   7.416 -0.6785 -2.0773 -0.2738
  128OSM    H9T13696   5.289   5.751   7.374 -0.7240  0.9031  2.9664
  128OSM   C10S13697   5.292   5.535   7.410  0.5939 -0.4073 -0.7889
  128OSM   H10S13698   5.365   5.517   7.327  2.5958 -0.3926  0.8924
  128OSM   H10T13699   5.236   5.440   7.422  0.9443 -0.6049 -0.6942
  128OSM   C11S13700   5.381   5.554   7.532 -1.0630 -0.0819 -0.0431
  128OSM   H11S13701   5.422   5.657   7.529 -1.2905 -0.0102 -1.3381
  128OSM   H11T13702   5.469   5.487   7.544 -0.2121  0.8276 -1.0305
  128OSM   C12S13703   5.297   5.538   7.657  0.4054  0.1946  0.0432
  128OSM   H12S13704   5.259   5.434   7.673 -2.5847  1.2323  0.2972
  128OSM   H12T13705   5.205   5.600   7.650 -0.3463 -0.9085 -0.1484
  128OSM   C13S13706   5.377   5.576   7.788 -0.6099 -0.1864 -0.1672
  128OSM   H13S13707   5.410   5.678   7.760  1.5914 -0.5616  0.8673
  128OSM   H13T13708   5.465   5.509   7.796  0.0069  0.7887  1.9652
  128OSM   C14S13709   5.298   5.585   7.918 -0.1624  0.2451 -0.1253
  128OSM   H14S13710   5.216   5.511   7.909 -1.2226  1.5763 -2.2763
  128OSM   H14T13711   5.242   5.681   7.927 -0.0233  0.4884 -1.5862
  128OSM   C15S13712   5.386   5.558   8.040  0.1946 -0.2870 -0.2933
  128OSM   H15S13713   5.438   5.648   8.079 -0.0424 -1.0635  1.9976
  128OSM   H15T13714   5.457   5.479   8.005  0.4069 -1.9948  3.4662
  128OSM   C16S13715   5.301   5.492   8.155  0.1164 -0.0934  0.3064
  128OSM   H16S13716   5.242   5.413   8.104 -0.0594 -1.6384  2.7841
  128OSM   H16T13717   5.226   5.557   8.203 -0.3915  0.5908 -1.3445
  128OSM   C17S13718   5.375   5.411   8.265  0.2407 -0.1116 -0.0222
  128OSM   H17S13719   5.441   5.482   8.319 -0.1802  1.0291 -0.9641
  128OSM   H17T13720   5.437   5.328   8.224  1.1516 -0.4505  1.9599
  128OSM   C18S13721   5.278   5.339   8.362  0.0941  0.0121  0.5234
  128OSM   H18S13722   5.206   5.407   8.413  2.4514  1.7314  1.7107
  128OSM   H18T13723   5.338   5.296   8.445  0.4157 -0.1454  0.2126
  128OSM   H18U13724   5.222   5.263   8.303  1.0264  1.4652 -2.4066
  128OSM    C1F13725   5.520   5.989   6.646  0.2033  0.5360 -0.2921
  128OSM     OF13726   5.464   6.002   6.536  0.0091  0.1666  0.2389
  128OSM    C2F13727   5.575   6.101   6.722  0.1235  0.5103 -0.1537
  128OSM    H2F13728   5.659   6.144   6.663  0.8176  0.3754  0.7136
  128OSM    H2G13729   5.599   6.066   6.825 -0.8833 -1.8975 -0.6565
  128OSM    C3F13730   5.478   6.219   6.731 -0.0122  0.1852 -0.4623
  128OSM    H3F13731   5.452   6.243   6.626 -0.2941 -1.6734 -0.8566
  128OSM    H3G13732   5.519   6.309   6.781 -0.8491  0.4259 -0.1938
  128OSM    C4F13733   5.347   6.184   6.814  0.7104 -0.3750  0.1287
  128OSM    H4F13734   5.295   6.100   6.762  3.2143 -0.2862 -2.7800
  128OSM    H4G13735   5.280   6.273   6.810  1.9921  0.6463  0.7711
  128OSM    C5F13736   5.377   6.143   6.954  0.8169 -0.8235 -0.1281
  128OSM    H5F13737   5.451   6.220   6.986 -1.6699  0.9837  1.6893
  128OSM    H5G13738   5.411   6.038   6.940  0.8405 -0.5468 -2.5102
  128OSM    C6F13739   5.260   6.141   7.049  0.1788 -0.5336 -0.3895
  128OSM    H6F13740   5.176   6.095   6.992 -0.2795  0.4359 -0.5106
  128OSM    H6G13741   5.223   6.243   7.073  1.1087 -0.7910  2.5591
  128OSM    C7F13742   5.285   6.070   7.178  0.7986  0.2762 -0.5778
  128OSM    H7F13743   5.357   6.120   7.247 -2.3860  1.8344  1.8856
  128OSM    H7G13744   5.321   5.966   7.159 -1.2784 -0.5296 -0.4014
  128OSM    C8F13745   5.158   6.047   7.264  0.2133 -0.1687  0.3747
  128OSM    H8F13746   5.170   5.973   7.346 -1.6408 -3.3300 -1.9956
  128OSM    H8G13747   5.083   6.007   7.193  0.7596 -0.0953 -0.2618
  128OSM    C9F13748   5.104   6.175   7.318  0.3931 -0.5856  0.3688
  128OSM    H9F13749   5.140   6.261   7.259 -1.3240 -0.1728 -0.1389
  128OSM   C10F13750   5.037   6.193   7.430 -0.1745  0.0273  0.4378
  128OSM   H10F13751   5.020   6.296   7.464  1.7586 -0.3225  2.7779
  128OSM   C11F13752   5.004   6.079   7.523  0.4934 -0.9611  0.1233
  128OSM   H11F13753   5.038   5.980   7.488  2.9508  0.0103 -0.4783
  128OSM   H11G13754   4.895   6.067   7.540  0.2190  0.3181 -0.5975
  128OSM   C12F13755   5.063   6.092   7.664 -0.1961  0.0410 -0.6612
  128OSM   H12F13756   5.028   6.011   7.731  1.0204 -0.8007 -1.0209
  128OSM   H12G13757   5.035   6.191   7.705  1.7663  0.7546 -0.9135
  128OSM   C13F13758   5.221   6.090   7.677  0.0252  0.5304 -0.5323
  128OSM   H13F13759   5.259   6.193   7.665  0.3985  0.7641  2.1751
  128OSM   H13G13760   5.259   6.022   7.597 -0.3169  0.5689 -0.7273
  128OSM   C14F13761   5.278   6.033   7.808  0.3562 -0.6892 -0.3660
  128OSM   H14F13762   5.386   6.018   7.787  0.8361  1.1882  0.5091
  128OSM   H14G13763   5.252   5.926   7.821  0.0223 -0.9977 -3.0099
  128OSM   C15F13764   5.262   6.110   7.940  0.1203  0.4307  0.1760
  128OSM   H15F13765   5.151   6.108   7.945  0.0522  0.0706 -1.1536
  128OSM   H15G13766   5.300   6.210   7.913  0.5827 -0.5165 -3.0083
  128OSM   C16F13767   5.323   6.056   8.069  0.3655 -0.5097  0.5744
  128OSM   H16F13768   5.405   6.124   8.099 -0.6788  0.4138  1.4300
  128OSM   H16G13769   5.362   5.952   8.063 -0.2230 -0.7330  0.5632
  128OSM   C17F13770   5.215   6.034   8.184  0.9497 -0.1992 -0.3350
  128OSM   H17F13771   5.144   5.959   8.142  1.9329 -0.2945 -1.8985
  128OSM   H17G13772   5.156   6.128   8.186 -0.8737 -1.2982  0.7650
  128OSM   C18F13773   5.269   5.987   8.319 -0.1101  0.1112  0.4530
  128OSM   H18F13774   5.315   5.891   8.285 -0.6455 -0.0456  0.1730
  128OSM   H18G13775   5.197   5.953   8.397 -0.2141 -0.4647  0.1104
  128OSM   H18H13776   5.327   6.070   8.365  0.1718 -0.0478  0.3855
  129OSM      N13777   5.023   6.447   5.962 -0.0886 -0.2525  0.2266
  129OSM    C1513778   4.872   6.447   5.964 -0.0543 -0.1662 -0.0648
  129OSM   H15A13779   4.832   6.353   5.998  1.4815 -0.8353 -0.0291
  129OSM   H15B13780   4.833   6.469   5.866 -2.0840 -0.8512  0.5500
  129OSM   H15C13781   4.829   6.523   6.028  0.3463  0.3332 -0.3745
  129OSM    C1413782   5.063   6.324   5.885 -0.0163 -0.5619  0.4055
  129OSM   H14A13783   5.020   6.235   5.929 -4.3199 -0.0678 -2.2465
  129OSM   H14B13784   5.171   6.319   5.891 -0.0266  0.4685  2.0122
  129OSM   H14C13785   5.031   6.344   5.784  1.0245  1.0143  0.3617
  129OSM    C1313786   5.078   6.566   5.893  0.7013 -0.3989 -0.7303
  129OSM   H13A13787   5.185   6.560   5.907  0.6574 -0.9236 -0.6038
  129OSM   H13B13788   5.044   6.655   5.943 -1.6180 -1.4254 -0.3374
  129OSM   H13C13789   5.053   6.567   5.788  0.1610 -1.2019 -0.6206
  129OSM    C1213790   5.063   6.442   6.110  0.0493  0.1061  0.3394
  129OSM   H12A13791   5.028   6.352   6.158  1.5046  0.4037  2.0293
  129OSM   H12B13792   5.017   6.531   6.150  1.3571  1.0964 -0.2838
  129OSM    C1113793   5.219   6.430   6.135 -0.0020 -0.2500 -0.4288
  129OSM   H11A13794   5.246   6.333   6.088 -2.1173 -0.4683 -1.3205
  129OSM   H11B13795   5.242   6.424   6.244  1.7361 -0.9395 -0.7990
  129OSM      P13796   5.325   6.679   6.148  0.4541  0.1421 -0.0990
  129OSM    O1313797   5.461   6.723   6.124 -0.1293 -0.4468  0.3375
  129OSM    O1413798   5.221   6.777   6.106  0.0750 -0.8590  0.0168
  129OSM    O1113799   5.302   6.644   6.300  0.7386 -0.9109 -0.4093
  129OSM    O1213800   5.302   6.536   6.081  0.1895  0.2014  1.1504
  129OSM    C1S13801   5.270   6.756   6.400  0.6170  0.1383 -0.3796
  129OSM    H1S13802   5.178   6.808   6.365  0.5125 -0.1143 -0.4877
  129OSM    H1T13803   5.353   6.829   6.414  1.8775 -0.8549 -2.2026
  129OSM     NF13804   5.157   6.781   6.625  0.5661  0.0363 -0.1442
  129OSM    HNF13805   5.212   6.845   6.677 -0.2501 -0.4136  1.3117
  129OSM    C2S13806   5.235   6.695   6.539 -0.1787  0.4187 -0.2235
  129OSM    H2S13807   5.172   6.604   6.531 -0.1168  0.0623  2.5590
  129OSM    C3S13808   5.370   6.641   6.604 -0.1615  0.0530  0.1232
  129OSM    H3S13809   5.420   6.739   6.623 -2.1484  0.7839  2.0270
  129OSM     O313810   5.453   6.570   6.513 -0.7672 -0.1090  0.5962
  129OSM    HO313811   5.419   6.586   6.425 -3.1447 -0.0954  1.4522
  129OSM    C4S13812   5.345   6.570   6.730  0.1948 -0.2358  0.5254
  129OSM    H4S13813   5.258   6.503   6.725  0.4322 -0.4351 -1.4721
  129OSM    C5S13814   5.425   6.584   6.842  0.3432 -0.8779  0.5572
  129OSM    H5S13815   5.511   6.652   6.838  0.6074 -1.2563 -0.7436
  129OSM    C6S13816   5.397   6.517   6.975  0.0731  0.0791  0.4075
  129OSM    H6S13817   5.489   6.470   7.016  0.5894  1.1925  0.5750
  129OSM    H6T13818   5.310   6.449   6.970  0.9984 -1.0924 -2.8123
  129OSM    C7S13819   5.373   6.626   7.081  0.1334  0.2533 -0.5416
  129OSM    H7S13820   5.266   6.655   7.079 -0.4004 -1.2847  1.8655
  129OSM    H7T13821   5.444   6.709   7.061 -1.1732  1.6848  0.4830
  129OSM    C8S13822   5.414   6.574   7.217  0.4331  1.0590 -0.8677
  129OSM    H8S13823   5.517   6.533   7.217 -0.2159 -0.6825 -0.1203
  129OSM    H8T13824   5.351   6.483   7.228  0.6358  1.0870  0.7540
  129OSM    C9S13825   5.401   6.667   7.339 -0.3841  1.2535  0.8295
  129OSM    H9S13826   5.305   6.723   7.342  0.3982  2.6182  1.5349
  129OSM    H9T13827   5.481   6.744   7.344 -0.6986  1.5515  1.3134
  129OSM   C10S13828   5.403   6.589   7.469 -0.2413 -0.1199 -0.3088
  129OSM   H10S13829   5.436   6.661   7.547 -0.8891 -1.1195  0.9263
  129OSM   H10T13830   5.489   6.519   7.481 -0.4051 -0.2367  0.2236
  129OSM   C11S13831   5.278   6.517   7.510  0.4160 -1.1105  0.9491
  129OSM   H11S13832   5.276   6.426   7.447 -0.2062  0.3294 -1.2309
  129OSM   H11T13833   5.192   6.578   7.474  1.3480 -0.8779 -1.0314
  129OSM   C12S13834   5.269   6.483   7.660 -0.0169  0.1380 -0.5379
  129OSM   H12S13835   5.376   6.478   7.688 -0.1785 -2.8907 -0.1599
  129OSM   H12T13836   5.217   6.390   7.690  0.4962  0.3126  0.9525
  129OSM   C13S13837   5.214   6.607   7.732  0.3170  0.0101 -0.1528
  129OSM   H13S13838   5.111   6.625   7.697  0.0519  1.8625  1.4099
  129OSM   H13T13839   5.272   6.695   7.695 -2.1856  1.5187 -0.7489
  129OSM   C14S13840   5.214   6.599   7.885 -1.4876 -0.1200 -0.2264
  129OSM   H14S13841   5.144   6.518   7.915  0.9125 -2.7879 -1.3983
  129OSM   H14T13842   5.172   6.692   7.929 -2.1398 -0.4771 -0.0772
  129OSM   C15S13843   5.364   6.592   7.934  0.1292  0.5415  0.2908
  129OSM   H15S13844   5.420   6.679   7.894  0.9612 -0.8598 -1.7289
  129OSM   H15T13845   5.406   6.501   7.887 -0.9320 -0.0817  0.5132
  129OSM   C16S13846   5.365   6.584   8.087 -0.6653  0.4266 -0.8760
  129OSM   H16S13847   5.295   6.663   8.119 -0.0456  1.6995 -2.5169
  129OSM   H16T13848   5.460   6.610   8.139 -0.1489 -2.0868 -0.4000
  129OSM   C17S13849   5.320   6.438   8.129  0.5364 -0.0768  0.1213
  129OSM   H17S13850   5.393   6.374   8.076  0.5233  0.4770 -0.5816
  129OSM   H17T13851   5.219   6.419   8.087 -0.0406  2.2943  0.2486
  129OSM   C18S13852   5.318   6.409   8.280  0.3851  0.0764  0.3062
  129OSM   H18S13853   5.307   6.298   8.284  1.8421 -0.2266 -2.0959
  129OSM   H18T13854   5.235   6.463   8.330 -0.6636 -2.5167  1.5310
  129OSM   H18U13855   5.419   6.441   8.316  1.2787  1.8500 -3.2867
  129OSM    C1F13856   5.033   6.805   6.591 -0.3895 -0.0181  0.2954
  129OSM     OF13857   4.986   6.749   6.495  0.3007 -0.5782 -0.4880
  129OSM    C2F13858   4.965   6.914   6.657  0.3236  0.1967 -0.0320
  129OSM    H2F13859   4.960   7.001   6.587  2.9881 -0.5514 -1.3027
  129OSM    H2G13860   5.011   6.953   6.750  0.0805  2.9461 -0.9733
  129OSM    C3F13861   4.821   6.866   6.696  0.0274  0.3264  0.2942
  129OSM    H3F13862   4.818   6.768   6.748 -0.9926  0.4090  0.4071
  129OSM    H3G13863   4.771   6.839   6.600  0.7991  0.3049 -0.1140
  129OSM    C4F13864   4.737   6.964   6.771  0.2552 -0.3704 -0.1071
  129OSM    H4F13865   4.634   6.929   6.748 -1.4061  3.3406  0.9459
  129OSM    H4G13866   4.743   7.065   6.727 -2.3996  0.4986  1.3022
  129OSM    C5F13867   4.758   6.976   6.925  0.1849  0.4207  0.0121
  129OSM    H5F13868   4.845   7.045   6.933  0.9723 -0.5328 -0.0652
  129OSM    H5G13869   4.786   6.882   6.978 -0.5239 -0.8528 -1.7596
  129OSM    C6F13870   4.631   7.031   6.987 -0.4014 -0.1148 -0.0292
  129OSM    H6F13871   4.557   6.949   6.997  1.3573 -1.7469  0.4350
  129OSM    H6G13872   4.589   7.111   6.922 -0.9417 -0.5121 -0.1770
  129OSM    C7F13873   4.657   7.093   7.122 -0.3163 -0.1424 -0.4161
  129OSM    H7F13874   4.577   7.169   7.136  0.7970  0.9174  0.3719
  129OSM    H7G13875   4.753   7.149   7.130 -2.0998  2.9160  2.1820
  129OSM    C8F13876   4.654   7.000   7.244 -0.3887 -0.5713  0.6255
  129OSM    H8F13877   4.674   7.066   7.330 -2.0068  0.3490  0.3245
  129OSM    H8G13878   4.742   6.934   7.225 -2.0138 -2.6114 -0.2796
  129OSM    C9F13879   4.529   6.927   7.259  0.4093 -0.3865 -0.1440
  129OSM    H9F13880   4.524   6.831   7.205  0.2391  0.0625 -0.9545
  129OSM   C10F13881   4.415   6.969   7.322  0.9983 -0.2324 -0.2448
  129OSM   H10F13882   4.334   6.895   7.334  0.0891  0.6927 -0.5850
  129OSM   C11F13883   4.402   7.092   7.399 -0.0960 -1.3007 -0.7149
  129OSM   H11F13884   4.293   7.114   7.397  0.2335  0.6482  0.2166
  129OSM   H11G13885   4.461   7.175   7.355 -0.2298 -1.5382 -1.3539
  129OSM   C12F13886   4.444   7.084   7.547  0.4187 -0.7510  0.6435
  129OSM   H12F13887   4.384   6.998   7.582  1.5143 -0.9093  2.2325
  129OSM   H12G13888   4.402   7.174   7.596 -0.2077 -0.8071  0.2148
  129OSM   C13F13889   4.589   7.053   7.587  0.7776 -0.9804 -0.1271
  129OSM   H13F13890   4.651   7.127   7.531 -0.3308  0.2164  0.1856
  129OSM   H13G13891   4.632   6.958   7.549  1.9205 -0.6094  0.2007
  129OSM   C14F13892   4.620   7.081   7.739  0.8483 -0.4601 -0.0638
  129OSM   H14F13893   4.539   7.035   7.799  2.8980 -1.2702  2.2538
  129OSM   H14G13894   4.630   7.191   7.753 -3.6544  0.0696  0.5918
  129OSM   C15F13895   4.762   7.034   7.786 -0.0311  0.2767 -0.1291
  129OSM   H15F13896   4.847   7.051   7.716  2.2974  1.1409  2.7377
  129OSM   H15G13897   4.749   6.924   7.786 -1.8474  0.3754  3.2464
  129OSM   C16F13898   4.788   7.071   7.930  0.8560 -0.5168 -0.3188
  129OSM   H16F13899   4.727   7.020   8.007 -0.3845 -0.3020 -1.1315
  129OSM   H16G13900   4.755   7.176   7.941  1.1670 -0.4780  0.2919
  129OSM   C17F13901   4.936   7.062   7.964  0.0476 -0.4407 -0.0930
  129OSM   H17F13902   4.979   7.162   7.940 -0.7935 -0.4456 -1.7350
  129OSM   H17G13903   4.977   6.992   7.889  1.6944  0.0220  0.3302
  129OSM   C18F13904   4.961   7.012   8.108 -0.3536 -0.5096 -0.4325
  129OSM   H18F13905   5.069   7.018   8.133 -0.6587 -0.4754  0.9806
  129OSM   H18G13906   4.924   6.911   8.138 -1.6984 -0.8545 -2.9751
  129OSM   H18H13907   4.916   7.083   8.180  0.3734 -0.0557 -0.4149
  130OSM      N13908   4.618   5.104   6.141  0.1839 -0.0757  0.4541
  130OSM    C1513909   4.629   5.226   6.227 -0.6482  0.3089 -0.4995
  130OSM   H15A13910   4.646   5.315   6.169  0.5909 -1.1324 -2.4754
  130OSM   H15B13911   4.716   5.222   6.291 -1.1254 -1.6181  0.1044
  130OSM   H15C13912   4.542   5.237   6.290 -0.9615  0.4210 -0.9446
  130OSM    C1413913   4.525   5.130   6.027  0.3090 -0.5336  0.4186
  130OSM   H14A13914   4.493   5.038   5.981 -1.3492 -0.6873  1.7759
  130OSM   H14B13915   4.563   5.193   5.947 -0.4930 -0.6939 -0.0996
  130OSM   H14C13916   4.444   5.190   6.066  1.1935  0.9100  0.1423
  130OSM    C1313917   4.750   5.053   6.093 -0.2268  0.9499 -0.4268
  130OSM   H13A13918   4.798   5.126   6.029  3.4225  0.8004  1.8586
  130OSM   H13B13919   4.742   4.956   6.045  2.7876  0.9710 -1.1709
  130OSM   H13C13920   4.818   5.034   6.174 -0.2680 -2.4953 -1.0676
  130OSM    C1213921   4.547   4.990   6.218 -0.1177  0.4016 -0.6699
  130OSM   H12A13922   4.524   4.903   6.157 -2.1259 -2.9813  4.2635
  130OSM   H12B13923   4.453   5.031   6.252 -1.0032 -2.7941  1.1682
  130OSM    C1113924   4.615   4.931   6.346 -0.3997 -0.4479  0.4332
  130OSM   H11A13925   4.548   4.853   6.389  0.1642 -1.1480  0.0447
  130OSM   H11B13926   4.608   5.013   6.421  2.7735  0.2808  0.0573
  130OSM      P13927   4.768   4.740   6.281 -0.4499 -0.0818 -0.3001
  130OSM    O1313928   4.707   4.731   6.147  0.1868 -0.5310 -0.3089
  130OSM    O1413929   4.912   4.710   6.288  0.2727  0.0418 -0.1154
  130OSM    O1113930   4.688   4.654   6.387  0.1216 -0.5144 -0.2916
  130OSM    O1213931   4.755   4.896   6.330 -0.3253 -0.0186 -0.0908
  130OSM    C1S13932   4.757   4.602   6.505  0.1515 -0.4436 -0.2085
  130OSM    H1S13933   4.867   4.616   6.508  0.2780 -1.0387 -1.4530
  130OSM    H1T13934   4.747   4.492   6.515  1.9291 -0.7395 -1.2522
  130OSM     NF13935   4.770   4.667   6.754  0.7279 -0.1324  0.2766
  130OSM    HNF13936   4.734   4.606   6.825 -2.5705  0.3702 -0.7611
  130OSM    C2S13937   4.687   4.675   6.629 -0.1032 -0.7399 -0.1453
  130OSM    H2S13938   4.688   4.780   6.595 -0.8302 -1.7690 -3.8030
  130OSM    C3S13939   4.537   4.643   6.650 -0.1055 -0.3436  0.6675
  130OSM    H3S13940   4.519   4.538   6.683  1.5019 -0.4522  1.2744
  130OSM     O313941   4.456   4.646   6.529 -0.4497  0.4711  0.4959
  130OSM    HO313942   4.528   4.665   6.469  1.4930  0.0779  2.5649
  130OSM    C4S13943   4.469   4.733   6.754  0.1817 -0.3777 -0.9568
  130OSM    H4S13944   4.464   4.838   6.722  2.1992 -0.4456 -1.6773
  130OSM    C5S13945   4.406   4.700   6.870  0.1533 -0.3165  0.2580
  130OSM    H5S13946   4.391   4.598   6.908 -3.7052  0.2113  0.5783
  130OSM    C6S13947   4.330   4.801   6.951  0.3143 -0.3355  0.1585
  130OSM    H6S13948   4.221   4.781   6.946  0.1032  0.8577 -0.2022
  130OSM    H6T13949   4.346   4.903   6.911  0.1699 -0.9221 -1.5151
  130OSM    C7S13950   4.364   4.806   7.100  0.7005 -0.5020 -0.4915
  130OSM    H7S13951   4.334   4.715   7.157 -1.5692  0.0285 -0.7554
  130OSM    H7T13952   4.300   4.890   7.132  0.5367 -0.3200 -1.2876
  130OSM    C8S13953   4.512   4.840   7.130  0.2218  0.7312  0.8421
  130OSM    H8S13954   4.539   4.927   7.067  2.2765 -0.4738 -0.0340
  130OSM    H8T13955   4.573   4.750   7.107  1.2189  1.1712  1.6524
  130OSM    C9S13956   4.543   4.863   7.277  0.3714 -0.0066 -0.3699
  130OSM    H9S13957   4.518   4.777   7.343 -2.6782  2.8398  2.5383
  130OSM    H9T13958   4.489   4.952   7.315  2.2500  0.9684  0.1808
  130OSM   C10S13959   4.690   4.895   7.302 -0.3822 -0.5468 -0.0041
  130OSM   H10S13960   4.727   4.963   7.223 -0.4433 -0.3140  0.1661
  130OSM   H10T13961   4.754   4.804   7.297 -2.4466 -2.0290 -0.6052
  130OSM   C11S13962   4.709   4.956   7.443  0.1978  0.0390 -0.1862
  130OSM   H11S13963   4.661   4.903   7.528 -0.9296  0.8771 -0.2816
  130OSM   H11T13964   4.664   5.057   7.439 -1.8725 -0.7961  0.5418
  130OSM   C12S13965   4.853   4.978   7.485 -0.4709 -0.4585 -0.2345
  130OSM   H12S13966   4.912   5.024   7.403 -0.5497 -0.5925 -0.3648
  130OSM   H12T13967   4.893   4.885   7.531 -1.2305 -0.7430 -0.1438
  130OSM   C13S13968   4.878   5.093   7.596 -0.1536  0.0577 -1.0885
  130OSM   H13S13969   4.795   5.076   7.667 -0.9985  2.1194 -1.5038
  130OSM   H13T13970   4.864   5.194   7.551 -0.2961  0.4411 -0.2040
  130OSM   C14S13971   5.021   5.090   7.662  0.6844  0.2263 -0.5702
  130OSM   H14S13972   5.082   5.106   7.571 -0.1392 -1.9374 -1.5815
  130OSM   H14T13973   5.038   4.984   7.691  0.0278  0.2855  0.0615
  130OSM   C15S13974   5.038   5.197   7.773 -0.3099 -0.0832  0.1276
  130OSM   H15S13975   5.032   5.302   7.739 -0.3887 -0.4977 -1.1788
  130OSM   H15T13976   5.146   5.189   7.799  0.1077  0.2073 -1.4573
  130OSM   C16S13977   4.964   5.170   7.909  0.5362 -0.5070  0.2927
  130OSM   H16S13978   4.973   5.063   7.939  1.6420 -0.4973  0.0553
  130OSM   H16T13979   4.858   5.200   7.895  0.9529  0.2593 -1.5090
  130OSM   C17S13980   5.017   5.258   8.022 -0.0634  0.2626  0.2863
  130OSM   H17S13981   5.033   5.366   8.002  0.1410 -0.1838 -2.3479
  130OSM   H17T13982   5.115   5.222   8.061  0.8102 -0.8407 -2.6292
  130OSM   C18S13983   4.913   5.259   8.129 -0.0031  0.5344  1.1814
  130OSM   H18S13984   4.900   5.155   8.169  1.5837  0.0288  0.4762
  130OSM   H18T13985   4.822   5.307   8.088 -1.7870 -1.2752  2.7768
  130OSM   H18U13986   4.956   5.320   8.212  2.4577  0.0567  0.3340
  130OSM    C1F13987   4.890   4.729   6.761  0.4389 -0.6873 -0.0224
  130OSM     OF13988   4.942   4.785   6.662  0.0411 -0.0740 -0.2749
  130OSM    C2F13989   4.947   4.725   6.897  0.3279  0.1989 -0.0094
  130OSM    H2F13990   4.899   4.641   6.950  0.5063 -0.4534 -0.8582
  130OSM    H2G13991   4.911   4.814   6.953 -0.7093 -1.8302  2.6995
  130OSM    C3F13992   5.102   4.720   6.897  0.6117  0.4592  0.8889
  130OSM    H3F13993   5.128   4.817   6.849 -0.1314  0.1290 -0.2516
  130OSM    H3G13994   5.141   4.636   6.835  0.4006  0.9452  0.0716
  130OSM    C4F13995   5.153   4.720   7.042 -0.8292 -0.3700  0.0786
  130OSM    H4F13996   5.127   4.813   7.099 -2.4186 -0.9763  0.3961
  130OSM    H4G13997   5.261   4.717   7.020 -0.3200  1.2782  1.9886
  130OSM    C5F13998   5.116   4.600   7.130 -0.3611  0.2961  0.5178
  130OSM    H5F13999   5.154   4.508   7.081  3.3208  1.7728  0.3303
  130OSM    H5G14000   5.005   4.591   7.124 -0.1235 -3.8382 -1.6899
  130OSM    C6F14001   5.163   4.615   7.275 -0.5711  0.2009  0.2396
  130OSM    H6F14002   5.094   4.685   7.328  2.5248  2.1592  1.9672
  130OSM    H6G14003   5.263   4.660   7.289 -1.2344  1.2063  2.2208
  130OSM    C7F14004   5.151   4.470   7.339  0.0480  0.4408 -0.0047
  130OSM    H7F14005   5.249   4.428   7.309  0.2937  0.4014  0.8451
  130OSM    H7G14006   5.078   4.409   7.282 -1.0937  0.9046  0.9252
  130OSM    C8F14007   5.122   4.461   7.491  0.9671  0.1778 -0.0603
  130OSM    H8F14008   5.212   4.516   7.527  0.5251  0.6871  0.2796
  130OSM    H8G14009   5.122   4.356   7.527 -2.6170  0.6083  1.6274
  130OSM    C9F14010   4.998   4.531   7.532 -0.5163  0.2494  0.1285
  130OSM    H9F14011   5.012   4.639   7.517 -1.0106  0.2195 -0.5749
  130OSM   C10F14012   4.872   4.498   7.563  0.5134  0.5314 -0.1462
  130OSM   H10F14013   4.799   4.574   7.594 -1.8473 -2.3607  2.0940
  130OSM   C11F14014   4.810   4.358   7.567  0.2255 -0.2437  0.1451
  130OSM   H11F14015   4.777   4.341   7.672 -2.1546  3.3531  0.1365
  130OSM   H11G14016   4.882   4.278   7.538 -1.0305 -1.4119  0.1626
  130OSM   C12F14017   4.689   4.334   7.470 -0.8345 -0.1772  0.6348
  130OSM   H12F14018   4.599   4.396   7.491 -0.5034  1.1634 -1.5442
  130OSM   H12G14019   4.650   4.235   7.503  2.4405 -1.6083  0.5286
  130OSM   C13F14020   4.720   4.305   7.325  0.3547 -0.2367 -0.0350
  130OSM   H13F14021   4.640   4.238   7.287  0.3944 -0.5299  0.3938
  130OSM   H13G14022   4.809   4.240   7.317  0.4214 -0.5712  2.5174
  130OSM   C14F14023   4.715   4.433   7.239  0.0440 -0.1053 -0.4414
  130OSM   H14F14024   4.794   4.500   7.277 -0.0909 -0.5033  0.5835
  130OSM   H14G14025   4.621   4.492   7.229 -0.6617 -1.3102 -1.2125
  130OSM   C15F14026   4.756   4.404   7.093  0.5285 -0.2338 -0.5900
  130OSM   H15F14027   4.855   4.353   7.101  0.7424  0.4354  1.8696
  130OSM   H15G14028   4.768   4.509   7.058 -0.9905  0.5943  1.2091
  130OSM   C16F14029   4.637   4.342   7.015  0.5099  0.5479  0.5261
  130OSM   H16F14030   4.545   4.403   6.998 -1.9909 -3.3513 -1.2454
  130OSM   H16G14031   4.597   4.256   7.072 -0.0764  0.9781  0.7739
  130OSM   C17F14032   4.659   4.285   6.867  0.5388  0.0983 -0.6808
  130OSM   H17F14033   4.719   4.192   6.877  0.0481 -0.1470  0.1277
  130OSM   H17G14034   4.726   4.344   6.802  1.3358  0.2287  0.2328
  130OSM   C18F14035   4.523   4.259   6.797  0.3531 -0.1183 -0.4364
  130OSM   H18F14036   4.458   4.209   6.871 -0.8852 -0.2705 -1.6036
  130OSM   H18G14037   4.544   4.201   6.704 -0.1531  0.7388 -1.1010
  130OSM   H18H14038   4.469   4.356   6.785  0.1219 -0.0794  0.7671
  131OSM      N14039   6.663   2.986   6.296  0.3397 -0.0091  0.3702
  131OSM    C1514040   6.728   3.119   6.264  0.8386  0.0203 -0.2172
  131OSM   H15A14041   6.781   3.127   6.170  0.9095 -0.6179 -0.2387
  131OSM   H15B14042   6.798   3.141   6.342  0.5864  0.3452 -0.0829
  131OSM   H15C14043   6.652   3.195   6.261  0.4973 -0.3510 -1.9400
  131OSM    C1414044   6.767   2.884   6.328  0.7135  0.7586 -0.1346
  131OSM   H14A14045   6.794   2.871   6.432  1.6252 -0.9221 -0.5428
  131OSM   H14B14046   6.855   2.888   6.265  0.2101 -1.3234 -1.0590
  131OSM   H14C14047   6.732   2.786   6.298 -0.1845  0.7596  0.8409
  131OSM    C1314048   6.573   2.996   6.415 -0.4462  0.8403 -0.6609
  131OSM   H13A14049   6.538   2.895   6.433  1.2514  0.2921 -0.2121
  131OSM   H13B14050   6.487   3.056   6.392  1.1556  3.7955  0.5021
  131OSM   H13C14051   6.623   3.038   6.501 -0.5622 -0.1975 -0.0638
  131OSM    C1214052   6.581   2.944   6.170 -0.2861 -0.3471 -0.2786
  131OSM   H12A14053   6.514   3.022   6.137  1.2461  1.1831  0.0996
  131OSM   H12B14054   6.511   2.872   6.210 -3.3790  1.8256 -1.3780
  131OSM    C1114055   6.650   2.877   6.047  0.3832  0.3938 -0.3069
  131OSM   H11A14056   6.740   2.934   6.017  1.2454 -1.2420 -0.9903
  131OSM   H11B14057   6.584   2.880   5.957 -1.0433  1.4485  0.7380
  131OSM      P14058   6.629   2.614   5.990 -0.0117  0.0488 -0.0310
  131OSM    O1314059   6.510   2.662   5.914  0.4230  0.1941 -0.6884
  131OSM    O1414060   6.737   2.555   5.915 -0.2720 -0.3100 -0.0508
  131OSM    O1114061   6.591   2.521   6.111  0.0854  0.5144  0.2962
  131OSM    O1214062   6.687   2.734   6.076 -0.0832 -0.1151  0.2357
  131OSM    C1S14063   6.486   2.568   6.199  0.2779 -0.3550 -0.0174
  131OSM    H1S14064   6.391   2.571   6.141  1.9677  2.0975 -2.9703
  131OSM    H1T14065   6.504   2.674   6.227 -0.0152 -0.2933 -0.0581
  131OSM     NF14066   6.389   2.547   6.430 -0.0683 -0.1003 -0.1171
  131OSM    HNF14067   6.426   2.630   6.471 -2.3088  0.0137  1.8882
  131OSM    C2S14068   6.486   2.490   6.336  0.5768  0.3258  0.7025
  131OSM    H2S14069   6.453   2.385   6.320  1.5228  0.0702  0.3905
  131OSM    C3S14070   6.633   2.490   6.389  0.2387  0.0982 -0.1145
  131OSM    H3S14071   6.667   2.596   6.396  1.2468 -0.1990 -0.3714
  131OSM     O314072   6.720   2.415   6.302 -0.1465  0.5955 -0.3521
  131OSM    HO314073   6.664   2.406   6.224  2.4609  1.6835 -2.4962
  131OSM    C4S14074   6.644   2.430   6.524  0.8228 -0.3135  0.1015
  131OSM    H4S14075   6.553   2.380   6.560  0.7929 -0.7864 -0.6056
  131OSM    C5S14076   6.751   2.446   6.609  0.1591  0.7815  0.6018
  131OSM    H5S14077   6.838   2.499   6.567  0.5307  1.4652  2.1799
  131OSM    C6S14078   6.760   2.387   6.754 -0.3855  0.3899  0.1847
  131OSM    H6S14079   6.803   2.464   6.822  0.3290  0.3268 -0.1864
  131OSM    H6T14080   6.827   2.298   6.752  0.5144  1.0344  0.7178
  131OSM    C7S14081   6.622   2.342   6.818 -0.2244  0.7746  0.2792
  131OSM    H7S14082   6.596   2.245   6.771 -3.5420  0.7966  1.7892
  131OSM    H7T14083   6.544   2.418   6.793 -0.1943  1.6620  2.6009
  131OSM    C8S14084   6.632   2.339   6.977  0.4348 -0.1396 -0.2776
  131OSM    H8S14085   6.681   2.433   7.009  0.2487 -0.8605  2.3680
  131OSM    H8T14086   6.683   2.246   7.010 -0.6044 -1.4437 -2.1470
  131OSM    C9S14087   6.501   2.343   7.051 -0.8543 -0.9484 -0.6940
  131OSM    H9S14088   6.470   2.237   7.040  0.9196 -1.3825 -1.8925
  131OSM    H9T14089   6.431   2.417   7.005  1.6445 -0.0140 -3.2793
  131OSM   C10S14090   6.513   2.382   7.203 -0.3980  0.3589  1.0226
  131OSM   H10S14091   6.420   2.359   7.259 -1.3276  1.0793 -0.1692
  131OSM   H10T14092   6.543   2.488   7.190 -1.0372  0.2041 -3.0123
  131OSM   C11S14093   6.634   2.311   7.258 -0.0743  0.4760  0.3925
  131OSM   H11S14094   6.730   2.352   7.218 -0.4371  0.9924  0.0368
  131OSM   H11T14095   6.638   2.200   7.252 -0.6814  0.5306 -1.6034
  131OSM   C12S14096   6.650   2.341   7.411  0.2630 -0.3985 -0.9275
  131OSM   H12S14097   6.735   2.287   7.457  0.0096 -0.3413 -0.3930
  131OSM   H12T14098   6.559   2.302   7.461 -0.7160  2.3966 -0.3399
  131OSM   C13S14099   6.640   2.491   7.450  0.2619  0.2360 -0.0682
  131OSM   H13S14100   6.669   2.496   7.557  1.5445 -1.0467 -0.3220
  131OSM   H13T14101   6.536   2.530   7.446  0.4242  0.7712  0.7524
  131OSM   C14S14102   6.731   2.587   7.372  0.2810  0.3745 -0.1645
  131OSM   H14S14103   6.716   2.692   7.404 -0.8493 -0.0177  0.6395
  131OSM   H14T14104   6.709   2.594   7.263  2.6988 -0.9523 -0.8112
  131OSM   C15S14105   6.876   2.547   7.383 -0.1129 -0.0891  0.2019
  131OSM   H15S14106   6.895   2.460   7.317  2.9947  0.2321  0.5151
  131OSM   H15T14107   6.896   2.514   7.488  1.9768 -1.5531 -0.5968
  131OSM   C16S14108   6.971   2.659   7.351  0.3203 -0.9366  0.9715
  131OSM   H16S14109   7.077   2.623   7.353  1.2318  1.5591  0.4925
  131OSM   H16T14110   6.972   2.741   7.426  0.6956 -0.6710  0.6811
  131OSM   C17S14111   6.942   2.737   7.217  0.5265 -0.3187  0.7281
  131OSM   H17S14112   6.831   2.742   7.211  0.3840 -0.6402  2.5283
  131OSM   H17T14113   6.972   2.680   7.127  0.9282  1.4255 -0.2755
  131OSM   C18S14114   7.019   2.872   7.202 -0.0661 -0.0385  0.5594
  131OSM   H18S14115   7.127   2.853   7.221 -0.1222  0.0054  0.9309
  131OSM   H18T14116   6.977   2.953   7.266  1.4145  1.4265 -0.2478
  131OSM   H18U14117   7.014   2.905   7.096  0.9063  1.5727  0.9831
  131OSM    C1F14118   6.260   2.518   6.420  0.0282 -0.2571  0.4523
  131OSM     OF14119   6.227   2.430   6.342  0.2260  0.0480 -0.0601
  131OSM    C2F14120   6.170   2.601   6.514 -0.5110 -0.0214 -0.4754
  131OSM    H2F14121   6.084   2.637   6.454 -0.1647  0.3363 -0.7575
  131OSM    H2G14122   6.218   2.685   6.567 -1.2687 -2.4827  4.7461
  131OSM    C3F14123   6.109   2.514   6.632  0.3546 -0.7353 -0.4593
  131OSM    H3F14124   6.039   2.439   6.589 -3.5807  2.3595 -0.0122
  131OSM    H3G14125   6.030   2.569   6.688 -0.5347 -0.9889 -1.4352
  131OSM    C4F14126   6.206   2.446   6.732  0.0895 -0.7716 -0.0690
  131OSM    H4F14127   6.245   2.520   6.805  0.8031 -1.7295  0.5430
  131OSM    H4G14128   6.296   2.405   6.682  1.1436  1.6820 -0.3500
  131OSM    C5F14129   6.132   2.339   6.813 -0.1643 -1.2291 -0.9267
  131OSM    H5F14130   6.192   2.271   6.878 -0.9216  2.1463  3.7677
  131OSM    H5G14131   6.081   2.280   6.733 -0.3398  0.1922 -1.8994
  131OSM    C6F14132   6.023   2.389   6.905 -0.0689  0.2961 -0.0891
  131OSM    H6F14133   5.980   2.306   6.964  1.6704 -0.6683 -0.1287
  131OSM    H6G14134   5.940   2.423   6.839  0.5655  1.4583 -0.3199
  131OSM    C7F14135   6.073   2.500   6.994  0.0921 -0.3329  0.3950
  131OSM    H7F14136   5.983   2.542   7.044 -2.0875 -1.1397 -2.5576
  131OSM    H7G14137   6.126   2.584   6.945  1.0270 -0.7171  0.7148
  131OSM    C8F14138   6.157   2.451   7.118  0.3295 -0.8070 -0.4085
  131OSM    H8F14139   6.187   2.537   7.182 -0.3314 -0.0928 -1.0427
  131OSM    H8G14140   6.254   2.404   7.090  0.7677 -1.1248  1.5292
  131OSM    C9F14141   6.082   2.352   7.214 -0.5729  0.2622 -0.7017
  131OSM    H9F14142   5.992   2.300   7.178 -2.4399  2.8970 -0.1754
  131OSM   C10F14143   6.114   2.326   7.342 -0.2581  0.4428 -0.3003
  131OSM   H10F14144   6.058   2.246   7.393  1.2322  0.8674  2.1595
  131OSM   C11F14145   6.225   2.371   7.430  0.3331 -0.5641 -0.1574
  131OSM   H11F14146   6.294   2.447   7.388 -1.3600  1.1961  0.0922
  131OSM   H11G14147   6.281   2.276   7.449 -0.5465 -0.8460  1.1933
  131OSM   C12F14148   6.168   2.426   7.562  0.1758 -0.7643 -0.0787
  131OSM   H12F14149   6.118   2.523   7.541 -0.2558 -1.3920 -2.2199
  131OSM   H12G14150   6.256   2.458   7.622 -0.8216  0.2024  0.9217
  131OSM   C13F14151   6.082   2.324   7.641 -0.8519 -0.2696  0.2816
  131OSM   H13F14152   6.113   2.220   7.620  0.2121  0.5135 -2.3700
  131OSM   H13G14153   5.974   2.334   7.615 -1.1577 -0.8733  1.2570
  131OSM   C14F14154   6.089   2.357   7.799  0.2409  0.1382  0.8308
  131OSM   H14F14155   6.078   2.467   7.811  0.6288  0.3062 -0.2315
  131OSM   H14G14156   6.192   2.322   7.821 -0.2115 -2.5181 -0.9229
  131OSM   C15F14157   5.981   2.276   7.865 -0.0250  0.3329  0.4636
  131OSM   H15F14158   6.007   2.171   7.843 -0.0295  0.2230  0.9700
  131OSM   H15G14159   5.877   2.295   7.831 -0.9471 -2.9520  1.1193
  131OSM   C16F14160   5.981   2.278   8.024 -0.6681 -0.7461  0.0045
  131OSM   H16F14161   5.971   2.383   8.060 -0.5260 -0.9762  0.7211
  131OSM   H16G14162   6.078   2.243   8.066  0.5009  0.2036 -1.7281
  131OSM   C17F14163   5.865   2.196   8.080 -0.0928 -0.3941  0.2296
  131OSM   H17F14164   5.883   2.090   8.052  0.0630 -0.5004  0.7250
  131OSM   H17G14165   5.767   2.224   8.036 -0.5052  0.4266  1.6043
  131OSM   C18F14166   5.846   2.199   8.232  0.2137 -1.2351 -0.1996
  131OSM   H18F14167   5.775   2.120   8.264  0.1176 -0.8157  0.6605
  131OSM   H18G14168   5.794   2.293   8.260 -0.9352 -1.3985 -1.6573
  131OSM   H18H14169   5.945   2.189   8.283  0.9064 -1.1598 -1.4935
  132OSM      N14170   0.358   6.114   6.045 -0.3110  0.0745  0.7171
  132OSM    C1514171   0.276   6.204   6.125  0.1987  0.2804  0.4857
  132OSM   H15A14172   0.173   6.205   6.093  0.0571  3.1693  0.7219
  132OSM   H15B14173   0.295   6.310   6.119  1.8310 -0.0267 -0.2765
  132OSM   H15C14174   0.279   6.178   6.230 -1.2253  2.4113  1.1275
  132OSM    C1414175   0.371   6.168   5.912  0.5881  0.0418  0.4824
  132OSM   H14A14176   0.444   6.115   5.852  1.6570  1.6245  0.3148
  132OSM   H14B14177   0.407   6.270   5.916  1.1597 -0.1298 -0.0258
  132OSM   H14C14178   0.280   6.163   5.854  0.5275  0.9408  0.4890
  132OSM    C1314179   0.492   6.096   6.113  0.0894 -0.5271  0.6100
  132OSM   H13A14180   0.498   6.050   6.210  2.9916  1.5350  1.5311
  132OSM   H13B14181   0.547   6.188   6.129  1.4418 -1.3456  0.8094
  132OSM   H13C14182   0.552   6.029   6.054 -0.5120 -0.2344 -0.3621
  132OSM    C1214183   0.303   5.973   6.041  0.1556 -0.6958 -0.1105
  132OSM   H12A14184   0.382   5.912   5.999  1.0879  1.7325 -2.1916
  132OSM   H12B14185   0.225   5.962   5.968  1.5555 -1.0515 -1.6208
  132OSM    C1114186   0.260   5.916   6.177 -0.2732  0.8049 -0.7832
  132OSM   H11A14187   0.155   5.949   6.191 -0.5285 -0.4051  0.3380
  132OSM   H11B14188   0.321   5.950   6.263 -0.6106 -0.7769  0.1310
  132OSM      P14189   0.393   5.692   6.215  0.2893 -0.1671 -0.3949
  132OSM    O1314190   0.353   5.550   6.227  0.6395 -0.7455 -0.0459
  132OSM    O1414191   0.508   5.730   6.125  0.1119  0.3429  0.1393
  132OSM    O1114192   0.419   5.741   6.356 -0.4864 -0.8479  0.2979
  132OSM    O1214193   0.262   5.777   6.179  0.3800  0.3980 -0.1139
  132OSM    C1S14194   0.493   5.675   6.455  0.3108 -0.1740  0.5068
  132OSM    H1S14195   0.603   5.691   6.444  0.2681  0.0484  0.3898
  132OSM    H1T14196   0.462   5.569   6.461 -2.6467  0.4822 -1.2519
  132OSM     NF14197   0.554   5.704   6.687 -0.2038 -0.2968 -0.9391
  132OSM    HNF14198   0.530   5.632   6.751 -2.5283  0.4619 -0.8681
  132OSM    C2S14199   0.452   5.736   6.593 -0.0345 -0.1532  0.3449
  132OSM    H2S14200   0.459   5.846   6.588 -0.5417 -0.0156  2.1831
  132OSM    C3S14201   0.304   5.685   6.623  0.0770  0.2568  0.2635
  132OSM    H3S14202   0.307   5.574   6.616  0.7099  0.3191 -0.6902
  132OSM     O314203   0.208   5.725   6.522 -0.1250  0.0687 -0.2874
  132OSM    HO314204   0.260   5.775   6.458  1.5894  0.4683  1.3267
  132OSM    C4S14205   0.264   5.730   6.762  0.7714  0.4394 -0.2583
  132OSM    H4S14206   0.307   5.671   6.844 -1.5489  0.7522  1.2714
  132OSM    C5S14207   0.177   5.825   6.797 -0.6884 -0.0365  0.2766
  132OSM    H5S14208   0.135   5.882   6.713  4.1058 -0.1870 -2.5593
  132OSM    C6S14209   0.128   5.852   6.937  0.2238  0.9899 -0.1486
  132OSM    H6S14210   0.033   5.909   6.937  0.5430  1.5679 -1.8594
  132OSM    H6T14211   0.199   5.914   6.997 -0.5276 -0.0367  1.9263
  132OSM    C7S14212   0.100   5.727   7.030 -0.4567  0.9776  0.0146
  132OSM    H7S14213   0.196   5.677   7.054  0.6184  0.8783 -3.8729
  132OSM    H7T14214   0.036   5.645   6.988  3.2910 -0.3366 -3.7848
  132OSM    C8S14215   0.042   5.773   7.162 -0.2427 -0.3211  0.0714
  132OSM    H8S14216  -0.053   5.824   7.135 -0.6537 -1.8417 -1.5218
  132OSM    H8T14217   0.108   5.846   7.214  0.9501 -2.9269  2.4739
  132OSM    C9S14218   0.018   5.660   7.268 -0.2956 -0.2317  0.1036
  132OSM    H9S14219   0.116   5.617   7.298  0.4301  1.4446  0.2361
  132OSM    H9T14220  -0.040   5.582   7.214  1.5216 -0.0436 -2.3105
  132OSM   C10S14221  -0.058   5.718   7.390 -0.3837  0.2073  0.0901
  132OSM   H10S14222  -0.094   5.643   7.464  1.7220 -1.2349 -0.2627
  132OSM   H10T14223  -0.148   5.780   7.370  0.7146  1.6517 -0.4900
  132OSM   C11S14224   0.037   5.818   7.471  0.2454  0.0602 -0.1941
  132OSM   H11S14225   0.063   5.900   7.400  0.6473 -0.2012 -0.3579
  132OSM   H11T14226   0.133   5.772   7.503  0.8268  1.0296 -0.5032
  132OSM   C12S14227  -0.051   5.864   7.594  0.5455 -0.1236  0.4942
  132OSM   H12S14228  -0.063   5.772   7.656 -2.0628 -0.3570 -0.2434
  132OSM   H12T14229  -0.148   5.905   7.558  1.6081  3.1428  0.9989
  132OSM   C13S14230   0.021   5.981   7.665  0.1924 -0.1684  0.6540
  132OSM   H13S14231   0.026   6.062   7.589 -0.5411 -1.5377 -0.9334
  132OSM   H13T14232   0.124   5.951   7.694  1.2089 -0.0095 -2.4042
  132OSM   C14S14233  -0.064   6.026   7.785 -0.2240 -0.1703  0.7907
  132OSM   H14S14234  -0.087   5.942   7.853 -2.3176  0.2486  0.6621
  132OSM   H14T14235  -0.153   6.071   7.736  0.3984 -1.3802 -1.6179
  132OSM   C15S14236   0.004   6.143   7.860  0.1214  0.3209 -0.1726
  132OSM   H15S14237   0.016   6.226   7.788 -0.1333  1.5953  1.1969
  132OSM   H15T14238   0.107   6.110   7.884 -0.0743 -1.9595 -2.0771
  132OSM   C16S14239  -0.075   6.196   7.981 -0.6517  0.6916  0.0056
  132OSM   H16S14240  -0.084   6.110   8.052 -0.4669  0.2462 -0.5061
  132OSM   H16T14241  -0.174   6.241   7.959  0.4761  1.9211 -2.9963
  132OSM   C17S14242  -0.004   6.306   8.058  0.1168  0.1087 -0.2073
  132OSM   H17S14243   0.041   6.378   7.986 -1.7526  0.1909 -1.3667
  132OSM   H17T14244   0.088   6.272   8.111 -1.3320 -0.6878  1.8791
  132OSM   C18S14245  -0.093   6.381   8.151  0.1825 -0.0588 -0.0347
  132OSM   H18S14246  -0.034   6.454   8.210  0.3538  0.3100 -0.6447
  132OSM   H18T14247  -0.151   6.313   8.217 -0.9720 -2.1022 -2.9405
  132OSM   H18U14248  -0.178   6.431   8.100  0.4568  2.2709  1.6467
  132OSM    C1F14249   0.672   5.762   6.702 -0.0824 -0.4369 -0.2848
  132OSM     OF14250   0.707   5.847   6.625  0.5031 -0.5368 -0.5527
  132OSM    C2F14251   0.769   5.709   6.808  0.0863  0.1843  0.1723
  132OSM    H2F14252   0.806   5.609   6.777 -1.4930 -0.6802  0.9376
  132OSM    H2G14253   0.713   5.698   6.903  0.6919 -0.2723  0.4803
  132OSM    C3F14254   0.904   5.790   6.842  0.7581  0.3438 -0.2926
  132OSM    H3F14255   0.860   5.890   6.862 -0.0887 -0.1107  0.1594
  132OSM    H3G14256   0.967   5.792   6.750 -0.6749  0.9443 -1.3008
  132OSM    C4F14257   0.988   5.736   6.966 -0.9031  0.1523  0.3861
  132OSM    H4F14258   1.072   5.808   6.974 -0.7771  0.1049 -0.4539
  132OSM    H4G14259   1.029   5.640   6.930 -0.4958  0.5462 -0.2112
  132OSM    C5F14260   0.915   5.723   7.095  0.3659 -0.1126  0.4450
  132OSM    H5F14261   0.847   5.637   7.075 -1.6168  0.6259  3.3217
  132OSM    H5G14262   0.850   5.808   7.126 -0.9604 -1.0298  0.2876
  132OSM    C6F14263   1.017   5.705   7.207 -0.2662 -1.0946 -0.0363
  132OSM    H6F14264   1.082   5.794   7.221  1.8727 -2.3798 -1.1057
  132OSM    H6G14265   1.088   5.626   7.173  0.7387  0.0721 -0.6951
  132OSM    C7F14266   0.958   5.656   7.340  0.7056 -0.3989  0.0551
  132OSM    H7F14267   0.883   5.580   7.309 -0.5384  0.4441  0.8762
  132OSM    H7G14268   0.899   5.740   7.383 -0.3438 -1.6626  1.1587
  132OSM    C8F14269   1.053   5.601   7.443  0.7637  0.4767  0.2667
  132OSM    H8F14270   1.118   5.687   7.469 -0.1223  1.8024 -1.6229
  132OSM    H8G14271   1.109   5.517   7.397 -1.4568 -2.2455  2.1804
  132OSM    C9F14272   0.977   5.542   7.558  0.2023  0.2322  0.4188
  132OSM    H9F14273   0.925   5.446   7.542 -0.0549  0.4433 -0.0061
  132OSM   C10F14274   0.977   5.587   7.681  0.1681 -0.8593 -0.6805
  132OSM   H10F14275   0.913   5.535   7.753  0.0486  1.7810  1.2611
  132OSM   C11F14276   1.056   5.700   7.737  0.2865  0.0861  0.0093
  132OSM   H11F14277   0.994   5.789   7.716  2.4021  1.2157 -1.8130
  132OSM   H11G14278   1.151   5.712   7.680 -0.4993  0.3972 -1.2577
  132OSM   C12F14279   1.076   5.704   7.890 -0.1488  0.2790 -0.5775
  132OSM   H12F14280   0.980   5.716   7.943  2.0307  2.5030  3.2980
  132OSM   H12G14281   1.142   5.786   7.924  2.2693 -1.9724  0.5197
  132OSM   C13F14282   1.149   5.580   7.954  0.0647  0.4046  0.3045
  132OSM   H13F14283   1.238   5.555   7.892  0.0200 -0.6580  0.6491
  132OSM   H13G14284   1.085   5.491   7.965  2.4346 -1.3048  1.2179
  132OSM   C14F14285   1.207   5.607   8.095 -0.1293  0.3081 -0.2275
  132OSM   H14F14286   1.125   5.642   8.162  1.9903  1.9471  1.6857
  132OSM   H14G14287   1.287   5.683   8.088  0.4217 -0.3284 -1.0020
  132OSM   C15F14288   1.274   5.483   8.139 -0.1775  0.6331 -1.1072
  132OSM   H15F14289   1.338   5.522   8.221 -1.5136  0.5090  0.0335
  132OSM   H15G14290   1.339   5.427   8.068  0.4505 -1.8729  1.2644
  132OSM   C16F14291   1.182   5.375   8.202 -0.2458  0.8804  0.5132
  132OSM   H16F14292   1.126   5.336   8.114 -1.1560  2.1929  0.4892
  132OSM   H16G14293   1.106   5.425   8.266 -1.3745 -0.3409  0.1578
  132OSM   C17F14294   1.259   5.273   8.282 -0.0350  0.4823 -0.0827
  132OSM   H17F14295   1.309   5.320   8.369  1.3421 -2.3570  0.7670
  132OSM   H17G14296   1.345   5.237   8.222  0.4571 -0.2434  1.0202
  132OSM   C18F14297   1.173   5.151   8.330 -0.0961  0.2355  0.1502
  132OSM   H18F14298   1.113   5.106   8.248 -1.3858  0.2320  1.0726
  132OSM   H18G14299   1.098   5.191   8.402 -0.1544  1.8280 -0.7478
  132OSM   H18H14300   1.241   5.069   8.363  1.4902  0.3613 -2.5381
  133SAPE     N14301   2.575   5.909  10.629  0.2250 -0.2022  0.0455
  133SAPE   HN114302   2.550   5.808  10.626 -2.2722  0.3685 -1.5868
  133SAPE   HN214303   2.492   5.966  10.655  1.2089  1.1763  0.2316
  133SAPE   HN314304   2.606   5.931  10.533  3.2189  0.4423  1.0661
  133SAPE   C1214305   2.695   5.941  10.716  0.4882  0.2715 -0.8635
  133SAPE  H12A14306   2.666   5.913  10.820  1.5972 -1.7642 -1.0519
  133SAPE  H12B14307   2.712   6.050  10.710 -1.0093  0.7761  2.1137
  133SAPE   C1114308   2.829   5.866  10.679  0.7682  0.2722  0.2051
  133SAPE  H11A14309   2.800   5.760  10.665 -0.7434  0.8053 -0.8951
  133SAPE  H11B14310   2.896   5.861  10.768  0.1846  3.2180  0.9085
  133SAPE     P14311   3.012   6.010  10.568  0.1300 -0.4797  0.1050
  133SAPE   O1314312   2.986   6.124  10.662 -0.2712  0.5936 -0.4218
  133SAPE   O1414313   3.141   5.938  10.591  0.1532  0.3685 -0.2641
  133SAPE   O1214314   2.885   5.915  10.557 -0.7848  0.2292 -0.0924
  133SAPE   O1114315   3.020   6.073  10.422  0.0883  0.4721 -0.2737
  133SAPE    C114316   2.900   6.117  10.360 -0.2849  0.4628  0.1064
  133SAPE    HA14317   2.823   6.149  10.433  1.5809  0.0677  2.3470
  133SAPE    HB14318   2.916   6.210  10.302 -3.3363  1.8357  1.2342
  133SAPE    C214319   2.840   6.009  10.264 -0.4688  0.6049  0.2735
  133SAPE    HS14320   2.844   5.909  10.312  1.3531 -0.4627 -1.9218
  133SAPE   O2114321   2.940   6.008  10.149 -0.5254  0.5431 -0.3130
  133SAPE   C2114322   2.915   5.908  10.060 -0.1372 -0.1706 -0.3058
  133SAPE   O2214323   2.826   5.829  10.069 -0.2529  0.3521  0.2976
  133SAPE   C2214324   3.008   5.910   9.945 -0.4746  0.6282  0.3510
  133SAPE   H2R14325   3.112   5.916   9.985 -0.8324 -2.3434  1.9625
  133SAPE   H2S14326   3.004   5.803   9.917  0.9236  0.2475  1.4556
  133SAPE    C314327   2.700   6.030  10.218 -0.3888 -0.0596 -0.3428
  133SAPE    HX14328   2.632   6.070  10.295 -0.8114  1.5122 -1.4828
  133SAPE    HY14329   2.655   5.930  10.198 -0.5711 -0.0559  0.0481
  133SAPE   O3114330   2.688   6.111  10.101 -0.4351  0.3638 -0.7396
  133SAPE   C3114331   2.695   6.245  10.102  0.1655  0.1650  0.6444
  133SAPE   O3214332   2.708   6.310  10.204 -0.2100  0.0174 -0.4254
  133SAPE   C3214333   2.701   6.305   9.959 -0.4779  0.8098 -0.4043
  133SAPE   H2X14334   2.604   6.284   9.909  0.3341 -1.3627 -1.1856
  133SAPE   H2Y14335   2.775   6.251   9.897 -2.5917 -0.0877 -2.3000
  133SAPE   C2314336   2.969   6.015   9.836 -0.2092 -0.4230 -0.1116
  133SAPE   H3R14337   3.049   6.033   9.761 -0.3892  2.3291  0.2580
  133SAPE   H3S14338   2.963   6.109   9.894 -0.2194 -0.4306 -0.1007
  133SAPE   C2414339   2.829   5.996   9.761  0.4546  0.3751  0.1120
  133SAPE   H4R14340   2.814   6.084   9.696  2.5827 -0.1041 -1.1457
  133SAPE   H4S14341   2.747   5.995   9.836  0.7089 -0.6909  0.3962
  133SAPE   C2514342   2.831   5.860   9.692 -0.4960 -0.1699  0.6395
  133SAPE   H5R14343   2.859   5.778   9.760  1.1705  1.5634  2.1577
  133SAPE   C2614344   2.806   5.847   9.563  0.6672 -0.1157 -0.4091
  133SAPE   H6R14345   2.797   5.743   9.527 -1.8958  0.0094 -0.2987
  133SAPE   C2714346   2.769   5.965   9.470 -0.5060  0.0825 -0.0079
  133SAPE   H7R14347   2.794   6.065   9.511  0.6610 -0.2120  0.0108
  133SAPE   H7S14348   2.659   5.979   9.463 -0.9085 -1.6182  1.8438
  133SAPE   C2814349   2.833   5.949   9.335  0.4528 -0.5690  0.4437
  133SAPE   H8R14350   2.937   5.980   9.320 -0.0389  0.5075 -0.9353
  133SAPE   C2914351   2.777   5.880   9.233 -0.0581 -0.0233 -0.3300
  133SAPE   H9R14352   2.823   5.880   9.133  0.2407 -0.7861 -0.1989
  133SAPE  C21014353   2.634   5.816   9.229 -0.0028  0.3737 -0.3321
  133SAPE  H10R14354   2.557   5.895   9.221 -2.2134 -1.4441  1.6343
  133SAPE  H10S14355   2.609   5.772   9.327  0.2198  0.3763 -0.2719
  133SAPE  C21114356   2.629   5.704   9.125 -0.6141  0.2105  0.6254
  133SAPE  H11R14357   2.720   5.642   9.131  0.8606  1.8008 -2.6564
  133SAPE  C21214358   2.541   5.671   9.027 -0.1091 -0.7879 -0.6973
  133SAPE  H12R14359   2.556   5.580   8.966 -0.7383  0.7361 -3.2859
  133SAPE  C21314360   2.411   5.736   9.005  0.4643 -0.8171  0.4555
  133SAPE  H13R14361   2.399   5.840   9.043 -1.6304  0.1017 -2.3511
  133SAPE  H13S14362   2.328   5.670   9.039  0.0952 -1.3852 -1.4251
  133SAPE  C21414363   2.393   5.739   8.854  0.0633  0.0341  0.1843
  133SAPE  H14R14364   2.488   5.724   8.801 -0.5709  0.9961 -1.2852
  133SAPE  C21514365   2.282   5.762   8.780  0.9793  0.3173  0.0195
  133SAPE  H15R14366   2.289   5.765   8.671  0.7672 -0.7022 -0.0319
  133SAPE  C21614367   2.138   5.782   8.835 -0.7277 -0.2475  0.5130
  133SAPE  H16R14368   2.144   5.775   8.946  1.1055  0.5188  0.5053
  133SAPE  H16S14369   2.067   5.703   8.803 -0.1035 -1.4597  2.0108
  133SAPE  C21714370   2.081   5.923   8.798 -0.7637 -0.1661  0.3105
  133SAPE  H17R14371   2.094   5.939   8.689 -0.7354  2.5423  0.6492
  133SAPE  H17S14372   2.136   6.008   8.845 -1.3781  0.6025 -0.3434
  133SAPE  C21814373   1.928   5.924   8.829  0.0520 -0.3351  0.8346
  133SAPE  H18R14374   1.916   5.913   8.939  2.3818  0.4058  1.2274
  133SAPE  H18S14375   1.880   5.842   8.772  1.3655 -0.9476  0.5579
  133SAPE  C21914376   1.859   6.059   8.795 -0.1105 -0.6946 -0.5235
  133SAPE  H19R14377   1.835   6.075   8.687  2.1096  0.3858 -0.9011
  133SAPE  H19S14378   1.927   6.142   8.822 -0.8952 -0.6560  1.5082
  133SAPE  C22014379   1.734   6.096   8.869  1.5120  0.4813 -0.0454
  133SAPE  H20R14380   1.700   6.198   8.842  2.6924  0.8246 -0.3248
  133SAPE  H20S14381   1.731   6.092   8.980  0.2679  1.0789 -0.0480
  133SAPE  H20T14382   1.651   6.028   8.840  1.8989 -1.2759  2.6393
  133SAPE   C3314383   2.734   6.455   9.945 -0.3699  0.7742 -0.0352
  133SAPE   H3X14384   2.814   6.496  10.011 -2.0920  3.0200  0.7962
  133SAPE   H3Y14385   2.639   6.509   9.969 -1.5390 -1.7115  1.3328
  133SAPE   C3414386   2.774   6.480   9.797  0.0081 -0.3329  0.2291
  133SAPE   H4X14387   2.882   6.454   9.787  0.4003  1.0179  0.7014
  133SAPE   H4Y14388   2.765   6.590   9.784 -1.0339 -0.6160 -1.7717
  133SAPE   C3514389   2.694   6.411   9.691  0.5677  0.2303 -0.0409
  133SAPE   H5X14390   2.586   6.400   9.713  0.1096  3.0760 -0.5742
  133SAPE   H5Y14391   2.729   6.307   9.671  0.3503  0.2230 -0.3992
  133SAPE   C3614392   2.701   6.481   9.556  0.1350 -0.4282  0.0927
  133SAPE   H6X14393   2.806   6.509   9.534  0.4029 -1.9375 -0.6550
  133SAPE   H6Y14394   2.642   6.575   9.567  0.8077  0.0560 -0.3530
  133SAPE   C3714395   2.648   6.397   9.441  0.4957 -0.3802  1.1510
  133SAPE   H7X14396   2.540   6.380   9.462  0.7334  1.0505  3.9522
  133SAPE   H7Y14397   2.697   6.298   9.426  0.8806 -0.4221  2.5809
  133SAPE   C3814398   2.652   6.477   9.303  0.1889  0.1431 -0.2177
  133SAPE   H8X14399   2.734   6.551   9.308  1.4177 -1.2550  2.0442
  133SAPE   H8Y14400   2.571   6.552   9.293 -0.4044 -0.7260 -2.8512
  133SAPE   C3914401   2.645   6.387   9.182  0.1753 -0.8720 -0.1824
  133SAPE   H9X14402   2.722   6.309   9.201  0.7891 -0.4803 -0.9473
  133SAPE   H9Y14403   2.660   6.444   9.087 -0.7642 -1.4141 -0.6610
  133SAPE  C31014404   2.507   6.322   9.168 -0.0991 -0.1232  0.3354
  133SAPE  H10X14405   2.429   6.399   9.184  0.8457  0.4942  2.1959
  133SAPE  H10Y14406   2.490   6.252   9.253  1.0834  1.5475  2.0250
  133SAPE  C31114407   2.490   6.241   9.034 -0.1780 -0.4244  0.1290
  133SAPE  H11X14408   2.507   6.315   8.953  0.1759 -2.3874 -1.6664
  133SAPE  H11Y14409   2.379   6.226   9.033 -0.3409  0.6845  0.5059
  133SAPE  C31214410   2.591   6.125   9.014 -0.3922  0.0141  0.1244
  133SAPE  H12X14411   2.589   6.059   9.103 -1.1465  1.5669  1.3151
  133SAPE  H12Y14412   2.693   6.170   9.020 -0.3433  0.2434 -1.7181
  133SAPE  C31314413   2.562   6.050   8.887 -0.5401 -0.4632 -0.1568
  133SAPE  H13X14414   2.453   6.058   8.865 -0.6483 -0.7074  0.2687
  133SAPE  H13Y14415   2.591   5.943   8.889  4.6354  0.6963 -0.8195
  133SAPE  C31414416   2.639   6.123   8.775 -0.3385 -0.5203 -0.0421
  133SAPE  H14X14417   2.748   6.127   8.797 -0.4383  3.5188  0.5755
  133SAPE  H14Y14418   2.612   6.231   8.784  1.1906 -0.1187  0.0153
  133SAPE  C31514419   2.612   6.068   8.631 -0.4600 -0.1203  0.4146
  133SAPE  H15X14420   2.616   5.958   8.646 -0.6932 -0.0789  0.7945
  133SAPE  H15Y14421   2.675   6.112   8.551 -1.4764  0.3648 -0.1272
  133SAPE  C31614422   2.468   6.100   8.585 -0.1115  0.8480 -0.0703
  133SAPE  H16X14423   2.447   6.208   8.599  2.0774  1.3357 -0.1169
  133SAPE  H16Y14424   2.399   6.048   8.654 -1.0583  1.6205 -0.4050
  133SAPE  C31714425   2.444   6.072   8.437  0.0585  0.3584 -0.2077
  133SAPE  H17X14426   2.335   6.057   8.418 -0.5288  1.3417  2.0761
  133SAPE  H17Y14427   2.493   5.977   8.408  1.0108  1.0368 -0.8898
  133SAPE  C31814428   2.491   6.183   8.340  0.2619 -0.0812  0.4847
  133SAPE  H18X14429   2.597   6.210   8.359  1.2092 -1.3298 -2.3911
  133SAPE  H18Y14430   2.436   6.276   8.364  0.5389 -0.1872  1.5532
  133SAPE  H18Z14431   2.476   6.154   8.234 -0.0008  2.0506 -0.0990
  134SAPE     N14432   4.218   5.963  10.525  0.3980  0.5205 -0.7437
  134SAPE   HN114433   4.258   5.952  10.430 -0.8630 -1.6335 -1.0997
  134SAPE   HN214434   4.119   5.990  10.512  0.1503 -0.8338 -2.0487
  134SAPE   HN314435   4.262   6.041  10.577  0.8220 -0.5583  0.5866
  134SAPE   C1214436   4.237   5.840  10.612 -1.0269 -0.2919 -0.3469
  134SAPE  H12A14437   4.173   5.758  10.571 -1.0527 -0.7319  0.5369
  134SAPE  H12B14438   4.201   5.861  10.715 -0.0032  0.3079 -0.1004
  134SAPE   C1114439   4.394   5.802  10.624 -0.4593 -0.2848  0.5638
  134SAPE  H11A14440   4.424   5.740  10.537  0.8839  1.1225 -0.0431
  134SAPE  H11B14441   4.421   5.742  10.713 -1.0195 -0.8387  0.3599
  134SAPE     P14442   4.623   5.927  10.673 -0.1564 -0.2531  0.2978
  134SAPE   O1314443   4.704   6.037  10.627 -0.4141  0.0724 -0.1051
  134SAPE   O1414444   4.608   5.920  10.819  0.5165  1.2600 -0.3173
  134SAPE   O1214445   4.480   5.918  10.606  0.3834 -0.3266 -0.2299
  134SAPE   O1114446   4.688   5.796  10.619  0.2263  0.5985 -0.5413
  134SAPE    C114447   4.694   5.772  10.478 -0.2223 -0.1253 -0.0745
  134SAPE    HA14448   4.659   5.667  10.471 -1.0058  0.1964 -1.2553
  134SAPE    HB14449   4.619   5.825  10.416 -0.6445 -0.0539  0.4881
  134SAPE    C214450   4.839   5.767  10.417 -0.2582  0.0300  0.5386
  134SAPE    HS14451   4.906   5.718  10.490  0.8828  3.6550  2.1692
  134SAPE   O2114452   4.893   5.889  10.385 -0.2877  0.1774 -0.6894
  134SAPE   C2114453   5.023   5.901  10.369 -0.1368 -0.0757  0.1422
  134SAPE   O2214454   5.109   5.826  10.411  0.2031 -0.1298  0.0927
  134SAPE   C2214455   5.054   6.028  10.298  0.0219  0.1174 -0.5361
  134SAPE   H2R14456   4.967   6.090  10.267  0.8402  1.7227  0.2317
  134SAPE   H2S14457   5.112   6.104  10.355 -1.0200  1.8887 -1.7055
  134SAPE    C314458   4.843   5.680  10.286  0.2082 -0.2060 -0.6142
  134SAPE    HX14459   4.826   5.577  10.323 -1.0027  0.4647  0.7925
  134SAPE    HY14460   4.947   5.690  10.246  1.3976  0.4317  2.3390
  134SAPE   O3114461   4.737   5.735  10.199  0.5612  0.0061 -0.1374
  134SAPE   C3114462   4.735   5.655  10.087  0.4948  0.2686  0.5814
  134SAPE   O3214463   4.802   5.553  10.071  0.5862 -0.1727  0.0234
  134SAPE   C3214464   4.645   5.727   9.985 -0.1985 -0.7853  0.1421
  134SAPE   H2X14465   4.675   5.835   9.983  0.6816 -1.0069  0.6792
  134SAPE   H2Y14466   4.542   5.716  10.024  0.1245  1.7794  2.0060
  134SAPE   C2314467   5.132   5.996  10.170  0.3396 -0.0945 -0.0740
  134SAPE   H3R14468   5.217   5.924  10.170 -0.4604 -1.0571  0.4448
  134SAPE   H3S14469   5.173   6.087  10.121 -2.1522  0.8820 -0.4840
  134SAPE   C2414470   5.047   5.942  10.046 -0.1501 -0.6301 -0.1444
  134SAPE   H4R14471   5.010   5.844  10.082 -3.1671  0.2892 -0.4779
  134SAPE   H4S14472   5.121   5.934   9.964  0.6851  2.9232  0.0711
  134SAPE   C2514473   4.942   6.040  10.003  0.4819  0.3328 -0.2120
  134SAPE   H5R14474   4.862   6.035  10.079  2.2086 -1.3119  1.6081
  134SAPE   C2614475   4.916   6.115   9.895 -0.0247 -0.1758 -0.2535
  134SAPE   H6R14476   4.825   6.176   9.903  0.0132  0.0267 -1.2313
  134SAPE   C2714477   4.996   6.135   9.767  0.5351 -0.1807 -0.0189
  134SAPE   H7R14478   4.968   6.047   9.706 -0.6575 -0.2697  0.6265
  134SAPE   H7S14479   5.106   6.125   9.769  0.3465 -2.7441  1.3157
  134SAPE   C2814480   4.951   6.261   9.694 -0.2703 -0.3234  0.3974
  134SAPE   H8R14481   5.022   6.342   9.720 -0.2258 -0.3723  0.4279
  134SAPE   C2914482   4.878   6.274   9.582  0.4381  0.4552 -0.1695
  134SAPE   H9R14483   4.849   6.372   9.540 -1.0595 -0.8885 -2.4763
  134SAPE  C21014484   4.801   6.159   9.518 -0.1733 -0.7957  0.0649
  134SAPE  H10R14485   4.725   6.209   9.455  1.6620  2.6823  0.3756
  134SAPE  H10S14486   4.758   6.102   9.603 -2.4688  2.3976  1.2208
  134SAPE  C21114487   4.879   6.059   9.438 -0.2035  0.0829  0.7255
  134SAPE  H11R14488   4.920   5.980   9.503  1.6857  1.1972  0.9620
  134SAPE  C21214489   4.917   6.062   9.312 -0.0629  0.2387 -0.6270
  134SAPE  H12R14490   4.971   5.979   9.263  4.7733  2.7029 -0.0658
  134SAPE  C21314491   4.889   6.177   9.216 -0.1826 -0.3579 -0.1531
  134SAPE  H13R14492   4.812   6.250   9.250  1.4334  1.3578 -0.0425
  134SAPE  H13S14493   4.837   6.138   9.126 -2.6765 -0.7812  1.3792
  134SAPE  C21414494   5.017   6.252   9.183 -0.8373 -0.3868  0.0230
  134SAPE  H14R14495   5.051   6.318   9.264 -0.0278  1.6479 -1.8813
  134SAPE  C21514496   5.098   6.230   9.073  0.8757  0.3305 -0.3017
  134SAPE  H15R14497   5.190   6.289   9.058  1.0452  0.0961 -0.1888
  134SAPE  C21614498   5.072   6.130   8.962 -0.8583 -0.3608 -0.2829
  134SAPE  H16R14499   4.989   6.060   8.983 -1.7342  1.1157  1.5205
  134SAPE  H16S14500   5.161   6.064   8.969 -0.1619  0.7487  4.0804
  134SAPE  C21714501   5.048   6.190   8.815 -0.4205 -0.3764  0.7939
  134SAPE  H17R14502   5.133   6.255   8.786  1.0261 -2.2794  0.5048
  134SAPE  H17S14503   4.954   6.249   8.812 -1.0298 -1.2376  2.0628
  134SAPE  C21814504   5.028   6.075   8.706 -0.1702  0.1552  0.0259
  134SAPE  H18R14505   4.970   5.997   8.758 -1.7965  0.7606 -0.7864
  134SAPE  H18S14506   5.129   6.043   8.673  0.5010  1.8106  0.3622
  134SAPE  C21914507   4.945   6.112   8.589  0.7863  0.5418  1.2851
  134SAPE  H19R14508   4.848   6.142   8.634  1.4993  1.1801  2.4332
  134SAPE  H19S14509   4.924   6.032   8.514 -2.2853  0.6940  1.8307
  134SAPE  C22014510   4.994   6.238   8.511 -0.0117  0.2230 -0.5488
  134SAPE  H20R14511   5.098   6.223   8.474 -0.0623  0.4147 -0.7726
  134SAPE  H20S14512   4.990   6.329   8.574 -1.5151  0.3981 -0.8661
  134SAPE  H20T14513   4.922   6.250   8.427 -3.1954  1.7141  2.2021
  134SAPE   C3314514   4.678   5.678   9.841 -0.0065 -0.3381 -0.1889
  134SAPE   H3X14515   4.589   5.702   9.778 -0.0556 -0.0293 -0.0043
  134SAPE   H3Y14516   4.689   5.568   9.851  0.4319 -0.2747  0.0430
  134SAPE   C3414517   4.808   5.748   9.782 -0.1191  0.0601 -0.4081
  134SAPE   H4X14518   4.881   5.733   9.865 -2.0250 -3.5157  0.8544
  134SAPE   H4Y14519   4.782   5.856   9.772  2.2163  0.6290 -0.8597
  134SAPE   C3514520   4.874   5.693   9.653 -0.4831 -0.3185  0.2748
  134SAPE   H5X14521   4.921   5.594   9.672  0.3514 -0.2891 -1.4335
  134SAPE   H5Y14522   4.954   5.763   9.622 -0.7023 -0.5630 -0.8730
  134SAPE   C3614523   4.768   5.672   9.534  0.4583 -0.0189 -0.2663
  134SAPE   H6X14524   4.716   5.770   9.540 -0.5482 -0.6265  3.0004
  134SAPE   H6Y14525   4.691   5.593   9.551 -2.6455  2.5884 -1.0469
  134SAPE   C3714526   4.835   5.666   9.399 -0.2752  0.0955  0.1294
  134SAPE   H7X14527   4.875   5.562   9.398 -0.1742  0.0112  3.0656
  134SAPE   H7Y14528   4.907   5.750   9.393 -1.2451  0.9311  0.0875
  134SAPE   C3814529   4.737   5.678   9.282  0.5720 -0.2166 -0.4300
  134SAPE   H8X14530   4.671   5.766   9.299 -1.4742 -1.8303  0.5035
  134SAPE   H8Y14531   4.661   5.598   9.277 -2.8787  2.8454 -0.9776
  134SAPE   C3914532   4.806   5.696   9.142 -0.4217 -0.4922  0.1753
  134SAPE   H9X14533   4.859   5.611   9.092 -2.8124 -1.2964 -1.1905
  134SAPE   H9Y14534   4.894   5.763   9.151  0.0903 -1.2377  0.7866
  134SAPE  C31014535   4.713   5.752   9.031 -0.1355 -0.4825  0.5878
  134SAPE  H10X14536   4.649   5.825   9.086 -2.2605 -1.2404 -0.7165
  134SAPE  H10Y14537   4.638   5.682   8.988  0.9113 -0.5054 -1.2922
  134SAPE  C31114538   4.782   5.834   8.918 -0.5610  0.3557 -0.3421
  134SAPE  H11X14539   4.831   5.761   8.850 -1.7500 -0.5080 -0.3230
  134SAPE  H11Y14540   4.856   5.900   8.967  0.8132 -0.6308 -1.0271
  134SAPE  C31214541   4.685   5.932   8.850  0.6420 -0.3223 -0.0194
  134SAPE  H12X14542   4.746   5.997   8.784  0.0662  0.9352  0.6562
  134SAPE  H12Y14543   4.623   5.998   8.914  0.6953 -1.7504  1.5916
  134SAPE  C31314544   4.587   5.846   8.772  0.0343 -0.2154 -0.1423
  134SAPE  H13X14545   4.505   5.815   8.840  0.8544  2.1903  2.0929
  134SAPE  H13Y14546   4.639   5.753   8.741  1.8872  0.6075  0.4022
  134SAPE  C31414547   4.536   5.927   8.648 -0.1198  0.3619 -0.7129
  134SAPE  H14X14548   4.617   5.910   8.573  1.1562  0.6010  0.5647
  134SAPE  H14Y14549   4.533   6.038   8.657 -1.4642  0.3180 -0.4012
  134SAPE  C31514550   4.405   5.865   8.603  0.3177 -0.0658 -0.2446
  134SAPE  H15X14551   4.345   5.872   8.696  0.5592  0.9196 -0.1605
  134SAPE  H15Y14552   4.417   5.759   8.571  1.0442  0.1843 -0.8298
  134SAPE  C31614553   4.340   5.950   8.490  0.7259 -0.3767  0.0209
  134SAPE  H16X14554   4.409   5.978   8.408 -0.8290 -1.7656 -1.8635
  134SAPE  H16Y14555   4.313   6.048   8.534 -1.6370  0.4118 -2.8439
  134SAPE  C31714556   4.211   5.883   8.437  0.0718  0.2843 -0.2294
  134SAPE  H17X14557   4.175   5.951   8.356  1.2997 -0.0767 -1.1115
  134SAPE  H17Y14558   4.134   5.881   8.517  0.5598 -2.9946  0.2773
  134SAPE  C31814559   4.244   5.750   8.380 -0.0413  0.7050  0.3705
  134SAPE  H18X14560   4.159   5.698   8.331  1.7157  0.5730 -2.8690
  134SAPE  H18Y14561   4.278   5.678   8.457  1.3513  0.2718 -0.6039
  134SAPE  H18Z14562   4.328   5.759   8.307 -0.8120 -0.4348 -0.7028
  135SAPE     N14563   3.512   3.838  10.777  0.3011 -0.1062  0.2981
  135SAPE   HN114564   3.422   3.797  10.810  0.2139  1.1346  1.7117
  135SAPE   HN214565   3.587   3.823  10.847  0.5806  0.4296  0.1173
  135SAPE   HN314566   3.495   3.936  10.745 -0.7165  0.3199  2.0254
  135SAPE   C1214567   3.557   3.754  10.659  0.2022  0.2988 -0.7145
  135SAPE  H12A14568   3.560   3.648  10.692  0.3252  0.7239  0.7055
  135SAPE  H12B14569   3.657   3.791  10.628 -0.7823  1.5958 -2.5322
  135SAPE   C1114570   3.454   3.757  10.539  0.8601  0.5789  0.6944
  135SAPE  H11A14571   3.509   3.691  10.469  0.1160  0.3036  0.3580
  135SAPE  H11B14572   3.454   3.862  10.503  1.1690  0.3341 -0.0587
  135SAPE     P14573   3.195   3.740  10.523 -0.0766 -0.0137 -0.0533
  135SAPE   O1314574   3.120   3.774  10.647 -0.3470  0.1621 -0.1110
  135SAPE   O1414575   3.208   3.850  10.433 -0.5021 -0.1016  0.3449
  135SAPE   O1214576   3.334   3.692  10.577 -0.4701 -0.0810  0.3713
  135SAPE   O1114577   3.130   3.614  10.457 -0.5518 -0.4834 -0.0839
  135SAPE    C114578   3.173   3.479  10.479  0.4679  0.2751  0.3207
  135SAPE    HA14579   3.260   3.461  10.545 -1.0685 -1.5004  1.9700
  135SAPE    HB14580   3.093   3.427  10.534 -0.3826  1.6289  0.4197
  135SAPE    C214581   3.209   3.408  10.344  0.0593  0.7442 -0.0053
  135SAPE    HS14582   3.279   3.327  10.374  1.3753  3.0566  3.7452
  135SAPE   O2114583   3.274   3.500  10.263  0.4071  0.5141  0.6521
  135SAPE   C2114584   3.405   3.485  10.226 -0.3132 -0.6898  0.0765
  135SAPE   O2214585   3.480   3.402  10.273  0.2527 -0.1489 -0.4531
  135SAPE   C2214586   3.430   3.603  10.141  0.4727 -0.3558 -0.7373
  135SAPE   H2R14587   3.332   3.630  10.094 -0.5671  0.6431  1.7965
  135SAPE   H2S14588   3.443   3.694  10.204 -1.3519 -1.2938  1.1231
  135SAPE    C314589   3.086   3.348  10.276 -0.0046  0.4235 -0.2470
  135SAPE    HX14590   3.025   3.427  10.228 -2.8005 -0.5923  1.4396
  135SAPE    HY14591   3.022   3.300  10.354  2.0449 -2.0141  0.0931
  135SAPE   O3114592   3.125   3.253  10.173  0.4105  0.3638  0.4810
  135SAPE   C3114593   3.020   3.198  10.109  0.6402  0.4450 -0.1166
  135SAPE   O3214594   2.904   3.202  10.148 -0.0064 -0.1076  0.6869
  135SAPE   C3214595   3.068   3.133   9.981 -0.3935 -0.4534 -0.5933
  135SAPE   H2X14596   3.117   3.037  10.010 -0.8174  0.2163  2.7507
  135SAPE   H2Y14597   3.141   3.202   9.934  0.5507 -0.0526  1.3740
  135SAPE   C2314598   3.542   3.578  10.039 -1.1177 -0.2746  0.0390
  135SAPE   H3R14599   3.628   3.559  10.106  0.3747  2.4503 -0.9423
  135SAPE   H3S14600   3.562   3.673   9.985  0.3961  0.0102  1.0646
  135SAPE   C2414601   3.520   3.458   9.940 -0.0758 -0.1329  0.3567
  135SAPE   H4R14602   3.570   3.486   9.845  1.7393 -0.6946  1.1044
  135SAPE   H4S14603   3.415   3.475   9.906  0.4153  0.5768 -0.8633
  135SAPE   C2514604   3.539   3.313   9.978 -0.1387  0.1607 -0.3652
  135SAPE   H5R14605   3.578   3.301  10.080  1.7034 -1.2587 -1.1729
  135SAPE   C2614606   3.520   3.209   9.898 -0.3386  0.4525  0.2933
  135SAPE   H6R14607   3.523   3.108   9.942  0.0523 -0.2685 -1.3407
  135SAPE   C2714608   3.462   3.210   9.759 -0.2541  0.2719  0.5956
  135SAPE   H7R14609   3.440   3.313   9.722 -1.7981 -0.2329  0.0327
  135SAPE   H7S14610   3.359   3.169   9.768  0.5356 -1.9441  0.1380
  135SAPE   C2814611   3.553   3.156   9.653  0.4584 -0.0677  0.1690
  135SAPE   H8R14612   3.661   3.157   9.671  0.3745  0.7367  0.6690
  135SAPE   C2914613   3.509   3.111   9.527 -0.6247  0.1018 -0.1865
  135SAPE   H9R14614   3.583   3.065   9.460 -1.2869 -1.5628  0.1953
  135SAPE  C21014615   3.366   3.098   9.480  0.3625  0.3287  0.4771
  135SAPE  H10R14616   3.376   3.104   9.369  3.0317 -2.0579  0.4740
  135SAPE  H10S14617   3.300   3.179   9.517  1.0883  0.8818  0.5904
  135SAPE  C21114618   3.295   2.968   9.509  0.8430  0.1502 -0.8281
  135SAPE  H11R14619   3.257   2.954   9.611 -1.3136 -1.5740 -1.7750
  135SAPE  C21214620   3.296   2.849   9.436  0.5264 -0.0967  0.0576
  135SAPE  H12R14621   3.219   2.773   9.460 -1.5109  1.6646 -0.5892
  135SAPE  C21314622   3.367   2.831   9.301 -0.1685  0.1669 -0.2072
  135SAPE  H13R14623   3.445   2.751   9.305 -1.2234 -0.9047 -0.5503
  135SAPE  H13S14624   3.412   2.925   9.262 -1.8575  0.7481 -0.8358
  135SAPE  C21414625   3.270   2.789   9.196  0.2965  0.2564  0.0443
  135SAPE  H14R14626   3.196   2.715   9.231 -0.0764  1.7968  2.7684
  135SAPE  C21514627   3.271   2.827   9.068  0.3562  0.1103 -0.2687
  135SAPE  H15R14628   3.190   2.790   9.004  0.2296 -3.2368  1.5609
  135SAPE  C21614629   3.361   2.921   8.991  0.0817  0.4619  0.0456
  135SAPE  H16R14630   3.466   2.892   9.014  0.1144  0.4221 -0.1490
  135SAPE  H16S14631   3.349   3.028   9.021  0.1065  1.2477 -2.4641
  135SAPE  C21714632   3.338   2.923   8.837 -0.0187 -0.3039 -0.5239
  135SAPE  H17R14633   3.236   2.951   8.802 -0.7461  1.1481  2.4107
  135SAPE  H17S14634   3.355   2.819   8.801  0.2666 -0.5149  0.1969
  135SAPE  C21814635   3.433   3.020   8.762 -0.1708  0.5722  1.0441
  135SAPE  H18R14636   3.537   2.988   8.786 -0.4090 -2.7149 -1.6564
  135SAPE  H18S14637   3.424   3.121   8.808 -0.5381  1.4273 -0.8435
  135SAPE  C21914638   3.409   3.041   8.612  0.2008 -0.5842 -0.2510
  135SAPE  H19R14639   3.303   3.076   8.610  0.5076  0.3349 -1.4845
  135SAPE  H19S14640   3.419   2.941   8.565 -2.5504 -0.7545 -0.6641
  135SAPE  C22014641   3.507   3.140   8.550  0.5633 -0.3804  0.6118
  135SAPE  H20R14642   3.488   3.245   8.583 -0.9259 -0.1285 -0.9037
  135SAPE  H20S14643   3.490   3.141   8.440  0.1428 -0.8257  0.6715
  135SAPE  H20T14644   3.614   3.113   8.560  0.3632 -1.7275 -0.5193
  135SAPE   C3314645   2.951   3.105   9.882 -0.4830  0.3974 -0.1964
  135SAPE   H3X14646   2.942   3.189   9.810  1.5319  2.8129  2.1559
  135SAPE   H3Y14647   2.853   3.086   9.931  0.4192 -1.2203  1.0684
  135SAPE   C3414648   2.981   2.975   9.805 -0.2479 -0.0371  0.0066
  135SAPE   H4X14649   2.971   2.904   9.891 -0.2350  1.0252  0.9098
  135SAPE   H4Y14650   3.089   2.973   9.778 -0.2493 -1.3129  0.0313
  135SAPE   C3514651   2.883   2.936   9.696 -0.2091  0.3570 -0.2222
  135SAPE   H5X14652   2.780   2.956   9.731  0.6533  2.1483  1.5149
  135SAPE   H5Y14653   2.911   2.832   9.669 -0.7384 -0.0742  0.8207
  135SAPE   C3614654   2.917   3.017   9.565  0.3113  0.0774  0.5028
  135SAPE   H6X14655   3.028   3.027   9.557  0.5702 -1.8673  1.0617
  135SAPE   H6Y14656   2.869   3.117   9.560 -0.4438 -0.3388 -0.9640
  135SAPE   C3714657   2.888   2.941   9.431  0.2303  0.5809 -0.5571
  135SAPE   H7X14658   2.783   2.905   9.427 -0.0429  1.1767  0.6881
  135SAPE   H7Y14659   2.959   2.857   9.417  0.7923  0.6899  1.4046
  135SAPE   C3814660   2.922   3.036   9.312  0.1305  0.9878 -0.8040
  135SAPE   H8X14661   3.032   3.050   9.309 -0.1072  3.2704 -0.3022
  135SAPE   H8Y14662   2.884   3.134   9.347  1.2795  0.7369  1.2949
  135SAPE   C3914663   2.861   2.980   9.181  0.0788 -0.0491 -0.7513
  135SAPE   H9X14664   2.756   2.945   9.185  0.8159 -2.3446  2.2693
  135SAPE   H9Y14665   2.918   2.886   9.161  0.2078 -0.6344  1.9181
  135SAPE  C31014666   2.883   3.058   9.053  0.2173 -0.1161 -0.0878
  135SAPE  H10X14667   2.984   3.103   9.042  0.6152 -0.9312  0.1986
  135SAPE  H10Y14668   2.804   3.136   9.059 -1.6247 -1.8205 -0.9266
  135SAPE  C31114669   2.864   2.972   8.929  0.1183  0.0604 -0.5399
  135SAPE  H11X14670   2.762   2.931   8.943  0.0629  0.4543  0.2192
  135SAPE  H11Y14671   2.917   2.875   8.923  0.2271  0.1545 -1.2246
  135SAPE  C31214672   2.875   3.058   8.803  0.7863  0.9974  0.3243
  135SAPE  H12X14673   2.977   3.101   8.789  0.0541  2.6648 -0.1376
  135SAPE  H12Y14674   2.796   3.135   8.787 -0.9464 -0.6425  0.6206
  135SAPE  C31314675   2.864   2.957   8.680 -0.1166 -0.2596 -0.1082
  135SAPE  H13X14676   2.760   2.919   8.689  0.4239 -1.7392  0.3028
  135SAPE  H13Y14677   2.930   2.867   8.684 -2.2403 -1.8599  0.6132
  135SAPE  C31414678   2.883   3.033   8.550  0.9043 -0.9744  0.1269
  135SAPE  H14X14679   2.981   3.084   8.546  0.2921  0.2063 -0.2781
  135SAPE  H14Y14680   2.805   3.112   8.550 -1.0916 -2.8198 -0.4602
  135SAPE  C31514681   2.852   2.941   8.434 -0.4679 -0.4446 -0.2321
  135SAPE  H15X14682   2.743   2.921   8.441 -0.4395 -0.6180 -0.2669
  135SAPE  H15Y14683   2.904   2.843   8.440  2.8036  1.2481  4.0713
  135SAPE  C31614684   2.888   3.007   8.297  0.6961 -0.0022 -0.2751
  135SAPE  H16X14685   2.995   3.033   8.311  0.1971  1.9999  0.0769
  135SAPE  H16Y14686   2.821   3.095   8.289  1.6015  0.6108 -1.9013
  135SAPE  C31714687   2.866   2.913   8.180  0.7400  0.5702 -0.1495
  135SAPE  H17X14688   2.766   2.865   8.183 -0.6595  3.2766 -0.0197
  135SAPE  H17Y14689   2.945   2.836   8.190  0.4506 -0.0254 -2.1183
  135SAPE  C31814690   2.881   2.987   8.041  0.4071  1.2098 -0.1017
  135SAPE  H18X14691   2.964   3.060   8.050  1.0788  0.3489  1.0237
  135SAPE  H18Y14692   2.784   3.036   8.018 -0.4366 -0.5636 -0.4798
  135SAPE  H18Z14693   2.916   2.919   7.961 -0.6311 -0.4948  0.8092
  136SAPE     N14694   6.361   4.901  10.648 -0.2476 -0.5754 -0.4827
  136SAPE   HN114695   6.279   4.947  10.694  1.1604 -0.8780  2.5575
  136SAPE   HN214696   6.343   4.873  10.549  1.4949 -1.2710 -0.6310
  136SAPE   HN314697   6.394   4.826  10.712 -1.2215 -1.2872 -0.7775
  136SAPE   C1214698   6.472   5.000  10.669 -0.0620  0.2294  0.5260
  136SAPE  H12A14699   6.498   5.017  10.776 -0.9464  1.2082  0.6065
  136SAPE  H12B14700   6.431   5.097  10.634  1.8635  0.3675 -1.5927
  136SAPE   C1114701   6.588   4.949  10.580  0.3038  0.2857 -0.4045
  136SAPE  H11A14702   6.674   5.017  10.601 -0.4239  0.5870  1.7834
  136SAPE  H11B14703   6.557   4.974  10.476 -1.0891  0.3829  0.0222
  136SAPE     P14704   6.754   4.766  10.663  0.1319  0.4129 -0.0177
  136SAPE   O1314705   6.781   4.861  10.768  0.0670 -0.3883  0.0933
  136SAPE   O1414706   6.746   4.620  10.694 -0.6717 -0.2763 -0.6427
  136SAPE   O1214707   6.620   4.808  10.596  0.6777  0.3776  1.2670
  136SAPE   O1114708   6.864   4.782  10.545 -0.5046  0.1371 -0.5204
  136SAPE    C114709   6.881   4.681  10.448 -0.5788  0.2426  0.5345
  136SAPE    HA14710   6.887   4.578  10.491  0.3859  0.4831  1.0158
  136SAPE    HB14711   6.803   4.681  10.369  0.8857 -2.0827 -1.0509
  136SAPE    C214712   7.028   4.685  10.395 -0.5405 -0.6490  0.1970
  136SAPE    HS14713   7.097   4.688  10.483 -1.2778  0.2669  0.7669
  136SAPE   O2114714   7.032   4.805  10.313  0.3208 -0.4360 -0.4437
  136SAPE   C2114715   7.147   4.857  10.290  0.1609 -0.0924  0.1358
  136SAPE   O2214716   7.253   4.823  10.337 -0.2266 -0.0429 -0.3368
  136SAPE   C2214717   7.119   4.975  10.202  0.2471  0.3133  0.1488
  136SAPE   H2R14718   7.037   4.946  10.133  1.7482  1.3976 -2.2419
  136SAPE   H2S14719   7.079   5.060  10.262  1.0493  2.1341 -1.7602
  136SAPE    C314720   7.077   4.564  10.314  0.7504  0.2023  0.0174
  136SAPE    HX14721   7.047   4.470  10.365 -1.6649 -0.9179 -3.1618
  136SAPE    HY14722   7.188   4.564  10.310  0.9917 -1.8217  3.1441
  136SAPE   O3114723   7.026   4.568  10.176  0.3067 -0.1138 -0.5578
  136SAPE   C3114724   6.921   4.494  10.148 -0.1123  0.0299 -0.1091
  136SAPE   O3214725   6.863   4.418  10.227  0.2285 -0.7133  0.3890
  136SAPE   C3214726   6.868   4.518  10.007 -0.4488 -0.5501  1.2595
  136SAPE   H2X14727   6.765   4.561  10.007 -0.4700 -0.3988 -1.6259
  136SAPE   H2Y14728   6.848   4.420   9.960 -0.7194  0.2610 -0.3961
  136SAPE   C2314729   7.249   5.021  10.135 -0.7987  0.2293 -0.4274
  136SAPE   H3R14730   7.331   5.027  10.211 -3.2760  0.4357  2.4182
  136SAPE   H3S14731   7.233   5.129  10.111  1.3669  1.0312  1.2899
  136SAPE   C2414732   7.281   4.934  10.007  0.1734 -1.0678  0.0059
  136SAPE   H4R14733   7.179   4.894   9.988 -0.6746  0.9384  0.1316
  136SAPE   H4S14734   7.355   4.856  10.033  2.2638  1.2659  1.5561
  136SAPE   C2514735   7.333   5.034   9.906  1.0138 -0.4324 -0.5465
  136SAPE   H5R14736   7.421   5.093   9.935 -0.0688  1.5905 -1.1881
  136SAPE   C2614737   7.272   5.069   9.784  0.5522 -0.3590  0.1229
  136SAPE   H6R14738   7.309   5.149   9.717 -1.2823  1.9523  1.7284
  136SAPE   C2714739   7.140   5.018   9.732 -0.0856 -0.5555 -0.1732
  136SAPE   H7R14740   7.088   4.949   9.803 -0.3634  1.6159  1.8664
  136SAPE   H7S14741   7.158   4.954   9.644  3.2359 -0.2437  0.1489
  136SAPE   C2814742   7.030   5.122   9.707 -0.0567  0.6842 -0.4324
  136SAPE   H8R14743   6.985   5.158   9.800 -0.5986 -4.1827  1.4810
  136SAPE   C2914744   6.973   5.165   9.585  0.0173 -0.1306 -0.0042
  136SAPE   H9R14745   6.893   5.241   9.586  1.7678  1.9296 -2.3093
  136SAPE  C21014746   7.017   5.125   9.443  0.6332 -0.1766 -0.5797
  136SAPE  H10R14747   7.085   5.038   9.452  2.0783  0.6511 -2.6768
  136SAPE  H10S14748   7.089   5.202   9.409 -1.4287  2.5910  0.8762
  136SAPE  C21114749   6.905   5.095   9.348 -0.8096 -0.1862 -0.5563
  136SAPE  H11R14750   6.805   5.099   9.393 -1.6759  2.3450 -2.5295
  136SAPE  C21214751   6.898   5.064   9.218 -0.9314 -0.6475  0.7062
  136SAPE  H12R14752   6.798   5.050   9.175  0.4897 -2.4127 -2.4081
  136SAPE  C21314753   7.027   5.047   9.130 -0.2763  0.7960 -0.1242
  136SAPE  H13R14754   7.036   4.942   9.093  0.1536  0.7558  0.0886
  136SAPE  H13S14755   7.121   5.072   9.184  0.2803 -2.4893  0.6760
  136SAPE  C21414756   7.004   5.140   9.016  0.2248 -0.3747 -0.8768
  136SAPE  H14R14757   6.969   5.241   9.042  0.1744 -0.8132  0.8852
  136SAPE  C21514758   7.015   5.102   8.887  0.6559 -0.5580  0.2084
  136SAPE  H15R14759   6.992   5.181   8.815  1.0193 -0.1288  0.5570
  136SAPE  C21614760   7.029   4.969   8.823 -0.0384  0.4098 -0.2549
  136SAPE  H16R14761   6.933   4.960   8.767  0.1437  0.5779 -0.5973
  136SAPE  H16S14762   7.012   4.891   8.900 -1.9631  1.1813  0.1565
  136SAPE  C21714763   7.161   4.943   8.743  0.2138  0.0078  0.7535
  136SAPE  H17R14764   7.247   4.934   8.813 -0.1222  1.4285  1.3854
  136SAPE  H17S14765   7.187   5.014   8.660 -0.4010 -1.3833 -0.6816
  136SAPE  C21814766   7.146   4.810   8.663 -0.4967  0.1239 -0.5554
  136SAPE  H18R14767   7.044   4.827   8.624 -0.4039  4.0324  0.4577
  136SAPE  H18S14768   7.150   4.737   8.746  5.0552  1.8063  1.1112
  136SAPE  C21914769   7.243   4.780   8.545 -0.2925 -0.6009 -0.0833
  136SAPE  H19R14770   7.232   4.869   8.479  0.9464 -0.9645 -0.8037
  136SAPE  H19S14771   7.216   4.685   8.494  1.6083  0.1312 -2.6068
  136SAPE  C22014772   7.392   4.753   8.575  0.6895 -0.2037 -0.4330
  136SAPE  H20R14773   7.438   4.707   8.485  1.5207 -0.3286  0.0444
  136SAPE  H20S14774   7.413   4.687   8.661 -1.7741 -0.4754  0.0312
  136SAPE  H20T14775   7.422   4.856   8.606 -3.6454  1.6738 -1.6966
  136SAPE   C3314776   6.963   4.595   9.913  0.2697 -0.4549 -0.1645
  136SAPE   H3X14777   7.062   4.545   9.913  0.5364  0.0664 -0.3059
  136SAPE   H3Y14778   6.983   4.699   9.948  1.5722  0.4029 -3.1669
  136SAPE   C3414779   6.910   4.600   9.766 -0.2030  0.4607 -0.1065
  136SAPE   H4X14780   6.804   4.634   9.764 -1.5473 -3.2217  0.4646
  136SAPE   H4Y14781   6.886   4.494   9.744  1.0127  0.2890 -0.6439
  136SAPE   C3514782   7.010   4.653   9.672 -0.2414 -0.9486  0.6170
  136SAPE   H5X14783   7.113   4.621   9.701  0.9495  2.7587  1.0089
  136SAPE   H5Y14784   7.010   4.763   9.682 -1.3221 -0.8611 -0.2235
  136SAPE   C3614785   6.989   4.628   9.522  0.0425 -0.3410 -0.1351
  136SAPE   H6X14786   7.010   4.519   9.515  2.1109 -0.1272  1.4504
  136SAPE   H6Y14787   7.060   4.679   9.454 -1.5616  0.2077 -1.4516
  136SAPE   C3714788   6.850   4.658   9.474  0.4674 -0.1527  0.4084
  136SAPE   H7X14789   6.838   4.769   9.472  1.7013 -0.0093 -0.1373
  136SAPE   H7Y14790   6.773   4.626   9.548  0.4776  1.0035  0.9437
  136SAPE   C3814791   6.819   4.604   9.336 -0.2550 -0.0389  0.3059
  136SAPE   H8X14792   6.709   4.606   9.317 -0.3598 -1.8104  0.5685
  136SAPE   H8Y14793   6.851   4.499   9.317 -1.5980 -0.4883  0.4663
  136SAPE   C3914794   6.869   4.693   9.219 -0.0195 -0.4848  1.5200
  136SAPE   H9X14795   6.979   4.708   9.220  0.0968 -1.0312 -0.0502
  136SAPE   H9Y14796   6.821   4.793   9.220 -0.1355 -0.4682 -0.6104
  136SAPE  C31014797   6.826   4.634   9.084 -0.8357  0.8055 -0.2291
  136SAPE  H10X14798   6.816   4.723   9.018 -2.3888  0.1952 -0.8371
  136SAPE  H10Y14799   6.724   4.590   9.086 -1.7054  2.7348  1.5763
  136SAPE  C31114800   6.924   4.520   9.029 -0.3009  0.0148 -0.2819
  136SAPE  H11X14801   6.933   4.439   9.104  0.0700  1.1224  0.9125
  136SAPE  H11Y14802   7.021   4.574   9.030 -1.0743  1.4456 -0.4120
  136SAPE  C31214803   6.889   4.466   8.885  0.2256 -0.2714  0.3691
  136SAPE  H12X14804   6.861   4.555   8.826 -0.1065  0.5257  1.6878
  136SAPE  H12Y14805   6.809   4.389   8.896  0.9811 -1.0526  0.5261
  136SAPE  C31314806   7.004   4.393   8.818 -0.4032  0.4198  0.4227
  136SAPE  H13X14807   7.040   4.313   8.886 -1.4373 -1.2374 -0.8728
  136SAPE  H13Y14808   7.072   4.477   8.792 -0.8463  0.8022  0.4920
  136SAPE  C31414809   6.970   4.324   8.685 -0.7480 -0.1946  0.0053
  136SAPE  H14X14810   6.880   4.260   8.696 -0.5710 -0.6844 -1.1807
  136SAPE  H14Y14811   7.059   4.266   8.655  0.5005  0.7749  1.6307
  136SAPE  C31514812   6.930   4.423   8.574 -0.0691  1.0176  0.5973
  136SAPE  H15X14813   7.014   4.496   8.567  0.5362  0.1713 -2.2028
  136SAPE  H15Y14814   6.840   4.480   8.607 -0.3569  2.0369 -1.7555
  136SAPE  C31614815   6.921   4.355   8.438 -0.5015 -0.3418 -0.0228
  136SAPE  H16X14816   6.993   4.272   8.423  0.7197  0.6089  0.3969
  136SAPE  H16Y14817   6.948   4.428   8.358 -0.5590  0.2446  0.4872
  136SAPE  C31714818   6.776   4.307   8.416 -1.0447  0.3095  0.0941
  136SAPE  H17X14819   6.721   4.386   8.472 -0.6604  0.6927 -0.0642
  136SAPE  H17Y14820   6.740   4.222   8.478  0.1499  1.1142  1.9771
  136SAPE  C31814821   6.732   4.290   8.269 -0.9497  0.9583 -0.6602
  136SAPE  H18X14822   6.774   4.190   8.245 -1.1526  0.5320  0.6881
  136SAPE  H18Y14823   6.769   4.369   8.201 -2.8438  3.5809  1.1551
  136SAPE  H18Z14824   6.622   4.297   8.255 -1.9055 -0.0944  4.4175
  137SAPE     N14825   4.735   6.845  10.827  0.4820 -0.1544  0.1929
  137SAPE   HN114826   4.823   6.851  10.771  1.4218 -0.4394  1.5861
  137SAPE   HN214827   4.739   6.900  10.915  1.4896  0.4865 -0.2360
  137SAPE   HN314828   4.722   6.742  10.840 -1.2874 -0.0863 -0.8442
  137SAPE   C1214829   4.627   6.903  10.741 -0.3908  0.1209  0.0626
  137SAPE  H12A14830   4.527   6.882  10.785 -0.9350  0.0502 -1.1616
  137SAPE  H12B14831   4.636   6.830  10.658  0.9452  2.8187 -2.3222
  137SAPE   C1114832   4.642   7.055  10.709 -0.1809  1.1129 -0.9132
  137SAPE  H11A14833   4.566   7.079  10.632  0.8587  3.9268 -1.1867
  137SAPE  H11B14834   4.744   7.079  10.671  0.6574 -1.2132 -0.3018
  137SAPE     P14835   4.601   7.293  10.842 -0.2708 -0.3047  0.4227
  137SAPE   O1314836   4.494   7.311  10.941  0.6464 -0.7465  0.3888
  137SAPE   O1414837   4.721   7.375  10.871 -0.0517 -0.2978  0.3306
  137SAPE   O1214838   4.623   7.140  10.821  0.1379  0.6166  0.3074
  137SAPE   O1114839   4.533   7.332  10.705  0.2994 -0.7489  0.3191
  137SAPE    C114840   4.611   7.412  10.613  0.9660  0.2240 -0.1600
  137SAPE    HA14841   4.642   7.507  10.661 -1.9314  0.4713  1.3857
  137SAPE    HB14842   4.701   7.356  10.577  0.9132 -0.6904  1.0494
  137SAPE    C214843   4.525   7.457  10.492  0.4674  0.0286  0.3731
  137SAPE    HS14844   4.431   7.496  10.537 -0.6439  0.6995 -2.3230
  137SAPE   O2114845   4.512   7.349  10.399 -0.0184  0.2330  0.1050
  137SAPE   C2114846   4.399   7.340  10.329 -0.4655  0.8079  0.5358
  137SAPE   O2214847   4.297   7.404  10.347 -0.4648 -0.4492 -0.2953
  137SAPE   C2214848   4.414   7.239  10.213 -0.2790 -0.2707 -0.1965
  137SAPE   H2R14849   4.512   7.192  10.236 -1.3584 -2.7721 -0.4932
  137SAPE   H2S14850   4.341   7.156  10.216 -2.1924  1.2967 -1.0381
  137SAPE    C314851   4.578   7.584  10.419 -0.2070  0.1342 -0.1912
  137SAPE    HX14852   4.687   7.571  10.400 -0.5815 -3.6779 -0.3685
  137SAPE    HY14853   4.589   7.667  10.493  0.3256 -0.2092  0.1183
  137SAPE   O3114854   4.522   7.624  10.296  0.6502 -0.7991  0.2952
  137SAPE   C3114855   4.429   7.718  10.297  0.2659  0.1305 -0.4549
  137SAPE   O3214856   4.397   7.788  10.393  0.5747 -0.1827  0.2720
  137SAPE   C3214857   4.356   7.697  10.166 -0.1262  0.6084 -0.9607
  137SAPE   H2X14858   4.286   7.784  10.162 -1.0989 -0.1596 -0.9582
  137SAPE   H2Y14859   4.296   7.605  10.180  0.5452  0.4643  1.5650
  137SAPE   C2314860   4.443   7.302  10.076  0.4902 -0.1950  0.4219
  137SAPE   H3R14861   4.525   7.376  10.088 -1.7858  2.3424  1.6641
  137SAPE   H3S14862   4.356   7.354  10.029 -0.4460 -0.2621  2.0201
  137SAPE   C2414863   4.479   7.198   9.980  0.2303 -0.2675 -0.3284
  137SAPE   H4R14864   4.553   7.130  10.028 -0.8301 -0.9351  0.4207
  137SAPE   H4S14865   4.531   7.246   9.894 -0.7753  1.1215 -0.1955
  137SAPE   C2514866   4.377   7.105   9.933 -0.2580  0.0641  0.0784
  137SAPE   H5R14867   4.341   7.034  10.008  0.8684  0.8444  1.4118
  137SAPE   C2614868   4.323   7.096   9.808  0.0194 -0.2472 -0.0467
  137SAPE   H6R14869   4.256   7.011   9.787  0.5046 -1.1321  1.7679
  137SAPE   C2714870   4.363   7.196   9.701  0.3558 -0.6971 -0.5705
  137SAPE   H7R14871   4.456   7.159   9.653  0.0148 -0.0298 -1.7670
  137SAPE   H7S14872   4.380   7.286   9.763  0.1652 -1.2301  0.2700
  137SAPE   C2814873   4.252   7.221   9.602  0.3472  0.0659 -0.0839
  137SAPE   H8R14874   4.153   7.199   9.646  0.8189 -2.0554 -0.0130
  137SAPE   C2914875   4.266   7.239   9.469 -0.0073  0.6218 -0.1897
  137SAPE   H9R14876   4.177   7.242   9.405 -1.1817  0.2057  1.3529
  137SAPE  C21014877   4.393   7.259   9.397 -0.3123  0.3573 -0.5690
  137SAPE  H10R14878   4.452   7.175   9.440 -1.9631  0.3810  1.9692
  137SAPE  H10S14879   4.447   7.345   9.441 -0.4411 -0.1446  0.6208
  137SAPE  C21114880   4.397   7.262   9.242  0.1542  0.2684  0.7556
  137SAPE  H11R14881   4.394   7.160   9.203 -0.6298  0.8895 -0.8973
  137SAPE  C21214882   4.393   7.367   9.156 -0.2444  0.3904  0.4562
  137SAPE  H12R14883   4.409   7.345   9.050 -0.2672  1.4977  0.2186
  137SAPE  C21314884   4.394   7.507   9.198  0.0528  0.1764 -0.1979
  137SAPE  H13R14885   4.488   7.564   9.185 -0.8465  1.3862 -1.6949
  137SAPE  H13S14886   4.363   7.517   9.305 -0.8953  0.8426 -0.5132
  137SAPE  C21414887   4.285   7.582   9.136  0.6893 -0.4832  0.7884
  137SAPE  H14R14888   4.201   7.615   9.199 -0.8322  0.4606 -1.5891
  137SAPE  C21514889   4.272   7.628   9.007  0.5762  0.5083  0.1167
  137SAPE  H15R14890   4.186   7.686   8.970  2.0200  2.7375  0.0778
  137SAPE  C21614891   4.380   7.607   8.902 -0.2068 -0.1145  0.2181
  137SAPE  H16R14892   4.461   7.559   8.960 -1.2370 -0.6943  1.2283
  137SAPE  H16S14893   4.417   7.701   8.855  0.8444 -0.1083  1.0303
  137SAPE  C21714894   4.341   7.517   8.784  0.3328 -0.2555 -0.2181
  137SAPE  H17R14895   4.242   7.546   8.744  0.2084 -0.5568 -0.1279
  137SAPE  H17S14896   4.323   7.415   8.824  2.1229 -0.6541 -0.3517
  137SAPE  C21814897   4.451   7.494   8.677  0.2528 -0.6087  0.0738
  137SAPE  H18R14898   4.469   7.582   8.612 -1.1819  0.4388  1.0551
  137SAPE  H18S14899   4.416   7.417   8.605  3.4461 -1.8006 -0.3772
  137SAPE  C21914900   4.584   7.445   8.730  0.2064 -0.7183  0.5309
  137SAPE  H19R14901   4.554   7.359   8.794  1.5409  0.7295  3.2983
  137SAPE  H19S14902   4.631   7.516   8.802 -0.9670 -0.4198  1.0216
  137SAPE  C22014903   4.676   7.375   8.633 -0.7745 -0.0071 -0.7551
  137SAPE  H20R14904   4.698   7.441   8.547 -2.1480  1.9278  0.2934
  137SAPE  H20S14905   4.626   7.284   8.593  0.3373 -0.6238 -0.7977
  137SAPE  H20T14906   4.773   7.341   8.677 -0.1515  0.2295 -1.9083
  137SAPE   C3314907   4.439   7.707  10.043  0.0929  0.0668  0.2125
  137SAPE   H3X14908   4.529   7.643  10.051 -0.0474 -0.0591  0.8519
  137SAPE   H3Y14909   4.462   7.814  10.020  1.0617  0.1241  1.3559
  137SAPE   C3414910   4.359   7.641   9.937  0.1235  0.7960 -0.0439
  137SAPE   H4X14911   4.269   7.702   9.918 -0.8577 -0.5230  0.1951
  137SAPE   H4Y14912   4.312   7.544   9.966 -2.9402  1.8067 -1.2506
  137SAPE   C3514913   4.424   7.618   9.792  0.0586 -0.3748  0.2108
  137SAPE   H5X14914   4.369   7.536   9.740  1.5308 -1.2373 -0.0285
  137SAPE   H5Y14915   4.526   7.581   9.812  0.1490  0.5814  1.6762
  137SAPE   C3614916   4.430   7.753   9.724 -0.7804  0.1012  0.1266
  137SAPE   H6X14917   4.505   7.823   9.765  0.8778 -0.5461 -1.6451
  137SAPE   H6Y14918   4.328   7.797   9.729 -1.1702 -0.3583 -2.2505
  137SAPE   C3714919   4.475   7.734   9.582 -0.8538 -0.0367  0.0835
  137SAPE   H7X14920   4.413   7.661   9.527  0.0465 -1.0082  0.3196
  137SAPE   H7Y14921   4.573   7.681   9.579 -1.5231 -1.3305 -3.0804
  137SAPE   C3814922   4.465   7.860   9.497  0.1531  0.1870 -0.3451
  137SAPE   H8X14923   4.529   7.941   9.539  0.2744  0.5930 -1.2957
  137SAPE   H8Y14924   4.359   7.891   9.512 -0.0781 -0.9855  0.6014
  137SAPE   C3914925   4.495   7.847   9.348 -0.3701 -0.0008 -0.1531
  137SAPE   H9X14926   4.433   7.766   9.303 -2.7697  0.8836  1.3688
  137SAPE   H9Y14927   4.603   7.822   9.346 -0.3733 -0.1839  1.1704
  137SAPE  C31014928   4.465   7.977   9.273  0.2917  0.9110  0.0474
  137SAPE  H10X14929   4.558   8.037   9.268 -0.2255  1.7201 -0.0009
  137SAPE  H10Y14930   4.391   8.039   9.328  0.4901  1.3206 -0.1429
  137SAPE  C31114931   4.420   7.956   9.128 -0.3461  0.1792 -0.9992
  137SAPE  H11X14932   4.327   7.895   9.126 -0.9895  1.1313 -0.8960
  137SAPE  H11Y14933   4.499   7.899   9.076 -1.1031 -1.2804 -0.5954
  137SAPE  C31214934   4.390   8.089   9.060 -1.4035  0.1736  0.5763
  137SAPE  H12X14935   4.329   8.160   9.120 -1.3817  0.3262  0.4176
  137SAPE  H12Y14936   4.323   8.064   8.975  0.4102 -0.4180 -0.7271
  137SAPE  C31314937   4.517   8.162   9.000 -0.4221 -0.3377 -0.3730
  137SAPE  H13X14938   4.587   8.084   8.963 -1.7068 -1.7125 -0.0070
  137SAPE  H13Y14939   4.570   8.206   9.087 -1.8865 -1.5749  1.2100
  137SAPE  C31414940   4.468   8.267   8.901 -0.0304 -0.5355 -0.2966
  137SAPE  H14X14941   4.409   8.345   8.953 -1.4895 -1.8802  0.1475
  137SAPE  H14Y14942   4.406   8.222   8.820  1.2388  0.9248 -2.1544
  137SAPE  C31514943   4.584   8.340   8.839 -0.1175  0.7006  0.4426
  137SAPE  H15X14944   4.653   8.263   8.798 -1.6377 -1.4263  1.6742
  137SAPE  H15Y14945   4.636   8.396   8.920 -0.0718  0.3659  0.6462
  137SAPE  C31614946   4.536   8.443   8.740  0.3455 -0.7481 -0.4032
  137SAPE  H16X14947   4.636   8.477   8.706  0.1093  0.2588 -0.1314
  137SAPE  H16Y14948   4.474   8.523   8.787  0.5113  0.5238 -2.2244
  137SAPE  C31714949   4.466   8.390   8.614  0.4714  0.1755  0.1494
  137SAPE  H17X14950   4.418   8.460   8.543  1.5576 -2.1339 -3.0842
  137SAPE  H17Y14951   4.376   8.336   8.650  0.2163  0.3946 -0.1504
  137SAPE  C31814952   4.555   8.304   8.520  0.4280 -0.1295  0.2723
  137SAPE  H18X14953   4.480   8.247   8.461  1.1230 -1.3797  0.5704
  137SAPE  H18Y14954   4.614   8.224   8.569  1.9382  0.8376  0.1134
  137SAPE  H18Z14955   4.628   8.353   8.452 -0.1824 -2.4032 -2.1841
  138SAPE     N14956   1.736   0.438  10.333  0.3046 -0.1955 -0.6350
  138SAPE   HN114957   1.724   0.384  10.421 -1.5401  2.2069  0.7117
  138SAPE   HN214958   1.649   0.487  10.304  0.3657 -0.2047 -0.8315
  138SAPE   HN314959   1.758   0.358  10.270 -0.4654 -1.1886  0.3047
  138SAPE   C1214960   1.848   0.542  10.352  0.0560 -0.3057 -0.3688
  138SAPE  H12A14961   1.877   0.584  10.253 -0.3647  0.0572 -0.3409
  138SAPE  H12B14962   1.930   0.477  10.391 -0.5113 -2.2821 -2.2774
  138SAPE   C1114963   1.820   0.659  10.456 -0.0446 -0.4181  0.3952
  138SAPE  H11A14964   1.914   0.717  10.469  0.4026 -1.4371  1.8957
  138SAPE  H11B14965   1.812   0.604  10.552  2.7226 -2.0137 -0.1762
  138SAPE     P14966   1.627   0.798  10.562 -0.4646 -0.3048 -0.0202
  138SAPE   O1314967   1.517   0.704  10.591 -0.0633 -0.0644  0.6097
  138SAPE   O1414968   1.721   0.827  10.669 -0.3145 -0.3149 -0.1884
  138SAPE   O1214969   1.705   0.748  10.431 -0.0875  0.2548  0.1240
  138SAPE   O1114970   1.564   0.941  10.514 -0.3379 -0.0911  0.1707
  138SAPE    C114971   1.576   0.982  10.376 -0.3106  0.1764 -0.0826
  138SAPE    HA14972   1.555   1.091  10.364 -1.5071  0.0006  0.2688
  138SAPE    HB14973   1.678   0.971  10.334 -0.0223  2.4159 -0.0966
  138SAPE    C214974   1.465   0.908  10.290  0.4033  0.9667 -0.5791
  138SAPE    HS14975   1.432   0.814  10.339 -1.8476  2.3780  0.7578
  138SAPE   O2114976   1.508   0.895  10.158  0.4308 -0.0931 -0.5101
  138SAPE   C2114977   1.438   0.815  10.078  0.8232 -0.4414  0.3163
  138SAPE   O2214978   1.349   0.739  10.107 -0.0470 -0.2372  0.4396
  138SAPE   C2214979   1.505   0.822   9.944  0.3296  0.2992 -0.9302
  138SAPE   H2R14980   1.582   0.903   9.941  1.2067 -0.4372  0.7259
  138SAPE   H2S14981   1.552   0.723   9.925 -0.6349 -0.1432 -1.0576
  138SAPE    C314982   1.336   0.997  10.275 -0.5160  0.1815 -0.3968
  138SAPE    HX14983   1.316   1.038  10.377  0.4282 -1.8461  0.6463
  138SAPE    HY14984   1.252   0.927  10.254  1.6993 -2.0818 -2.3081
  138SAPE   O3114985   1.354   1.108  10.185 -0.2308  0.1264 -0.8694
  138SAPE   C3114986   1.241   1.194  10.194 -0.0039  0.9147  0.6647
  138SAPE   O3214987   1.151   1.170  10.273 -0.1592 -0.1644 -0.0425
  138SAPE   C3214988   1.264   1.313  10.098  0.3831 -0.0060  0.0935
  138SAPE   H2X14989   1.368   1.351  10.099  0.4341 -0.0829 -0.9564
  138SAPE   H2Y14990   1.191   1.391  10.129  0.3039 -0.4723  1.1252
  138SAPE   C2314991   1.410   0.850   9.829  0.3356  0.9781 -0.4685
  138SAPE   H3R14992   1.356   0.946   9.843  0.0642  0.6684  0.7015
  138SAPE   H3S14993   1.328   0.775   9.820  0.1190  1.2891 -1.1857
  138SAPE   C2414994   1.478   0.855   9.694 -0.2342 -0.1791  0.9374
  138SAPE   H4R14995   1.534   0.760   9.683  0.0206  0.1975 -1.4734
  138SAPE   H4S14996   1.544   0.943   9.700 -1.7928  1.0223  1.1526
  138SAPE   C2514997   1.375   0.872   9.579  0.6469 -0.4143 -0.5538
  138SAPE   H5R14998   1.281   0.818   9.599  0.2081  0.3973 -0.4149
  138SAPE   C2614999   1.394   0.939   9.463  1.0319  0.4160 -0.0013
  138SAPE   H6R15000   1.311   0.956   9.392 -0.6534 -0.4474  1.6906
  138SAPE   C2715001   1.522   1.009   9.420  0.8011 -0.0856 -0.2813
  138SAPE   H7R15002   1.580   1.038   9.510  0.5800 -1.0248  0.1717
  138SAPE   H7S15003   1.501   1.111   9.380  3.1149  0.3389 -0.5832
  138SAPE   C2815004   1.622   0.946   9.322  0.4988 -0.2860  0.4421
  138SAPE   H8R15005   1.718   0.906   9.359 -0.1899 -2.5828 -0.1308
  138SAPE   C2915006   1.590   0.929   9.187  0.1136  0.1152 -0.2313
  138SAPE   H9R15007   1.661   0.869   9.129 -1.3200 -0.9361 -0.9570
  138SAPE  C21015008   1.458   0.962   9.112  0.1642  0.3890 -0.5372
  138SAPE  H10R15009   1.449   1.069   9.082 -0.8528 -0.3176 -2.9728
  138SAPE  H10S15010   1.374   0.943   9.183  0.2107 -0.0400 -0.5959
  138SAPE  C21115011   1.452   0.879   8.986  0.4454 -0.3742  0.1372
  138SAPE  H11R15012   1.460   0.770   9.004  1.4819 -0.0916  1.6403
  138SAPE  C21215013   1.438   0.914   8.859  0.1412  0.0252  0.1840
  138SAPE  H12R15014   1.428   0.836   8.782 -3.2089 -0.8632  1.3489
  138SAPE  C21315015   1.432   1.058   8.806  0.5876  0.0864 -0.0947
  138SAPE  H13R15016   1.497   1.064   8.716 -0.6500  1.9519 -0.9292
  138SAPE  H13S15017   1.493   1.118   8.877  1.4333  1.5950 -1.9968
  138SAPE  C21415018   1.299   1.131   8.791  0.0710  0.1911 -0.1880
  138SAPE  H14R15019   1.216   1.109   8.859  0.2404 -0.6627 -0.2497
  138SAPE  C21515020   1.291   1.232   8.705  0.9451  0.3654  0.1648
  138SAPE  H15R15021   1.197   1.287   8.692 -0.4175 -1.9628 -0.2733
  138SAPE  C21615022   1.396   1.280   8.609  0.3854 -0.0543  0.2018
  138SAPE  H16R15023   1.481   1.210   8.595 -1.0081 -1.4464 -1.6798
  138SAPE  H16S15024   1.448   1.373   8.641  2.4817  0.0085 -2.9595
  138SAPE  C21715025   1.352   1.269   8.459  0.0595 -0.0915  0.4332
  138SAPE  H17R15026   1.253   1.318   8.442 -0.1271 -0.3978  0.6244
  138SAPE  H17S15027   1.330   1.166   8.424  0.1097 -0.3557  1.1579
  138SAPE  C21815028   1.461   1.329   8.362 -0.6034 -0.4255 -0.3232
  138SAPE  H18R15029   1.516   1.413   8.408  1.4995 -1.9170  0.0271
  138SAPE  H18S15030   1.406   1.377   8.278 -2.6208  0.6035  1.4858
  138SAPE  C21915031   1.568   1.226   8.329  0.2424 -0.5499  0.0261
  138SAPE  H19R15032   1.527   1.135   8.281  2.4184 -1.9579  0.7191
  138SAPE  H19S15033   1.624   1.184   8.415 -1.4322  1.3694  2.2124
  138SAPE  C22015034   1.677   1.275   8.237  0.4520 -0.3099 -0.3436
  138SAPE  H20R15035   1.760   1.201   8.227  1.7611  0.7831  1.7717
  138SAPE  H20S15036   1.725   1.371   8.267 -1.8099  0.8485 -0.2589
  138SAPE  H20T15037   1.639   1.294   8.134  0.0994  1.2800  0.0537
  138SAPE   C3315038   1.226   1.262   9.959  0.5948  0.5807 -0.0724
  138SAPE   H3X15039   1.116   1.246   9.952  0.6780 -1.0320  1.5141
  138SAPE   H3Y15040   1.271   1.164   9.931 -0.4107 -0.2786  1.1998
  138SAPE   C3415041   1.260   1.366   9.850 -0.9333  0.3374 -0.3185
  138SAPE   H4X15042   1.364   1.403   9.864 -0.8206  0.3309 -1.0897
  138SAPE   H4Y15043   1.205   1.461   9.866  1.1083  1.4079  0.7701
  138SAPE   C3515044   1.244   1.309   9.709  0.2714 -0.0363 -0.2634
  138SAPE   H5X15045   1.137   1.282   9.699  0.8050 -1.3699 -3.8604
  138SAPE   H5Y15046   1.311   1.221   9.699 -0.3027 -0.5630  0.3762
  138SAPE   C3615047   1.264   1.391   9.587 -0.3729 -0.4116  0.7589
  138SAPE   H6X15048   1.373   1.415   9.586 -0.6597  1.0201 -0.5704
  138SAPE   H6Y15049   1.215   1.491   9.590  1.4767  0.7148 -2.0007
  138SAPE   C3715050   1.218   1.319   9.462  0.9168  0.0558 -0.6673
  138SAPE   H7X15051   1.109   1.302   9.477  1.4266 -1.7723  1.4968
  138SAPE   H7Y15052   1.259   1.216   9.458  1.4648  0.2898 -3.5191
  138SAPE   C3815053   1.252   1.386   9.330  0.4318 -1.0814 -0.3588
  138SAPE   H8X15054   1.363   1.382   9.326  0.5347  0.5438  0.0858
  138SAPE   H8Y15055   1.220   1.492   9.339  3.1642 -0.0973 -1.2303
  138SAPE   C3915056   1.183   1.312   9.213 -0.4383 -0.3361  0.0224
  138SAPE   H9X15057   1.073   1.317   9.228 -0.5304  0.6167 -0.8896
  138SAPE   H9Y15058   1.214   1.206   9.227  0.4482  0.1400  1.9286
  138SAPE  C31015059   1.227   1.367   9.077  0.0804 -0.3855 -0.0527
  138SAPE  H10X15060   1.162   1.312   9.006 -0.2239  0.5461 -0.5162
  138SAPE  H10Y15061   1.327   1.327   9.048 -0.8004 -0.9163 -2.5204
  138SAPE  C31115062   1.211   1.515   9.053 -0.1180 -0.2784  0.8767
  138SAPE  H11X15063   1.254   1.574   9.136  0.5816  0.7881 -0.2311
  138SAPE  H11Y15064   1.102   1.537   9.049 -0.1952 -0.3263  2.1371
  138SAPE  C31215065   1.259   1.566   8.917  0.6632  0.1168 -0.0579
  138SAPE  H12X15066   1.197   1.508   8.846 -2.8316  0.1919  2.6485
  138SAPE  H12Y15067   1.362   1.533   8.892  0.6998  0.5005 -0.4439
  138SAPE  C31315068   1.238   1.717   8.892  0.5906  0.7051 -0.2819
  138SAPE  H13X15069   1.297   1.769   8.971 -2.7636 -0.3525  3.2524
  138SAPE  H13Y15070   1.130   1.740   8.906  0.3753 -1.2513  1.7492
  138SAPE  C31415071   1.284   1.769   8.760 -0.3051 -0.1647  0.9965
  138SAPE  H14X15072   1.382   1.722   8.736 -0.7842 -0.5080 -0.3683
  138SAPE  H14Y15073   1.298   1.879   8.763 -0.5829 -0.0980 -0.0350
  138SAPE  C31515074   1.183   1.733   8.647  0.1589  0.7463 -0.1424
  138SAPE  H15X15075   1.099   1.805   8.654  0.4721  1.0538  0.4996
  138SAPE  H15Y15076   1.141   1.631   8.656  0.8935  0.5922  2.2097
  138SAPE  C31615077   1.253   1.734   8.515  0.0841 -0.4822  0.2396
  138SAPE  H16X15078   1.347   1.679   8.534  0.8125  0.4166 -0.6483
  138SAPE  H16Y15079   1.261   1.842   8.488  0.8329 -0.7388 -0.5785
  138SAPE  C31715080   1.187   1.648   8.404  0.8103  0.2472 -0.3218
  138SAPE  H17X15081   1.083   1.688   8.396  0.4015 -0.9040 -1.0251
  138SAPE  H17Y15082   1.180   1.547   8.448 -0.8884  1.2075  1.7906
  138SAPE  C31815083   1.266   1.649   8.273  0.0910 -0.0457 -0.4878
  138SAPE  H18X15084   1.209   1.597   8.193  0.4960 -0.5151 -0.4785
  138SAPE  H18Y15085   1.365   1.601   8.288 -1.0265 -2.5630 -0.5929
  138SAPE  H18Z15086   1.288   1.754   8.244  0.6093 -0.1809 -0.5801
  139SAPE     N15087   1.460   0.240  10.851  0.4266 -0.1665 -0.4135
  139SAPE   HN115088   1.370   0.188  10.844  0.4444 -0.6310  1.9474
  139SAPE   HN215089   1.496   0.203  10.941  1.2666 -1.8409 -1.3717
  139SAPE   HN315090   1.452   0.343  10.859 -2.5219 -0.4127  1.0847
  139SAPE   C1215091   1.559   0.187  10.744 -0.1918 -0.9098  0.4159
  139SAPE  H12A15092   1.621   0.119  10.805 -0.7448 -1.3404  0.5096
  139SAPE  H12B15093   1.625   0.266  10.703  1.1987 -2.6060 -0.7019
  139SAPE   C1115094   1.479   0.111  10.632 -0.4093  0.6537  0.0053
  139SAPE  H11A15095   1.551   0.053  10.571  0.7266  2.1034 -0.1180
  139SAPE  H11B15096   1.430   0.189  10.570  0.0017  0.3920 -0.6544
  139SAPE     P15097   1.265  -0.034  10.605  0.1432 -0.1347 -0.0754
  139SAPE   O1315098   1.232  -0.167  10.661 -0.1966  0.0203  0.0860
  139SAPE   O1415099   1.161   0.069  10.580  0.0890 -0.3780  0.2031
  139SAPE   O1215100   1.382   0.019  10.688  0.7561 -0.8040 -0.1748
  139SAPE   O1115101   1.337  -0.060  10.466  0.3538 -0.2500  0.7089
  139SAPE    C115102   1.256  -0.097  10.353 -0.0597 -0.6392  0.1824
  139SAPE    HA15103   1.250  -0.208  10.364  1.0160 -0.8085 -0.7912
  139SAPE    HB15104   1.155  -0.050  10.354 -0.2383 -0.9737 -0.8970
  139SAPE    C215105   1.331  -0.057  10.220  0.6423 -1.2299 -0.9411
  139SAPE    HS15106   1.247  -0.053  10.147 -0.5166  1.2480  0.4140
  139SAPE   O2115107   1.435  -0.150  10.187 -0.4570  0.3044 -0.2264
  139SAPE   C2115108   1.397  -0.270  10.164  0.0232  0.4436 -0.2257
  139SAPE   O2215109   1.284  -0.312  10.149  0.4289 -0.4721  0.3876
  139SAPE   C2215110   1.521  -0.364  10.142  0.6798 -0.2444 -0.4552
  139SAPE   H2R15111   1.617  -0.313  10.162  1.0006 -0.2086 -1.9708
  139SAPE   H2S15112   1.510  -0.439  10.223  0.8082  0.8223  0.5835
  139SAPE    C315113   1.389   0.092  10.233  0.0034 -0.4714 -0.5412
  139SAPE    HX15114   1.476   0.084  10.301 -0.5603  0.7648  0.3657
  139SAPE    HY15115   1.317   0.166  10.274  0.1889  2.1347 -4.3705
  139SAPE   O3115116   1.432   0.132  10.107  0.4283 -0.1796 -0.0688
  139SAPE   C3115117   1.525   0.225  10.093  0.0266 -0.0184  0.4337
  139SAPE   O3215118   1.590   0.287  10.179 -0.1463  0.8078 -0.2592
  139SAPE   C3215119   1.530   0.242   9.939  0.1493 -0.2457 -0.3868
  139SAPE   H2X15120   1.429   0.246   9.893  0.4625  1.1789 -1.0205
  139SAPE   H2Y15121   1.577   0.150   9.898  0.5397 -0.0629 -0.3540
  139SAPE   C2315122   1.533  -0.431  10.005 -0.2119  0.3718  1.0083
  139SAPE   H3R15123   1.516  -0.355   9.926 -2.9654 -1.4708 -0.3832
  139SAPE   H3S15124   1.453  -0.504   9.980  1.4256 -1.0268 -0.3842
  139SAPE   C2415125   1.672  -0.504   9.970  0.5147  0.3789 -0.0569
  139SAPE   H4R15126   1.704  -0.569  10.054  1.9137 -0.2980 -1.0725
  139SAPE   H4S15127   1.758  -0.433   9.973  0.0897  0.8821  1.8284
  139SAPE   C2515128   1.656  -0.594   9.850 -0.5920  0.2519  0.0164
  139SAPE   H5R15129   1.639  -0.700   9.876  0.0704  0.1659  0.1289
  139SAPE   C2615130   1.678  -0.551   9.729 -1.0547 -0.9207 -0.3687
  139SAPE   H6R15131   1.658  -0.624   9.650  0.5862  0.8637 -2.5770
  139SAPE   C2715132   1.720  -0.403   9.687 -0.2518 -0.3723  0.0803
  139SAPE   H7R15133   1.758  -0.347   9.775  2.6707 -2.1695  0.1168
  139SAPE   H7S15134   1.627  -0.353   9.653  0.0366 -1.2561 -2.1989
  139SAPE   C2815135   1.834  -0.403   9.582  0.2758 -0.3165  0.1653
  139SAPE   H8R15136   1.935  -0.383   9.621  0.4246  2.0978 -1.3047
  139SAPE   C2915137   1.822  -0.403   9.449  0.0973 -0.2765  0.1574
  139SAPE   H9R15138   1.911  -0.416   9.386  0.9929 -1.0203  1.5470
  139SAPE  C21015139   1.693  -0.411   9.373 -0.0472  0.7761  0.3248
  139SAPE  H10R15140   1.678  -0.306   9.338 -1.7411 -0.3810 -2.8034
  139SAPE  H10S15141   1.613  -0.443   9.444  1.8705 -0.5491  2.0255
  139SAPE  C21115142   1.697  -0.512   9.256 -0.0485 -0.6153  0.1624
  139SAPE  H11R15143   1.762  -0.601   9.264 -1.5191 -1.6009  1.7637
  139SAPE  C21215144   1.649  -0.503   9.131 -0.2758 -0.1512 -0.1679
  139SAPE  H12R15145   1.650  -0.590   9.064 -1.7579 -0.5542  0.3092
  139SAPE  C21315146   1.558  -0.388   9.087 -0.0223 -0.0234  0.2698
  139SAPE  H13R15147   1.611  -0.309   9.030 -1.9868  1.2319  0.0951
  139SAPE  H13S15148   1.537  -0.322   9.174  1.7517 -0.3072  0.9534
  139SAPE  C21415149   1.441  -0.433   9.008 -0.2109  0.4267 -0.4454
  139SAPE  H14R15150   1.441  -0.540   8.985  0.4809  0.8709 -2.7854
  139SAPE  C21515151   1.334  -0.363   8.963 -0.0614 -0.1377  0.0481
  139SAPE  H15R15152   1.258  -0.423   8.912  0.6755  0.8259 -2.3173
  139SAPE  C21615153   1.310  -0.219   8.998 -0.0407  0.7542  0.7307
  139SAPE  H16R15154   1.262  -0.159   8.918 -0.4680 -1.3082 -0.6610
  139SAPE  H16S15155   1.406  -0.172   9.029 -0.1659 -1.0414  4.3970
  139SAPE  C21715156   1.237  -0.213   9.138  0.0533  0.1903  0.1698
  139SAPE  H17R15157   1.303  -0.255   9.216 -1.3106  0.7656  1.6853
  139SAPE  H17S15158   1.143  -0.271   9.148 -0.2028  0.8957  2.2745
  139SAPE  C21815159   1.205  -0.069   9.165  0.7764  0.2867  0.2579
  139SAPE  H18R15160   1.289  -0.007   9.128  0.2575  0.0761 -1.3653
  139SAPE  H18S15161   1.182  -0.062   9.273  1.7204  1.1913  0.4112
  139SAPE  C21915162   1.072  -0.028   9.088 -0.3552 -0.2009  0.4507
  139SAPE  H19R15163   0.991  -0.097   9.121  1.7980 -2.2962  1.6781
  139SAPE  H19S15164   1.080  -0.037   8.978 -0.9792 -0.2834  0.4069
  139SAPE  C22015165   1.024   0.113   9.128 -0.7314 -0.4760  0.7459
  139SAPE  H20R15166   0.999   0.106   9.236 -1.2191  0.6499  0.7184
  139SAPE  H20S15167   0.928   0.144   9.083 -0.0641  2.6497  1.2287
  139SAPE  H20T15168   1.088   0.201   9.105  0.9974 -2.0042 -0.5447
  139SAPE   C3315169   1.627   0.356   9.910  0.4937 -0.7298 -0.3678
  139SAPE   H3X15170   1.726   0.341   9.957 -0.3415  1.1596  2.2291
  139SAPE   H3Y15171   1.595   0.456   9.948  1.0700 -0.9303  0.6784
  139SAPE   C3415172   1.647   0.381   9.757 -0.1986 -0.2733 -0.1663
  139SAPE   H4X15173   1.548   0.413   9.720  0.4541  2.5803  0.2783
  139SAPE   H4Y15174   1.683   0.285   9.714  0.2980 -0.2617  0.2009
  139SAPE   C3515175   1.740   0.496   9.712 -0.4085 -0.4142 -0.3849
  139SAPE   H5X15176   1.842   0.454   9.722  0.0346  0.9941  1.2807
  139SAPE   H5Y15177   1.722   0.572   9.791  3.1307  0.2888 -0.1091
  139SAPE   C3615178   1.713   0.562   9.574  0.4854  0.1628 -0.1429
  139SAPE   H6X15179   1.784   0.647   9.563  2.1025 -1.0007  0.8493
  139SAPE   H6Y15180   1.609   0.602   9.569  0.2222 -0.6403 -1.3577
  139SAPE   C3715181   1.736   0.459   9.463 -0.0753 -0.4495  0.1686
  139SAPE   H7X15182   1.671   0.370   9.477  2.2072 -2.5112 -1.5826
  139SAPE   H7Y15183   1.835   0.411   9.469 -0.0232 -0.1831  2.4375
  139SAPE   C3815184   1.709   0.522   9.321 -0.4026  0.9548  0.0136
  139SAPE   H8X15185   1.790   0.593   9.295  1.2353  0.0829  2.3714
  139SAPE   H8Y15186   1.606   0.562   9.319 -0.0109  2.0604  0.9552
  139SAPE   C3915187   1.714   0.429   9.199 -0.4540  0.3366  0.2876
  139SAPE   H9X15188   1.637   0.352   9.220  0.7404 -1.2874 -0.9526
  139SAPE   H9Y15189   1.814   0.381   9.200 -0.7890 -0.4736 -1.3610
  139SAPE  C31015190   1.702   0.506   9.066  0.6044  0.6413  0.0755
  139SAPE  H10X15191   1.792   0.571   9.060  0.8375  0.2506 -0.8441
  139SAPE  H10Y15192   1.614   0.571   9.083  0.2594  0.6181 -1.4531
  139SAPE  C31115193   1.694   0.417   8.952 -0.2202  0.1838 -0.0452
  139SAPE  H11X15194   1.619   0.336   8.964  0.1707 -0.1304  0.3012
  139SAPE  H11Y15195   1.790   0.362   8.947  0.2975  1.0656  0.1378
  139SAPE  C31215196   1.657   0.483   8.815 -1.0056 -0.0664 -0.4571
  139SAPE  H12X15197   1.656   0.403   8.737 -0.4898  0.7825 -1.3618
  139SAPE  H12Y15198   1.739   0.557   8.810 -1.2141  0.1285 -1.3358
  139SAPE  C31315199   1.533   0.562   8.813 -0.1120  0.1511  0.3445
  139SAPE  H13X15200   1.555   0.671   8.810 -0.4157  0.2169 -2.4445
  139SAPE  H13Y15201   1.466   0.544   8.900 -0.6918 -1.3884 -0.3694
  139SAPE  C31415202   1.447   0.538   8.685  0.1715 -0.0304  0.3637
  139SAPE  H14X15203   1.496   0.563   8.589 -0.9597 -0.9891 -0.4816
  139SAPE  H14Y15204   1.370   0.619   8.693  0.5261  0.5748 -1.7121
  139SAPE  C31515205   1.365   0.408   8.676  0.0469 -0.1874  0.0121
  139SAPE  H15X15206   1.334   0.383   8.779 -2.8792  0.7108 -0.5569
  139SAPE  H15Y15207   1.428   0.328   8.630 -0.0961 -1.0253  1.2239
  139SAPE  C31615208   1.235   0.419   8.596  0.0034  0.1804  0.4115
  139SAPE  H16X15209   1.171   0.503   8.632 -0.5594  0.0457 -0.2336
  139SAPE  H16Y15210   1.266   0.442   8.492 -0.9638  0.5343  0.1875
  139SAPE  C31715211   1.158   0.289   8.598  0.2949 -0.7302  0.2602
  139SAPE  H17X15212   1.229   0.209   8.567 -0.2355 -0.3522 -2.1450
  139SAPE  H17Y15213   1.074   0.279   8.526  2.3687 -3.1948 -2.0586
  139SAPE  C31815214   1.108   0.253   8.739 -0.3653 -0.3867 -0.3768
  139SAPE  H18X15215   1.024   0.321   8.767 -0.9466 -0.0000 -2.7909
  139SAPE  H18Y15216   1.191   0.268   8.811  0.5600  2.4510 -1.8636
  139SAPE  H18Z15217   1.070   0.149   8.742  1.3844 -1.0741 -0.9620
  140SAPE     N15218   0.962   1.953  11.107 -0.2654 -0.5935  0.2864
  140SAPE   HN115219   0.950   1.867  11.164  1.4477 -0.6906  0.5403
  140SAPE   HN215220   1.038   2.009  11.151 -0.6912 -0.4204  0.8129
  140SAPE   HN315221   0.871   2.005  11.111  0.3801  0.5112  1.8964
  140SAPE   C1215222   1.019   1.931  10.970 -0.0935 -0.2119  0.9327
  140SAPE  H12A15223   0.981   2.005  10.897  0.7075 -1.0972 -0.4342
  140SAPE  H12B15224   1.002   1.827  10.935 -0.6219  0.5106 -1.1584
  140SAPE   C1115225   1.171   1.950  10.967  0.2932  1.3003  0.2136
  140SAPE  H11A15226   1.200   2.035  11.032 -0.7712  1.7167  0.1647
  140SAPE  H11B15227   1.203   1.966  10.862 -0.9467  0.7980 -0.2565
  140SAPE     P15228   1.383   1.795  10.997  0.0233 -0.0846  0.1836
  140SAPE   O1315229   1.469   1.886  11.078  0.0870 -0.1179 -0.4845
  140SAPE   O1415230   1.412   1.654  11.008  0.0257 -0.0585 -0.2656
  140SAPE   O1215231   1.231   1.829  11.024 -0.5809 -0.8098  0.2764
  140SAPE   O1115232   1.394   1.841  10.848 -0.0188  0.1944 -0.4360
  140SAPE    C115233   1.382   1.741  10.746 -0.0907  0.0716  0.1090
  140SAPE    HA15234   1.447   1.651  10.757  0.8804  0.4319 -2.0835
  140SAPE    HB15235   1.276   1.709  10.736 -0.3487  1.3165 -1.5871
  140SAPE    C215236   1.457   1.797  10.614  0.0194 -0.2244 -0.2627
  140SAPE    HS15237   1.564   1.804  10.643 -0.3323  2.8624  0.7228
  140SAPE   O2115238   1.387   1.918  10.580  0.2890  0.6086  0.1088
  140SAPE   C2115239   1.460   2.016  10.527  0.3721  0.1347 -0.2665
  140SAPE   O2215240   1.581   2.021  10.530  0.3014  0.3085 -0.8930
  140SAPE   C2215241   1.368   2.114  10.460 -0.2976 -0.0885 -0.4293
  140SAPE   H2R15242   1.267   2.099  10.504  0.0834 -0.3028  0.3880
  140SAPE   H2S15243   1.396   2.215  10.495 -2.0301  0.3448 -0.1856
  140SAPE    C315244   1.439   1.696  10.501 -0.2685 -0.1011 -0.3823
  140SAPE    HX15245   1.333   1.667  10.482 -0.2328  0.8914 -2.4193
  140SAPE    HY15246   1.491   1.601  10.526 -1.3464 -0.8578 -0.9353
  140SAPE   O3115247   1.496   1.745  10.370 -0.2727  0.2664 -0.7673
  140SAPE   C3115248   1.483   1.648  10.277  0.5050  0.1578  1.2437
  140SAPE   O3215249   1.449   1.534  10.292 -0.1426  0.7981  0.2750
  140SAPE   C3215250   1.534   1.714  10.144 -0.3720 -0.1409  0.2836
  140SAPE   H2X15251   1.644   1.721  10.155 -0.3363  2.1826 -0.9261
  140SAPE   H2Y15252   1.491   1.814  10.124 -0.4073 -0.5220 -1.7530
  140SAPE   C2315253   1.383   2.105  10.310  0.9713  0.3057 -0.5998
  140SAPE   H3R15254   1.370   2.002  10.270 -0.4460 -0.3031  1.3110
  140SAPE   H3S15255   1.491   2.127  10.295  1.1535  0.5014  0.9152
  140SAPE   C2415256   1.295   2.205  10.234  0.3694  0.3956 -0.6329
  140SAPE   H4R15257   1.336   2.202  10.131  1.9382 -0.8688 -0.0163
  140SAPE   H4S15258   1.331   2.304  10.269 -1.8420  0.4507  1.8112
  140SAPE   C2515259   1.149   2.193  10.256  0.6803  0.0793 -0.1821
  140SAPE   H5R15260   1.124   2.155  10.356 -1.0857 -1.9905 -1.3094
  140SAPE   C2615261   1.046   2.215  10.170 -0.3650 -0.0128 -0.1584
  140SAPE   H6R15262   0.940   2.195  10.193 -0.0872 -1.8147 -0.2889
  140SAPE   C2715263   1.071   2.246  10.024  0.1715 -0.4768 -0.4256
  140SAPE   H7R15264   1.009   2.179   9.960  1.7132  0.2642 -2.8337
  140SAPE   H7S15265   1.165   2.197   9.991  0.1327 -0.7159 -0.1836
  140SAPE   C2815266   1.059   2.395   9.992  0.6703 -0.2950  0.7876
  140SAPE   H8R15267   1.044   2.458  10.082 -2.3473 -0.7424  0.6994
  140SAPE   C2915268   1.040   2.427   9.861  0.6728 -0.2716  0.7168
  140SAPE   H9R15269   1.026   2.533   9.838  1.9546 -0.7062 -2.6902
  140SAPE  C21015270   1.036   2.344   9.730  0.3215 -0.8271  0.1163
  140SAPE  H10R15271   0.951   2.381   9.668 -1.4476  0.0413  2.8949
  140SAPE  H10S15272   1.003   2.240   9.747  0.2977 -0.8575 -0.1076
  140SAPE  C21115273   1.165   2.341   9.659  0.1786  0.5804  0.2910
  140SAPE  H11R15274   1.224   2.252   9.685 -0.2777 -0.8905 -3.1488
  140SAPE  C21215275   1.206   2.437   9.568 -1.0706 -0.4006  0.0093
  140SAPE  H12R15276   1.301   2.412   9.518  0.4164  1.6267  1.6229
  140SAPE  C21315277   1.132   2.562   9.524 -0.3542 -0.1282 -0.1975
  140SAPE  H13R15278   1.037   2.565   9.581  0.6932 -0.6589  1.7056
  140SAPE  H13S15279   1.102   2.563   9.417 -3.5480  1.3177  0.5946
  140SAPE  C21415280   1.213   2.690   9.566 -0.0285  0.0454  0.0009
  140SAPE  H14R15281   1.243   2.698   9.671  1.5168  0.5110 -0.4530
  140SAPE  C21515282   1.255   2.784   9.479 -0.4712  0.1522  0.5307
  140SAPE  H15R15283   1.314   2.871   9.511  0.3464 -1.1666  2.8012
  140SAPE  C21615284   1.230   2.780   9.334 -0.7742  0.2396  0.5659
  140SAPE  H16R15285   1.254   2.678   9.298 -1.4818 -0.0747  0.9750
  140SAPE  H16S15286   1.311   2.837   9.284 -2.3853  0.9138 -1.4546
  140SAPE  C21715287   1.094   2.825   9.272 -0.4442 -0.9231 -0.2211
  140SAPE  H17R15288   1.060   2.913   9.330 -0.9295 -2.7217  2.4185
  140SAPE  H17S15289   1.018   2.745   9.290 -0.1750 -1.1475 -0.0705
  140SAPE  C21815290   1.097   2.858   9.128 -0.2047  0.3898  0.4649
  140SAPE  H18R15291   1.097   2.771   9.058 -2.8036  1.0844 -0.5229
  140SAPE  H18S15292   1.193   2.911   9.111  1.0225 -1.9337 -0.4392
  140SAPE  C21915293   0.979   2.946   9.077 -0.1105 -0.5733  0.2903
  140SAPE  H19R15294   0.972   3.034   9.144 -0.5625 -0.3494 -0.0422
  140SAPE  H19S15295   0.880   2.894   9.074  0.0232 -0.8164  0.0128
  140SAPE  C22015296   1.007   2.993   8.936  0.0549  0.0950  0.0428
  140SAPE  H20R15297   1.013   2.917   8.855 -0.7619  1.6313 -1.5161
  140SAPE  H20S15298   1.095   3.060   8.928 -1.0719  1.4657 -1.7690
  140SAPE  H20T15299   0.932   3.065   8.899 -0.2574 -0.4955 -0.4913
  140SAPE   C3315300   1.500   1.631  10.017  0.5550  0.8156  0.0600
  140SAPE   H3X15301   1.389   1.631  10.008  0.6898  1.0200 -2.1243
  140SAPE   H3Y15302   1.531   1.527  10.040  3.9919  1.4412 -1.1247
  140SAPE   C3415303   1.564   1.692   9.890 -0.6770  0.1869 -0.2990
  140SAPE   H4X15304   1.667   1.650   9.902  0.0258  1.5571 -1.2846
  140SAPE   H4Y15305   1.579   1.801   9.907 -0.2497  0.1306 -0.2902
  140SAPE   C3515306   1.485   1.682   9.763  1.1090  0.0424 -0.4382
  140SAPE   H5X15307   1.378   1.711   9.766  0.6645 -1.5875  0.1069
  140SAPE   H5Y15308   1.483   1.577   9.727  1.8299  0.0917 -0.6430
  140SAPE   C3615309   1.540   1.763   9.645  0.1150 -0.7561  1.4206
  140SAPE   H6X15310   1.651   1.765   9.655  0.2859  3.4825  0.4442
  140SAPE   H6Y15311   1.485   1.858   9.630 -1.4828 -1.5262  2.1683
  140SAPE   C3715312   1.511   1.687   9.504 -0.7692 -0.0300 -0.0967
  140SAPE   H7X15313   1.400   1.676   9.500 -0.9466  1.7576 -1.0816
  140SAPE   H7Y15314   1.555   1.586   9.511  1.3090  0.7756 -0.8885
  140SAPE   C3815315   1.575   1.754   9.383 -0.3124  0.6216  0.2726
  140SAPE   H8X15316   1.686   1.756   9.386 -0.3156  0.3990  0.5306
  140SAPE   H8Y15317   1.541   1.859   9.368  0.9352  0.6182 -4.2303
  140SAPE   C3915318   1.526   1.681   9.252 -1.0122  0.4452  0.5499
  140SAPE   H9X15319   1.422   1.646   9.272 -0.9227 -1.1808 -1.4937
  140SAPE   H9Y15320   1.593   1.594   9.235  1.6965  2.6817 -0.9756
  140SAPE  C31015321   1.533   1.766   9.124  0.3993  0.5502  0.3085
  140SAPE  H10X15322   1.474   1.860   9.129 -0.6628  0.0352 -1.8249
  140SAPE  H10Y15323   1.501   1.719   9.029 -0.7905 -0.4910  1.1890
  140SAPE  C31115324   1.672   1.809   9.096 -0.0456  0.0097 -0.1839
  140SAPE  H11X15325   1.739   1.722   9.112 -1.2209 -1.0306 -0.7923
  140SAPE  H11Y15326   1.709   1.886   9.167 -0.5104 -1.0121  1.2074
  140SAPE  C31215327   1.699   1.859   8.953  0.1603 -0.5718 -0.3925
  140SAPE  H12X15328   1.685   1.770   8.888  2.3821 -2.7503  1.8963
  140SAPE  H12Y15329   1.807   1.886   8.944  0.3729 -1.2367  0.1046
  140SAPE  C31315330   1.611   1.979   8.922  0.4447 -0.1945 -0.2466
  140SAPE  H13X15331   1.632   2.067   8.986 -0.7495  1.6338 -2.2368
  140SAPE  H13Y15332   1.503   1.957   8.938 -0.1662  1.8531 -1.1103
  140SAPE  C31415333   1.634   2.026   8.777  0.2321  0.1941 -0.1213
  140SAPE  H14X15334   1.633   1.930   8.721 -0.4605  0.3057 -0.3150
  140SAPE  H14Y15335   1.735   2.070   8.768  0.4583 -0.4534 -0.8650
  140SAPE  C31515336   1.537   2.140   8.734  0.1056  1.1137  0.1800
  140SAPE  H15X15337   1.555   2.235   8.790  2.0929  1.3164 -0.7005
  140SAPE  H15Y15338   1.436   2.114   8.772 -0.5080  3.8416  0.6444
  140SAPE  C31615339   1.541   2.159   8.588  0.6757 -1.2546 -0.0056
  140SAPE  H16X15340   1.647   2.146   8.561  1.3480  1.5466  0.9608
  140SAPE  H16Y15341   1.494   2.258   8.565 -0.7844 -2.7623 -4.5672
  140SAPE  C31715342   1.458   2.047   8.521  0.3112  0.6970  0.1011
  140SAPE  H17X15343   1.365   2.026   8.578  0.6873  3.1690  1.8217
  140SAPE  H17Y15344   1.516   1.953   8.515 -2.0131 -0.7956 -0.2414
  140SAPE  C31815345   1.414   2.080   8.380  0.9699  0.0636 -0.4587
  140SAPE  H18X15346   1.359   1.996   8.333 -0.5648  0.7646 -0.0054
  140SAPE  H18Y15347   1.500   2.118   8.322 -0.3331  1.6511 -1.4218
  140SAPE  H18Z15348   1.342   2.164   8.392 -0.8683 -1.3519 -0.9748
  141SAPE     N15349   3.488   2.583  11.061 -0.2848  0.5112  0.0212
  141SAPE   HN115350   3.560   2.595  11.135  0.6921  0.4690 -0.8835
  141SAPE   HN215351   3.517   2.624  10.970 -3.8081 -1.1411 -2.0646
  141SAPE   HN315352   3.398   2.626  11.088 -1.7284 -1.7785 -0.8304
  141SAPE   C1215353   3.466   2.434  11.048 -0.5133  0.3768  0.5182
  141SAPE  H12A15354   3.372   2.427  10.989 -0.9850  2.4934  0.9220
  141SAPE  H12B15355   3.444   2.395  11.149 -3.5776 -2.0252 -0.9203
  141SAPE   C1115356   3.582   2.356  10.976  0.2191  0.4222  0.5403
  141SAPE  H11A15357   3.560   2.248  10.988  0.7837  0.4700  2.2228
  141SAPE  H11B15358   3.678   2.383  11.025  0.5872  1.3738 -0.6697
  141SAPE     P15359   3.501   2.329  10.726  0.1613  0.0700 -0.5208
  141SAPE   O1315360   3.521   2.183  10.729  0.2905  0.4785 -0.0290
  141SAPE   O1415361   3.363   2.379  10.745  0.4901 -0.2812 -0.2062
  141SAPE   O1215362   3.588   2.389  10.839  0.0498 -0.1890  0.1881
  141SAPE   O1115363   3.573   2.389  10.598  0.0572  0.3578  0.1259
  141SAPE    C115364   3.595   2.526  10.582  0.2135  0.7882 -0.0310
  141SAPE    HA15365   3.628   2.567  10.679  1.1855  1.2825 -0.5646
  141SAPE    HB15366   3.677   2.536  10.508  1.4820  0.2708  1.2499
  141SAPE    C215367   3.474   2.602  10.526 -0.5335  0.1818  0.3524
  141SAPE    HS15368   3.389   2.581  10.594  2.0339 -0.0035  3.8103
  141SAPE   O2115369   3.457   2.550  10.393  0.0434  0.0814 -0.1984
  141SAPE   C2115370   3.351   2.589  10.325 -0.2824 -0.0686 -0.3214
  141SAPE   O2215371   3.261   2.658  10.370  0.0524 -0.0115 -0.5187
  141SAPE   C2215372   3.372   2.532  10.190  0.5388  0.5645  0.3340
  141SAPE   H2R15373   3.456   2.459  10.192  0.1853  0.0503  4.1120
  141SAPE   H2S15374   3.279   2.480  10.159  1.0061 -1.0109  1.4136
  141SAPE    C315375   3.502   2.762  10.526  0.1110 -0.9528 -0.3355
  141SAPE    HX15376   3.525   2.782  10.633 -1.6438 -4.7329  0.9251
  141SAPE    HY15377   3.413   2.814  10.486  0.0434 -0.0496  0.9417
  141SAPE   O3115378   3.617   2.797  10.449 -0.0025  0.0639 -0.7231
  141SAPE   C3115379   3.631   2.929  10.435 -0.0524  0.7448  0.7479
  141SAPE   O3215380   3.574   3.015  10.499 -0.0718  0.0919  0.6469
  141SAPE   C3215381   3.704   2.955  10.306 -0.2066  0.5594 -0.4257
  141SAPE   H2X15382   3.620   2.951  10.233 -0.8569  0.8347  0.2934
  141SAPE   H2Y15383   3.780   2.880  10.275  0.7954  0.6228  1.6891
  141SAPE   C2315384   3.416   2.643  10.088 -0.0965 -0.3027 -0.0028
  141SAPE   H3R15385   3.449   2.579  10.004 -0.6957 -0.5711 -0.0375
  141SAPE   H3S15386   3.502   2.704  10.124 -1.8737  1.0448  2.2027
  141SAPE   C2415387   3.296   2.736  10.047 -0.3438  0.3167 -0.3930
  141SAPE   H4R15388   3.315   2.822  10.114  0.6391 -0.6258  0.5975
  141SAPE   H4S15389   3.197   2.694  10.076 -0.0944 -0.1840 -0.2478
  141SAPE   C2515390   3.288   2.788   9.902  0.0107 -0.5030 -0.3216
  141SAPE   H5R15391   3.344   2.882   9.891  0.1115 -0.1712  2.4430
  141SAPE   C2615392   3.240   2.715   9.801  0.3775 -0.2644  1.3109
  141SAPE   H6R15393   3.235   2.752   9.697 -0.8735 -1.7122  0.8209
  141SAPE   C2715394   3.189   2.578   9.807 -0.1795 -0.2207  0.0746
  141SAPE   H7R15395   3.214   2.523   9.900  0.6418 -1.6839 -0.9732
  141SAPE   H7S15396   3.251   2.534   9.726  0.2655  1.9297 -0.8239
  141SAPE   C2815397   3.037   2.580   9.776 -0.6626  0.7323  0.7885
  141SAPE   H8R15398   2.978   2.619   9.860 -0.0341 -0.6922  1.9329
  141SAPE   C2915399   2.969   2.527   9.666 -0.2088 -0.2280  0.0613
  141SAPE   H9R15400   2.860   2.538   9.669 -0.3971 -1.8917  0.3642
  141SAPE  C21015401   3.015   2.469   9.537 -0.1325 -0.2031 -0.4198
  141SAPE  H10R15402   2.972   2.366   9.538 -0.3733 -0.1003 -0.0530
  141SAPE  H10S15403   3.124   2.449   9.547  0.0948  0.9779 -0.4088
  141SAPE  C21115404   2.985   2.535   9.405  0.3539  0.1495  0.1649
  141SAPE  H11R15405   2.897   2.601   9.402 -1.5914 -2.2670  0.8011
  141SAPE  C21215406   3.044   2.515   9.288 -0.4153  0.3908  0.9494
  141SAPE  H12R15407   3.007   2.573   9.202  1.5890  1.3631  0.6745
  141SAPE  C21315408   3.163   2.425   9.270  0.0149  0.0653  0.2764
  141SAPE  H13R15409   3.194   2.384   9.369 -3.6368  0.1642  1.6202
  141SAPE  H13S15410   3.250   2.481   9.230 -0.0299 -0.5188 -0.6581
  141SAPE  C21415411   3.135   2.308   9.172  0.3603 -0.8084 -0.1251
  141SAPE  H14R15412   3.078   2.222   9.211  2.6831 -1.5405  1.8896
  141SAPE  C21515413   3.157   2.308   9.035 -0.0777 -0.2749 -0.3639
  141SAPE  H15R15414   3.144   2.212   8.982  1.7173 -0.7345 -0.0631
  141SAPE  C21615415   3.226   2.427   8.960 -0.2701 -0.0437  0.3865
  141SAPE  H16R15416   3.315   2.392   8.905 -0.6545  1.5104 -1.3515
  141SAPE  H16S15417   3.251   2.511   9.029 -0.1444 -1.2542  1.8500
  141SAPE  C21715418   3.126   2.484   8.852  0.4452 -0.4591  0.2810
  141SAPE  H17R15419   3.167   2.585   8.830  0.4082 -0.3931  0.5085
  141SAPE  H17S15420   3.019   2.496   8.879 -0.1884 -0.1184 -2.1504
  141SAPE  C21815421   3.131   2.410   8.719  0.8434 -0.1960 -0.5507
  141SAPE  H18R15422   3.092   2.307   8.734  1.0326 -0.2526 -0.4429
  141SAPE  H18S15423   3.234   2.393   8.683  0.2070 -2.0841 -1.6369
  141SAPE  C21915424   3.044   2.488   8.618  0.1590 -0.5307  0.5404
  141SAPE  H19R15425   2.938   2.492   8.651 -0.0099  0.1962 -0.0607
  141SAPE  H19S15426   3.051   2.436   8.520  0.5177  1.1813 -0.3798
  141SAPE  C22015427   3.096   2.640   8.592  0.7360  0.2534  0.5305
  141SAPE  H20R15428   3.045   2.677   8.501  0.6515  0.1653  0.5424
  141SAPE  H20S15429   3.206   2.647   8.586  0.7562 -1.2999 -2.4487
  141SAPE  H20T15430   3.058   2.707   8.673  0.1548  1.5384 -0.7685
  141SAPE   C3315431   3.795   3.080  10.325  0.0397  0.6202 -0.5996
  141SAPE   H3X15432   3.858   3.071  10.416  1.6412  0.5518 -1.6695
  141SAPE   H3Y15433   3.727   3.168  10.332 -1.1681 -0.1808 -1.6641
  141SAPE   C3415434   3.901   3.103  10.217  0.0074  0.0971  0.1301
  141SAPE   H4X15435   3.982   3.028  10.230  0.1004  0.3734  1.2509
  141SAPE   H4Y15436   3.943   3.205  10.233  0.2417 -0.1677  1.3260
  141SAPE   C3515437   3.829   3.085  10.081 -0.6796  0.3783  0.3111
  141SAPE   H5X15438   3.740   3.149  10.069 -0.6047  0.4655  0.2184
  141SAPE   H5Y15439   3.791   2.980  10.076 -1.3250  0.6147  0.2131
  141SAPE   C3615440   3.914   3.119   9.954  0.2027  0.0302 -0.4308
  141SAPE   H6X15441   3.853   3.076   9.872  0.3712 -0.6178 -0.2208
  141SAPE   H6Y15442   4.011   3.065   9.959  0.6818  0.9714  1.7220
  141SAPE   C3715443   3.938   3.267   9.940  0.1123  0.4287 -0.2050
  141SAPE   H7X15444   3.999   3.300  10.027 -0.8391 -1.0574  1.0898
  141SAPE   H7Y15445   3.843   3.321   9.958 -0.5724 -1.2788  1.7202
  141SAPE   C3815446   4.001   3.318   9.801 -0.2463 -0.7683  0.3742
  141SAPE   H8X15447   4.102   3.276   9.785  1.0826  1.4313  2.3276
  141SAPE   H8Y15448   4.027   3.424   9.819  0.6092 -1.2853  2.4397
  141SAPE   C3915449   3.912   3.308   9.674 -0.5432 -0.2096  0.3631
  141SAPE   H9X15450   3.819   3.368   9.684 -0.1773  0.5145 -0.4423
  141SAPE   H9Y15451   3.884   3.202   9.659 -1.8846  0.4373 -2.6082
  141SAPE  C31015452   3.985   3.366   9.543  0.4341 -0.1294 -0.2781
  141SAPE  H10X15453   4.080   3.311   9.524  0.4596  0.1234 -0.9073
  141SAPE  H10Y15454   4.027   3.469   9.549 -1.0540  0.4585  0.4694
  141SAPE  C31115455   3.906   3.345   9.408  0.2250  0.0741 -0.4513
  141SAPE  H11X15456   3.850   3.250   9.424 -2.5232  1.4134 -1.5585
  141SAPE  H11Y15457   3.980   3.326   9.327  0.5740 -2.1686  0.3186
  141SAPE  C31215458   3.807   3.462   9.384 -0.2092 -0.1553 -0.3720
  141SAPE  H12X15459   3.863   3.553   9.353  1.0667 -0.9196 -0.4231
  141SAPE  H12Y15460   3.746   3.483   9.475 -1.0210 -3.4337 -0.0373
  141SAPE  C31315461   3.711   3.435   9.264  1.2185  1.0883 -0.3458
  141SAPE  H13X15462   3.662   3.533   9.247  0.1337  0.5756 -0.2006
  141SAPE  H13Y15463   3.630   3.367   9.297  2.6778 -0.6823 -0.2285
  141SAPE  C31415464   3.777   3.379   9.134 -0.2663 -0.4782 -0.0056
  141SAPE  H14X15465   3.816   3.279   9.161  1.0192  0.2183  0.8481
  141SAPE  H14Y15466   3.867   3.441   9.111  0.1581 -0.7831  0.7943
  141SAPE  C31515467   3.685   3.381   9.009 -0.4228 -0.2418  0.6007
  141SAPE  H15X15468   3.604   3.308   9.027 -1.1024  0.2638 -0.3107
  141SAPE  H15Y15469   3.748   3.347   8.924  0.7034 -0.4499  1.5017
  141SAPE  C31615470   3.618   3.519   8.978  0.0801 -0.3571 -0.1637
  141SAPE  H16X15471   3.692   3.600   8.993  0.3424 -0.4786 -0.7849
  141SAPE  H16Y15472   3.535   3.526   9.051  0.8349  0.3632  0.6512
  141SAPE  C31715473   3.557   3.525   8.837  0.4110 -0.9157 -0.2401
  141SAPE  H17X15474   3.510   3.428   8.812 -4.6523  1.8271 -3.0239
  141SAPE  H17Y15475   3.645   3.551   8.774  1.6597 -2.3648  0.8346
  141SAPE  C31815476   3.461   3.652   8.828 -0.7071  0.4201 -0.1967
  141SAPE  H18X15477   3.431   3.667   8.723 -2.1515 -0.3763  0.0731
  141SAPE  H18Y15478   3.516   3.745   8.853 -1.2559  0.3963  1.1838
  141SAPE  H18Z15479   3.364   3.649   8.883  0.0778  2.6354  1.4308
  142SAPE     N15480   4.893   3.090  10.651  0.3734 -0.2670  0.7553
  142SAPE   HN115481   4.895   3.010  10.717 -0.5690 -1.5285 -0.7050
  142SAPE   HN215482   4.923   3.063  10.555 -2.4161 -0.6253 -0.1014
  142SAPE   HN315483   4.950   3.172  10.683  0.7913 -0.0440 -0.5200
  142SAPE   C1215484   4.744   3.121  10.662 -0.4409 -0.0417 -0.6594
  142SAPE  H12A15485   4.729   3.210  10.597  1.1616 -0.1808 -1.2709
  142SAPE  H12B15486   4.724   3.156  10.766  0.9005  1.0906 -0.7634
  142SAPE   C1115487   4.668   2.988  10.641 -0.5220  0.7053 -0.2495
  142SAPE  H11A15488   4.704   2.928  10.554  0.8431  1.7215 -0.4141
  142SAPE  H11B15489   4.561   3.017  10.636 -0.5316  0.8945  0.8176
  142SAPE     P15490   4.594   2.858  10.856 -0.1817  0.2213  0.5857
  142SAPE   O1315491   4.657   2.760  10.947 -0.3572  0.1525  0.2414
  142SAPE   O1415492   4.530   2.980  10.917  0.4084  0.2601 -0.2972
  142SAPE   O1215493   4.702   2.908  10.753 -0.2690 -0.0631  0.2575
  142SAPE   O1115494   4.495   2.777  10.761 -0.9316  0.0939 -0.4845
  142SAPE    C115495   4.554   2.674  10.671 -0.1406  0.3729 -0.4710
  142SAPE    HA15496   4.655   2.699  10.632 -0.7133  0.7004 -1.8190
  142SAPE    HB15497   4.564   2.583  10.733 -2.0463  0.1402 -0.4490
  142SAPE    C215498   4.449   2.639  10.557  0.5057 -0.0384 -0.0633
  142SAPE    HS15499   4.499   2.576  10.480 -0.1870 -0.8714  0.1468
  142SAPE   O2115500   4.389   2.760  10.493 -0.3985  1.2314  0.7097
  142SAPE   C2115501   4.454   2.812  10.385 -0.3223  0.2154  0.1817
  142SAPE   O2215502   4.560   2.769  10.341  0.4474 -0.5737  0.7361
  142SAPE   C2215503   4.382   2.934  10.320 -0.0464 -0.9053  0.2144
  142SAPE   H2R15504   4.354   3.007  10.398  0.5210  1.6116 -1.8178
  142SAPE   H2S15505   4.452   2.984  10.250  1.2432  0.2340  2.2128
  142SAPE    C315506   4.331   2.554  10.613 -0.2473 -0.0697 -1.0901
  142SAPE    HX15507   4.284   2.614  10.694 -0.2127  0.3432 -1.3717
  142SAPE    HY15508   4.390   2.479  10.669  1.6603  1.5915 -0.7452
  142SAPE   O3115509   4.247   2.488  10.508  0.5588 -0.4916  0.1592
  142SAPE   C3115510   4.141   2.563  10.485  0.4462 -0.7118 -0.0186
  142SAPE   O3215511   4.092   2.650  10.558 -0.2880  0.7368  0.1729
  142SAPE   C3215512   4.072   2.532  10.358 -0.7161 -0.2079  0.2062
  142SAPE   H2X15513   4.069   2.422  10.343 -1.3588 -0.0304 -1.0764
  142SAPE   H2Y15514   4.123   2.571  10.267 -2.6884 -0.2658 -0.9739
  142SAPE   C2315515   4.261   2.898  10.230 -0.4118 -0.4636 -0.1339
  142SAPE   H3R15516   4.224   2.994  10.189 -2.7776 -0.2405  2.2296
  142SAPE   H3S15517   4.186   2.847  10.295 -0.1955  0.1295  0.5919
  142SAPE   C2415518   4.307   2.812  10.108 -0.3004  0.6440 -0.1158
  142SAPE   H4R15519   4.313   2.711  10.153 -3.0335  1.0532  1.4140
  142SAPE   H4S15520   4.400   2.858  10.068  1.3990 -3.4272 -1.3745
  142SAPE   C2515521   4.212   2.800   9.990 -0.8268 -0.6194  0.5362
  142SAPE   H5R15522   4.120   2.740   9.999 -0.6671 -1.0700 -0.6334
  142SAPE   C2615523   4.233   2.860   9.872 -0.0080 -0.6491  0.2326
  142SAPE   H6R15524   4.146   2.871   9.806 -1.8578 -2.0099  2.2751
  142SAPE   C2715525   4.343   2.952   9.830 -0.6169  0.3489 -0.7604
  142SAPE   H7R15526   4.425   2.890   9.788 -2.0147 -0.2345 -2.7754
  142SAPE   H7S15527   4.384   3.006   9.918  3.0313  0.0558 -2.0917
  142SAPE   C2815528   4.309   3.068   9.743  1.1065 -0.0167  0.5586
  142SAPE   H8R15529   4.269   3.152   9.802 -0.2877 -0.9584  0.9971
  142SAPE   C2915530   4.314   3.069   9.610 -0.4286 -0.6195  0.4018
  142SAPE   H9R15531   4.281   3.159   9.556  1.0099 -0.3246 -0.0326
  142SAPE  C21015532   4.360   2.954   9.526  0.7568  0.9094 -0.3856
  142SAPE  H10R15533   4.281   2.930   9.452 -0.4378  1.1548  0.7798
  142SAPE  H10S15534   4.376   2.857   9.579 -0.8980  0.2333 -1.0679
  142SAPE  C21115535   4.494   2.984   9.469 -0.2162 -0.0309 -0.0641
  142SAPE  H11R15536   4.578   2.955   9.533 -0.5765  0.4659  0.6484
  142SAPE  C21215537   4.523   3.031   9.345 -0.8866 -0.3109 -0.0373
  142SAPE  H12R15538   4.630   3.044   9.327 -0.4217 -1.1889  1.8979
  142SAPE  C21315539   4.432   3.075   9.236 -0.2298  0.4338 -0.2090
  142SAPE  H13R15540   4.350   3.128   9.289 -1.3276 -0.3908 -1.0300
  142SAPE  H13S15541   4.382   2.983   9.199 -0.5945 -0.4488  2.2448
  142SAPE  C21415542   4.489   3.146   9.122  0.0385  0.2488  0.2307
  142SAPE  H14R15543   4.488   3.254   9.138 -0.8656  0.1169  1.2058
  142SAPE  C21515544   4.558   3.099   9.017  0.0096 -0.1151  0.1331
  142SAPE  H15R15545   4.595   3.172   8.944  1.0883 -2.3529 -1.6439
  142SAPE  C21615546   4.592   2.950   9.001 -0.1715  0.0847 -0.2236
  142SAPE  H16R15547   4.574   2.923   8.895 -1.2284 -1.7492  0.3726
  142SAPE  H16S15548   4.543   2.886   9.078 -1.0288  0.3675 -0.5259
  142SAPE  C21715549   4.743   2.912   9.022  0.5337 -0.3986  0.0736
  142SAPE  H17R15550   4.774   2.941   9.124 -0.2398 -0.9016  0.4624
  142SAPE  H17S15551   4.804   2.976   8.955 -0.9544  2.1757  1.0489
  142SAPE  C21815552   4.754   2.759   9.005  0.0495 -0.5205 -0.8533
  142SAPE  H18R15553   4.681   2.703   9.067 -0.2779  1.1796  0.3617
  142SAPE  H18S15554   4.851   2.727   9.049 -1.0622 -0.0385  2.1829
  142SAPE  C21915555   4.746   2.714   8.857 -0.8035 -0.0229 -0.5287
  142SAPE  H19R15556   4.799   2.783   8.787 -1.2639  0.9554  0.0737
  142SAPE  H19S15557   4.641   2.717   8.821 -0.6214 -1.7869 -1.3365
  142SAPE  C22015558   4.797   2.566   8.835  0.2834  0.0325  0.2155
  142SAPE  H20R15559   4.732   2.494   8.888  1.3160 -0.1566  1.2544
  142SAPE  H20S15560   4.902   2.558   8.869  0.0835  1.9530  1.3878
  142SAPE  H20T15561   4.783   2.544   8.727 -0.4659  1.7619 -0.0674
  142SAPE   C3315562   3.945   2.616  10.365  0.6891 -0.0579  0.0805
  142SAPE   H3X15563   3.969   2.725  10.371  1.7977 -0.3661  1.7316
  142SAPE   H3Y15564   3.883   2.593  10.454  1.4572  3.5223  1.7267
  142SAPE   C3415565   3.854   2.586  10.242 -0.3031 -0.1855  0.2437
  142SAPE   H4X15566   3.750   2.609  10.273 -0.9464 -2.1129 -0.3369
  142SAPE   H4Y15567   3.852   2.479  10.211  1.0976  0.1351 -1.0656
  142SAPE   C3515568   3.901   2.673  10.122 -0.3356  0.5949 -0.6680
  142SAPE   H5X15569   3.976   2.612  10.068 -1.8320 -1.1850 -0.8380
  142SAPE   H5Y15570   3.947   2.769  10.154  2.4901 -0.6366 -0.7646
  142SAPE   C3615571   3.789   2.706  10.024 -0.3061 -0.3292 -0.4606
  142SAPE   H6X15572   3.717   2.777  10.070  2.1026  2.0508 -0.1360
  142SAPE   H6Y15573   3.731   2.614   9.999  0.8265 -1.0600 -0.4739
  142SAPE   C3715574   3.848   2.756   9.893 -0.5217  0.6412  1.0519
  142SAPE   H7X15575   3.911   2.677   9.846 -2.2264  0.8621 -1.8809
  142SAPE   H7Y15576   3.907   2.846   9.921  2.6035 -0.9976  0.2538
  142SAPE   C3815577   3.739   2.788   9.787  0.6321 -0.0280 -0.2132
  142SAPE   H8X15578   3.698   2.885   9.824  0.6592  0.0399 -0.3587
  142SAPE   H8Y15579   3.651   2.720   9.794 -0.7022  1.6975  0.5017
  142SAPE   C3915580   3.787   2.788   9.637  0.3997 -0.4462 -0.9715
  142SAPE   H9X15581   3.700   2.799   9.570  0.0702 -0.8139 -0.6045
  142SAPE   H9Y15582   3.832   2.689   9.610  0.4959 -0.4897 -0.6518
  142SAPE  C31015583   3.892   2.899   9.606 -0.1484 -0.4568 -0.2789
  142SAPE  H10X15584   3.978   2.881   9.675 -0.3930 -2.0960 -0.3548
  142SAPE  H10Y15585   3.851   3.001   9.623  2.2305  1.2242 -3.5358
  142SAPE  C31115586   3.972   2.913   9.486  0.2192 -0.1416  1.1491
  142SAPE  H11X15587   4.043   2.828   9.474 -1.7713 -1.8377  0.8805
  142SAPE  H11Y15588   4.026   3.010   9.481 -2.1276  1.1887 -0.2572
  142SAPE  C31215589   3.881   2.908   9.361 -0.1647  0.2990 -0.4823
  142SAPE  H12X15590   3.789   2.969   9.374  0.4779  1.1051  0.4346
  142SAPE  H12Y15591   3.832   2.808   9.356  0.9583 -0.3848  1.3483
  142SAPE  C31315592   3.952   2.950   9.238  0.1745  0.7417  0.0784
  142SAPE  H13X15593   4.060   2.929   9.246  0.2162  1.2372  0.9587
  142SAPE  H13Y15594   3.949   3.061   9.230 -0.3692  0.7061 -0.2827
  142SAPE  C31415595   3.892   2.894   9.109 -0.3320 -0.7955  0.2483
  142SAPE  H14X15596   3.787   2.917   9.083  0.4995  0.3515 -2.3649
  142SAPE  H14Y15597   3.888   2.784   9.127 -1.2332 -0.8784 -0.4162
  142SAPE  C31515598   3.974   2.914   8.982  0.3027 -0.2438 -0.1425
  142SAPE  H15X15599   3.997   3.022   8.969 -3.5553  0.7129 -0.2246
  142SAPE  H15Y15600   3.911   2.888   8.895 -0.3222  1.1840 -0.1535
  142SAPE  C31615601   4.099   2.827   8.973 -1.1572 -0.6361  0.4585
  142SAPE  H16X15602   4.065   2.722   8.984  1.6385 -1.6762 -0.0131
  142SAPE  H16Y15603   4.168   2.847   9.058 -0.6592 -2.3867  0.5005
  142SAPE  C31715604   4.159   2.833   8.830  0.6437 -0.0797  0.5553
  142SAPE  H17X15605   4.076   2.804   8.762 -0.6948  2.7853  0.8292
  142SAPE  H17Y15606   4.232   2.750   8.818  2.6846  1.8239 -1.0090
  142SAPE  C31815607   4.233   2.966   8.802 -0.3357  0.3976  0.1474
  142SAPE  H18X15608   4.291   2.987   8.895 -1.1314 -0.7356  0.9397
  142SAPE  H18Y15609   4.177   3.059   8.781 -1.3087 -0.9732 -4.5485
  142SAPE  H18Z15610   4.299   2.953   8.714 -0.4764  0.3238  0.0522
  143SAPE     N15611   0.115   5.040  10.813  0.6235  0.2954 -0.4709
  143SAPE   HN115612   0.171   5.080  10.891 -1.4293  0.0051  1.2411
  143SAPE   HN215613   0.037   5.105  10.794  0.1814 -0.8011 -2.7549
  143SAPE   HN315614   0.073   4.949  10.840  0.6071  0.5302  0.3092
  143SAPE   C1215615   0.202   5.022  10.698  0.3465 -0.3578 -0.5347
  143SAPE  H12A15616   0.279   5.102  10.703 -1.0696  1.1317 -1.1674
  143SAPE  H12B15617   0.143   5.039  10.605 -1.1963  1.6465  0.7197
  143SAPE   C1115618   0.274   4.893  10.694 -0.4142  0.8700  0.3050
  143SAPE  H11A15619   0.336   4.890  10.602  1.4644  3.8017  1.3513
  143SAPE  H11B15620   0.198   4.817  10.667 -0.5146  1.7229 -2.0717
  143SAPE     P15621   0.506   4.875  10.812 -0.3970 -0.3534  0.4782
  143SAPE   O1315622   0.543   5.014  10.785 -0.4504 -1.1610 -0.2267
  143SAPE   O1415623   0.562   4.806  10.930 -0.1074 -0.5404  0.9054
  143SAPE   O1215624   0.349   4.861  10.807  0.2508 -0.1438 -0.0662
  143SAPE   O1115625   0.556   4.801  10.679  0.1003 -0.0554 -0.3228
  143SAPE    C115626   0.523   4.669  10.657  0.5711 -0.3582  1.2343
  143SAPE    HA15627   0.453   4.629  10.734  0.0549 -0.3612  0.7775
  143SAPE    HB15628   0.471   4.654  10.560  2.9764 -1.5325  0.0553
  143SAPE    C215629   0.645   4.580  10.651  0.0377  0.1393  0.2192
  143SAPE    HS15630   0.705   4.605  10.741  2.7349 -0.2825 -1.3654
  143SAPE   O2115631   0.713   4.624  10.530  0.2605  0.3374  0.8093
  143SAPE   C2115632   0.827   4.575  10.511  0.0326 -0.0421 -0.7658
  143SAPE   O2215633   0.898   4.520  10.596  0.6727  0.2198 -0.1285
  143SAPE   C2215634   0.871   4.598  10.369  0.3717 -0.1241  0.2311
  143SAPE   H2R15635   0.796   4.662  10.318  0.4439 -0.1357  0.1094
  143SAPE   H2S15636   0.965   4.656  10.363 -0.0827  0.6584  0.5531
  143SAPE    C315637   0.609   4.427  10.648 -0.7482 -0.4143 -0.2790
  143SAPE    HX15638   0.565   4.399  10.746  0.0993  2.7790  1.1279
  143SAPE    HY15639   0.698   4.363  10.631 -0.0167  0.2742  0.8398
  143SAPE   O3115640   0.502   4.394  10.544 -0.1153 -0.2288 -0.4134
  143SAPE   C3115641   0.491   4.270  10.514 -0.3219  1.2136 -0.6099
  143SAPE   O3215642   0.558   4.179  10.562 -0.3804  0.6677 -0.0785
  143SAPE   C3215643   0.380   4.250  10.410  0.4335  0.3912 -0.3951
  143SAPE   H2X15644   0.390   4.327  10.331 -1.1583 -0.6336 -1.6829
  143SAPE   H2Y15645   0.282   4.277  10.455  0.3681  0.7366 -0.7409
  143SAPE   C2315646   0.874   4.473  10.276 -0.2678  0.1894  0.2202
  143SAPE   H3R15647   0.957   4.401  10.296 -1.5453 -1.9003 -1.5800
  143SAPE   H3S15648   0.892   4.511  10.173 -0.9529 -0.1343 -0.0206
  143SAPE   C2415649   0.750   4.390  10.279 -0.0019 -0.1680 -0.2052
  143SAPE   H4R15650   0.735   4.362  10.386 -0.7095  0.6312 -0.0860
  143SAPE   H4S15651   0.767   4.302  10.213 -1.6347  0.8702 -2.1273
  143SAPE   C2515652   0.628   4.474  10.234 -0.2563 -0.2168  0.4786
  143SAPE   H5R15653   0.583   4.538  10.312 -0.2963  2.4124 -1.5812
  143SAPE   C2615654   0.573   4.481  10.110 -0.3567  0.3531 -0.2191
  143SAPE   H6R15655   0.489   4.552  10.102 -0.8168 -0.0284  0.9654
  143SAPE   C2715656   0.628   4.417   9.986 -0.8369 -0.4105 -0.4505
  143SAPE   H7R15657   0.700   4.340  10.020  0.8523 -0.5639 -3.9658
  143SAPE   H7S15658   0.690   4.492   9.932  0.3390 -0.9619  0.0864
  143SAPE   C2815659   0.518   4.355   9.909 -0.2304 -0.3378  0.1741
  143SAPE   H8R15660   0.475   4.268   9.960  2.1465 -1.0040  1.1984
  143SAPE   C2915661   0.483   4.392   9.785  0.5142  0.1115 -0.5311
  143SAPE   H9R15662   0.404   4.335   9.735  0.9452 -1.3144  0.3563
  143SAPE  C21015663   0.530   4.502   9.694  0.5422 -1.0309 -0.3678
  143SAPE  H10R15664   0.461   4.505   9.607 -1.6317  3.6160  1.1749
  143SAPE  H10S15665   0.626   4.470   9.648  0.1117 -0.5358 -1.6773
  143SAPE  C21115666   0.535   4.638   9.757 -1.0957 -0.2195 -0.2026
  143SAPE  H11R15667   0.529   4.640   9.867 -0.2315 -0.6855 -0.1372
  143SAPE  C21215668   0.565   4.752   9.691 -0.2834 -0.0555 -0.1614
  143SAPE  H12R15669   0.563   4.850   9.742 -2.5378  0.0138 -0.2794
  143SAPE  C21315670   0.610   4.758   9.550  0.1903  0.1987 -0.0468
  143SAPE  H13R15671   0.668   4.667   9.523  1.9018  1.3212 -0.3409
  143SAPE  H13S15672   0.674   4.848   9.538  0.0864  0.7349  2.8483
  143SAPE  C21415673   0.492   4.779   9.456  0.2935  0.3491 -0.6174
  143SAPE  H14R15674   0.408   4.708   9.469  1.1024 -0.8094 -1.5211
  143SAPE  C21515675   0.474   4.874   9.365 -0.3345  0.0505  0.3427
  143SAPE  H15R15676   0.383   4.875   9.303 -0.1643  0.3517  0.0916
  143SAPE  C21615677   0.586   4.973   9.327 -0.0664 -0.2671 -0.0013
  143SAPE  H16R15678   0.686   4.942   9.363  0.7010  1.8255 -0.2294
  143SAPE  H16S15679   0.570   5.074   9.370 -0.0492 -1.5132  3.1869
  143SAPE  C21715680   0.605   4.981   9.176 -0.4530  0.1949  0.8003
  143SAPE  H17R15681   0.514   5.004   9.118  0.4261 -0.6375 -0.9854
  143SAPE  H17S15682   0.634   4.882   9.135  2.4806  1.6565 -0.9856
  143SAPE  C21815683   0.715   5.079   9.131 -0.1318  0.3347  0.4232
  143SAPE  H18R15684   0.809   5.039   9.175 -1.3866 -0.5823  2.4077
  143SAPE  H18S15685   0.699   5.178   9.179 -0.7746  1.7482 -2.5215
  143SAPE  C21915686   0.718   5.098   8.981  0.1167 -0.2706 -0.4503
  143SAPE  H19R15687   0.613   5.122   8.952 -0.3541 -1.9077 -0.2054
  143SAPE  H19S15688   0.737   5.003   8.927 -1.2791 -1.1444  0.5285
  143SAPE  C22015689   0.822   5.203   8.928  0.6152  0.2190 -0.2276
  143SAPE  H20R15690   0.925   5.162   8.933 -0.4641 -2.5766  0.8128
  143SAPE  H20S15691   0.810   5.296   8.987 -0.9319  0.6740 -1.1888
  143SAPE  H20T15692   0.807   5.211   8.818 -0.9379  0.5152 -0.0257
  143SAPE   C3315693   0.375   4.111  10.346  0.2383  0.1082  0.1521
  143SAPE   H3X15694   0.364   4.044  10.433 -1.8942  3.3633  2.6295
  143SAPE   H3Y15695   0.475   4.101  10.298  0.9995  1.2593  1.4247
  143SAPE   C3415696   0.252   4.113  10.255  0.5224  0.9148 -0.4409
  143SAPE   H4X15697   0.165   4.162  10.304 -2.4502 -2.6769 -1.6277
  143SAPE   H4Y15698   0.224   4.006  10.248 -1.4092  1.3383  0.2694
  143SAPE   C3515699   0.270   4.162  10.111  0.0342 -0.0325 -0.0969
  143SAPE   H5X15700   0.356   4.107  10.066  1.6940  2.4686 -0.1940
  143SAPE   H5Y15701   0.283   4.271  10.098  2.2675 -0.3026 -0.5051
  143SAPE   C3615702   0.151   4.132  10.022 -0.6223  0.3204 -0.2847
  143SAPE   H6X15703   0.068   4.181  10.078 -0.3595 -0.4425  0.7950
  143SAPE   H6Y15704   0.127   4.024  10.020 -0.2991  0.1900  1.4616
  143SAPE   C3715705   0.160   4.190   9.877 -0.4989 -0.5987 -0.5805
  143SAPE   H7X15706   0.256   4.151   9.839  0.9546  2.5205 -0.4224
  143SAPE   H7Y15707   0.169   4.301   9.883 -1.0918 -0.5191 -0.9832
  143SAPE   C3815708   0.048   4.143   9.787 -0.0316  0.3804 -0.0829
  143SAPE   H8X15709  -0.050   4.175   9.828  0.5614 -0.4516  2.1291
  143SAPE   H8Y15710   0.044   4.032   9.787 -0.5630  0.3673  1.8678
  143SAPE   C3915711   0.055   4.195   9.646  0.2388 -0.7730 -0.0178
  143SAPE   H9X15712   0.149   4.156   9.602  0.2996 -1.3195  0.5821
  143SAPE   H9Y15713   0.072   4.304   9.652  0.2479 -0.7551 -0.3765
  143SAPE  C31015714  -0.065   4.174   9.549 -0.4775  0.1287 -0.3321
  143SAPE  H10X15715  -0.168   4.192   9.586 -0.5707  1.2071 -1.0659
  143SAPE  H10Y15716  -0.064   4.071   9.507 -3.3461  0.5693 -1.7559
  143SAPE  C31115717  -0.046   4.262   9.426  0.2912  0.2751  0.1685
  143SAPE  H11X15718   0.052   4.256   9.373  0.9932 -1.8697  1.5883
  143SAPE  H11Y15719  -0.059   4.363   9.471 -2.5807  0.1361 -0.1995
  143SAPE  C31215720  -0.160   4.261   9.317  0.7478  0.3751  0.3880
  143SAPE  H12X15721  -0.177   4.359   9.267 -0.8553 -0.3686 -0.6335
  143SAPE  H12Y15722  -0.245   4.250   9.388 -1.0138  0.6036 -1.5689
  143SAPE  C31315723  -0.157   4.160   9.206 -0.9358 -0.0103 -0.0188
  143SAPE  H13X15724  -0.161   4.052   9.232 -2.0622 -0.1249 -0.6393
  143SAPE  H13Y15725  -0.065   4.170   9.144 -1.8557 -0.4766 -1.5064
  143SAPE  C31415726  -0.271   4.191   9.104 -0.1699  0.0914 -0.3979
  143SAPE  H14X15727  -0.257   4.292   9.060 -2.8084 -0.0211 -1.6661
  143SAPE  H14Y15728  -0.373   4.207   9.147  0.5061  0.0709  1.2943
  143SAPE  C31515729  -0.285   4.091   8.990 -0.0364  0.2050  0.6183
  143SAPE  H15X15730  -0.367   4.023   9.020 -1.0757  0.2018 -1.9492
  143SAPE  H15Y15731  -0.191   4.041   8.956 -0.1625 -2.2262  3.4657
  143SAPE  C31615732  -0.341   4.163   8.860 -0.0283  0.0658 -0.3722
  143SAPE  H16X15733  -0.267   4.233   8.814 -0.9039  0.3934 -1.3264
  143SAPE  H16Y15734  -0.427   4.223   8.896  0.4251  0.0164  0.8456
  143SAPE  C31715735  -0.383   4.059   8.749  0.0080 -0.9018 -0.1932
  143SAPE  H17X15736  -0.462   4.104   8.686 -0.2159  1.1391  1.4361
  143SAPE  H17Y15737  -0.441   3.974   8.791 -1.5103 -1.3349 -2.9744
  143SAPE  C31815738  -0.264   4.019   8.662  0.5223 -0.7704  0.1006
  143SAPE  H18X15739  -0.194   3.962   8.728  1.1093  1.4650  1.5416
  143SAPE  H18Y15740  -0.203   4.106   8.632 -0.4927 -1.0607 -3.2190
  143SAPE  H18Z15741  -0.293   3.955   8.576  3.2754  0.3563 -1.7834
  144SAPE     N15742   3.858   2.174  10.693 -0.8207 -0.3759  0.3200
  144SAPE   HN115743   3.944   2.152  10.640  0.5925  0.2981  2.2023
  144SAPE   HN215744   3.822   2.083  10.728  3.3799 -2.2260  0.4775
  144SAPE   HN315745   3.795   2.221  10.625  2.3830  4.2158  0.0375
  144SAPE   C1215746   3.911   2.250  10.808  0.4195 -0.4061 -0.7390
  144SAPE  H12A15747   3.828   2.291  10.869  3.4068 -2.2817  5.3308
  144SAPE  H12B15748   3.968   2.335  10.764 -1.4545  1.8298  0.8706
  144SAPE   C1115749   3.995   2.157  10.903  0.0668  0.5279 -0.6790
  144SAPE  H11A15750   3.936   2.071  10.940  0.6030  0.0337 -0.9478
  144SAPE  H11B15751   4.022   2.201  11.001  1.3523  0.2884 -0.9028
  144SAPE     P15752   4.238   2.088  10.915  0.0130  0.0319  0.1541
  144SAPE   O1315753   4.252   2.211  10.998  0.6002 -0.2651  0.4424
  144SAPE   O1415754   4.232   1.958  10.982  0.3469  0.3958 -0.4017
  144SAPE   O1215755   4.104   2.109  10.830  0.2017  0.4192 -0.4616
  144SAPE   O1115756   4.344   2.095  10.808 -0.2938  0.3933  0.8145
  144SAPE    C115757   4.365   2.200  10.721 -0.5097  0.8272  0.2331
  144SAPE    HA15758   4.276   2.264  10.736 -2.6508 -2.1007  0.8713
  144SAPE    HB15759   4.448   2.260  10.765 -1.0446 -0.7027  3.7083
  144SAPE    C215760   4.389   2.165  10.568  0.2327  1.2192 -0.4765
  144SAPE    HS15761   4.353   2.250  10.506 -2.4328 -1.0487 -2.2753
  144SAPE   O2115762   4.305   2.049  10.531 -0.3509 -0.4484 -0.5430
  144SAPE   C2115763   4.174   2.057  10.533  0.1537  0.7200  0.4365
  144SAPE   O2215764   4.110   2.159  10.570 -0.5209 -0.0290 -0.2230
  144SAPE   C2215765   4.110   1.931  10.472  0.3997 -0.8264  0.7039
  144SAPE   H2R15766   4.084   1.876  10.565 -0.9638  0.7647  1.3172
  144SAPE   H2S15767   4.008   1.940  10.429  1.4286 -0.2823 -1.8002
  144SAPE    C315768   4.534   2.133  10.532  0.0267  0.3246 -0.2167
  144SAPE    HX15769   4.563   2.045  10.593 -3.0371  0.6619  1.9595
  144SAPE    HY15770   4.595   2.221  10.561  1.4485 -0.7259  0.1007
  144SAPE   O3115771   4.561   2.117  10.392  0.2601  0.8020  0.1438
  144SAPE   C3115772   4.579   1.991  10.349 -0.1055  0.0648  0.5847
  144SAPE   O3215773   4.592   1.893  10.420  0.1069 -0.3363  0.2760
  144SAPE   C3215774   4.563   1.995  10.197  0.1431 -0.6474 -0.1912
  144SAPE   H2X15775   4.627   2.078  10.159  0.2406 -0.5315  0.2217
  144SAPE   H2Y15776   4.458   2.022  10.174  0.7467  2.0783 -0.1568
  144SAPE   C2315777   4.188   1.832  10.380 -0.0723  0.1247 -0.1232
  144SAPE   H3R15778   4.146   1.730  10.385  2.3161 -1.0757 -2.1914
  144SAPE   H3S15779   4.288   1.821  10.427 -0.3829  1.5384  0.9558
  144SAPE   C2415780   4.195   1.868  10.231  0.2492 -0.8105  0.3367
  144SAPE   H4R15781   4.269   1.951  10.229  0.4033 -0.9528 -0.4570
  144SAPE   H4S15782   4.095   1.913  10.212  1.2803  1.8860  0.7987
  144SAPE   C2515783   4.241   1.775  10.118  0.4628 -0.1481  0.3492
  144SAPE   H5R15784   4.318   1.703  10.147 -1.4459 -1.4349  2.6214
  144SAPE   C2615785   4.185   1.760  10.000  0.8102 -0.7268  0.7097
  144SAPE   H6R15786   4.220   1.686   9.927 -0.8714  1.0363 -2.0662
  144SAPE   C2715787   4.060   1.831   9.950  0.5704 -0.0030  0.8849
  144SAPE   H7R15788   4.087   1.933   9.916 -0.7218  0.2063  0.4401
  144SAPE   H7S15789   3.996   1.871  10.032 -2.1029 -1.1785 -0.5125
  144SAPE   C2815790   3.968   1.770   9.845 -0.0641  0.2248 -0.4531
  144SAPE   H8R15791   3.873   1.727   9.880 -1.0749  2.2796 -0.4784
  144SAPE   C2915792   3.988   1.769   9.713  0.0946  0.4148  0.1266
  144SAPE   H9R15793   3.908   1.729   9.649 -0.3625 -0.0168  0.9546
  144SAPE  C21015794   4.100   1.838   9.637  0.4619 -0.1834  0.7683
  144SAPE  H10R15795   4.129   1.787   9.543 -0.6706  0.3415  0.1080
  144SAPE  H10S15796   4.191   1.827   9.699  0.9865  0.6834  0.1762
  144SAPE  C21115797   4.071   1.984   9.613 -0.4124 -0.3913  0.3534
  144SAPE  H11R15798   4.118   2.052   9.685 -0.7091  0.5472 -0.3146
  144SAPE  C21215799   4.017   2.041   9.507  0.2915 -0.3298  0.2933
  144SAPE  H12R15800   4.020   2.150   9.496 -0.2474 -0.4587 -1.3007
  144SAPE  C21315801   3.966   1.954   9.395  0.1487  0.2384 -0.6242
  144SAPE  H13R15802   3.861   1.975   9.368 -0.9812 -2.3456  1.3061
  144SAPE  H13S15803   3.953   1.847   9.421 -1.6800  0.0462 -2.1601
  144SAPE  C21415804   4.052   1.961   9.271  0.6771  0.2510  0.6769
  144SAPE  H14R15805   4.150   1.913   9.285  0.9641  0.8734  0.8431
  144SAPE  C21515806   4.021   2.009   9.151 -0.7020  0.3974  0.3656
  144SAPE  H15R15807   4.092   2.001   9.067  1.2138  1.4547  1.8098
  144SAPE  C21615808   3.894   2.076   9.111 -0.7192  0.2415 -0.5292
  144SAPE  H16R15809   3.907   2.154   9.034 -0.3964  2.6706  1.8284
  144SAPE  H16S15810   3.855   2.132   9.199 -1.3234  1.4905 -1.5676
  144SAPE  C21715811   3.787   1.978   9.064 -0.2636  0.0746  0.3394
  144SAPE  H17R15812   3.756   1.916   9.151 -0.0353 -0.0390  0.3420
  144SAPE  H17S15813   3.827   1.913   8.983  1.0827  1.2589  0.0099
  144SAPE  C21815814   3.658   2.050   9.020 -0.5291 -0.2534  0.5191
  144SAPE  H18R15815   3.628   2.123   9.099 -1.6521 -0.3618  0.2123
  144SAPE  H18S15816   3.585   1.970   8.996 -0.4479  0.3312 -1.9279
  144SAPE  C21915817   3.681   2.120   8.890  0.2875  0.1142 -0.0702
  144SAPE  H19R15818   3.720   2.056   8.809  1.2165 -0.6438  0.9514
  144SAPE  H19S15819   3.756   2.200   8.907  1.2773 -0.5595 -1.1558
  144SAPE  C22015820   3.557   2.192   8.826  0.7174 -0.4551 -0.0414
  144SAPE  H20R15821   3.571   2.283   8.763 -3.2746 -0.9208 -1.8791
  144SAPE  H20S15822   3.492   2.205   8.915  0.3945  0.9268 -0.4470
  144SAPE  H20T15823   3.498   2.129   8.755 -1.0231  2.3582 -1.2923
  144SAPE   C3315824   4.607   1.862  10.132 -0.4912 -0.0308 -0.4260
  144SAPE   H3X15825   4.546   1.781  10.176 -0.7571  1.3658  1.9024
  144SAPE   H3Y15826   4.710   1.825  10.153 -1.1022 -1.8155 -0.3788
  144SAPE   C3415827   4.576   1.852   9.982 -0.0206 -0.2248  0.2638
  144SAPE   H4X15828   4.627   1.936   9.930  0.1524  0.1625  1.0482
  144SAPE   H4Y15829   4.467   1.869   9.971 -0.1592 -0.8717  0.5551
  144SAPE   C3515830   4.581   1.711   9.930  0.1004  0.2887  0.2480
  144SAPE   H5X15831   4.495   1.661   9.979 -1.7986  1.5327 -1.6472
  144SAPE   H5Y15832   4.680   1.665   9.955  0.2259 -0.1291 -0.9665
  144SAPE   C3615833   4.561   1.694   9.774  0.3080 -0.6352 -0.5716
  144SAPE   H6X15834   4.453   1.688   9.746  0.1548  0.0307 -0.1397
  144SAPE   H6Y15835   4.603   1.594   9.750  1.6632 -0.7280  1.8499
  144SAPE   C3715836   4.626   1.810   9.687  0.3534 -0.1069 -0.2874
  144SAPE   H7X15837   4.735   1.819   9.708  0.5904  2.3950 -2.1308
  144SAPE   H7Y15838   4.566   1.903   9.701 -0.6278 -0.1898 -3.2746
  144SAPE   C3815839   4.613   1.786   9.536  0.0807 -0.0755 -0.6119
  144SAPE   H8X15840   4.649   1.685   9.508 -2.8062 -1.9644  1.8445
  144SAPE   H8Y15841   4.674   1.863   9.485 -0.8269  1.9833  1.2553
  144SAPE   C3915842   4.474   1.797   9.474  0.7514  0.2009 -0.7241
  144SAPE   H9X15843   4.444   1.904   9.483 -0.9644 -0.3261  0.2624
  144SAPE   H9Y15844   4.391   1.745   9.526 -0.0370  0.3709 -1.7913
  144SAPE  C31015845   4.466   1.756   9.319  1.0655  0.6167  0.3666
  144SAPE  H10X15846   4.362   1.783   9.290 -0.4833 -2.5032  2.4844
  144SAPE  H10Y15847   4.465   1.646   9.309 -1.0565  0.6884 -0.6468
  144SAPE  C31115848   4.567   1.833   9.237 -0.2858 -0.2018 -0.0937
  144SAPE  H11X15849   4.665   1.783   9.248 -1.0687 -1.9808 -0.8515
  144SAPE  H11Y15850   4.574   1.937   9.276 -2.7067 -0.3898  1.0616
  144SAPE  C31215851   4.513   1.844   9.098 -0.0629  0.0634 -0.5385
  144SAPE  H12X15852   4.410   1.884   9.097 -0.6455 -1.3956 -1.7946
  144SAPE  H12Y15853   4.499   1.741   9.058 -2.7184 -0.4424  1.4222
  144SAPE  C31315854   4.591   1.943   9.017 -0.4668  0.2730  0.1554
  144SAPE  H13X15855   4.701   1.933   9.014 -0.4254  0.8549 -0.6383
  144SAPE  H13Y15856   4.580   2.047   9.057  0.0576  1.1093 -1.7535
  144SAPE  C31415857   4.548   1.966   8.863 -0.1968  0.2560  0.5350
  144SAPE  H14X15858   4.561   1.875   8.800  0.7970  1.1880 -0.6583
  144SAPE  H14Y15859   4.614   2.038   8.809 -0.7315 -0.5287 -1.2633
  144SAPE  C31515860   4.402   2.010   8.856 -0.3420  0.1001  0.6436
  144SAPE  H15X15861   4.381   2.105   8.909  0.3184  0.4510  0.2845
  144SAPE  H15Y15862   4.344   1.930   8.906  0.4113 -0.6980  0.2700
  144SAPE  C31615863   4.350   2.023   8.712  0.3876  0.1756 -1.1861
  144SAPE  H16X15864   4.408   2.106   8.668  1.2929  1.3444  1.9766
  144SAPE  H16Y15865   4.243   2.053   8.723  0.4691 -0.4937  3.8433
  144SAPE  C31715866   4.346   1.897   8.624  0.9065  0.1901 -1.1451
  144SAPE  H17X15867   4.285   1.818   8.673  1.3379  0.5025 -0.0583
  144SAPE  H17Y15868   4.453   1.869   8.637  0.2144 -1.4976  2.2229
  144SAPE  C31815869   4.305   1.899   8.479 -0.2793 -0.4531  0.1207
  144SAPE  H18X15870   4.198   1.875   8.457 -0.0589 -1.1700 -0.2066
  144SAPE  H18Y15871   4.357   1.825   8.416 -0.8607 -0.4070 -0.4249
  144SAPE  H18Z15872   4.309   2.003   8.442  0.0433 -0.1792  0.9051
  145SAPE     N15873   0.160   3.182  11.137  0.0599  0.4171 -0.2673
  145SAPE   HN115874   0.076   3.125  11.157 -0.1961 -0.0096 -2.3183
  145SAPE   HN215875   0.187   3.227  11.227  2.4508 -2.8083  0.8063
  145SAPE   HN315876   0.126   3.253  11.068 -2.5371 -1.1600 -0.7243
  145SAPE   C1215877   0.277   3.100  11.083  0.7905 -0.4449  0.0091
  145SAPE  H12A15878   0.369   3.161  11.081  0.2032  0.4365 -0.7594
  145SAPE  H12B15879   0.251   3.070  10.979 -0.9018 -0.1703  0.3099
  145SAPE   C1115880   0.292   2.967  11.153 -0.3800 -0.6752 -0.0523
  145SAPE  H11A15881   0.321   2.992  11.257 -0.6167 -1.3099  0.1671
  145SAPE  H11B15882   0.374   2.917  11.098 -1.3984 -0.9199 -1.4153
  145SAPE     P15883   0.202   2.722  11.158  0.0189 -0.0444  0.0438
  145SAPE   O1315884   0.319   2.683  11.235 -0.5760 -0.2326 -0.2892
  145SAPE   O1415885   0.074   2.648  11.179  0.2600 -0.1791 -0.4292
  145SAPE   O1215886   0.178   2.879  11.159 -0.6499  0.1303 -0.0707
  145SAPE   O1115887   0.244   2.701  11.011  0.6341 -0.4743 -0.3867
  145SAPE    C115888   0.161   2.742  10.901 -0.1234 -0.4612  0.0539
  145SAPE    HA15889   0.068   2.787  10.942 -0.3264 -1.9258  1.2892
  145SAPE    HB15890   0.213   2.805  10.825 -0.3352  0.7946  0.9258
  145SAPE    C215891   0.113   2.628  10.812  0.0066 -0.3066  0.4669
  145SAPE    HS15892   0.084   2.545  10.880  1.5891 -1.2657  0.0117
  145SAPE   O2115893   0.225   2.588  10.726  0.0853 -0.2829  0.5917
  145SAPE   C2115894   0.210   2.468  10.679  0.1688 -0.2929 -0.0671
  145SAPE   O2215895   0.130   2.387  10.724 -0.0155 -0.7258  0.9830
  145SAPE   C2215896   0.303   2.438  10.571 -0.9115  1.0791  0.0533
  145SAPE   H2R15897   0.259   2.475  10.475 -2.5124  0.9718  0.7078
  145SAPE   H2S15898   0.391   2.502  10.589 -0.3478  0.8303 -1.6157
  145SAPE    C315899  -0.011   2.662  10.724  0.3349 -0.3380  1.1665
  145SAPE    HX15900  -0.094   2.683  10.794  0.1919  2.6740  0.2234
  145SAPE    HY15901  -0.047   2.569  10.675 -3.0715  1.4480 -0.0523
  145SAPE   O3115902   0.001   2.781  10.639  0.5577 -0.1631  0.1585
  145SAPE   C3115903   0.035   2.755  10.512  0.4749  0.0949 -0.0775
  145SAPE   O3215904   0.070   2.643  10.479  0.1493  0.7740  0.4125
  145SAPE   C3215905   0.034   2.882  10.424  0.6768  0.5124 -0.4553
  145SAPE   H2X15906   0.059   2.968  10.490  3.2470  0.9877 -1.9025
  145SAPE   H2Y15907  -0.066   2.887  10.378 -0.4179  0.0881  1.7257
  145SAPE   C2315908   0.349   2.285  10.562  0.3066  0.6721  0.2011
  145SAPE   H3R15909   0.262   2.218  10.547 -0.1176  1.4904 -1.1811
  145SAPE   H3S15910   0.393   2.253  10.658 -2.0961  2.0976  1.8852
  145SAPE   C2415911   0.445   2.251  10.455 -0.3563  0.2093  0.1890
  145SAPE   H4R15912   0.409   2.272  10.352  0.5509 -1.0176 -0.4118
  145SAPE   H4S15913   0.479   2.145  10.457 -1.0921 -0.0228  1.7408
  145SAPE   C2515914   0.574   2.336  10.467 -0.1795 -0.4314 -0.2273
  145SAPE   H5R15915   0.633   2.325  10.559  0.6529 -0.8948 -0.8012
  145SAPE   C2615916   0.638   2.413  10.374 -0.4182  0.3527  0.7087
  145SAPE   H6R15917   0.731   2.466  10.400 -0.2906 -0.0434  1.0798
  145SAPE   C2715918   0.594   2.427  10.227 -0.6027  0.4315  0.4055
  145SAPE   H7R15919   0.536   2.339  10.192 -2.7048  2.1777 -0.7688
  145SAPE   H7S15920   0.683   2.432  10.162 -1.6340 -1.1522 -1.2064
  145SAPE   C2815921   0.501   2.547  10.230 -0.1605  0.0362 -0.3219
  145SAPE   H8R15922   0.434   2.551  10.318  0.5763  0.7256  0.2176
  145SAPE   C2915923   0.464   2.626  10.133 -0.2905  0.2700  0.1780
  145SAPE   H9R15924   0.381   2.698  10.144 -1.2218 -0.7028 -0.2245
  145SAPE  C21015925   0.515   2.621   9.987  0.0722  0.5451  0.6894
  145SAPE  H10R15926   0.622   2.650   9.991  0.1351  0.3708  0.3371
  145SAPE  H10S15927   0.454   2.695   9.932 -0.4021  1.1049  1.9365
  145SAPE  C21115928   0.501   2.490   9.901  0.4075  0.6518 -0.4978
  145SAPE  H11R15929   0.451   2.401   9.943  0.4509  0.3915 -0.9892
  145SAPE  C21215930   0.560   2.451   9.790 -0.3025  0.1351  0.0741
  145SAPE  H12R15931   0.532   2.352   9.752 -2.3436 -0.1604  2.1105
  145SAPE  C21315932   0.650   2.531   9.700 -0.1065 -1.2337 -0.5105
  145SAPE  H13R15933   0.739   2.464   9.694  1.2465  0.3005  1.3223
  145SAPE  H13S15934   0.666   2.615   9.771  1.1536 -2.4580  0.7287
  145SAPE  C21415935   0.573   2.554   9.568  0.7092 -0.9092  0.4900
  145SAPE  H14R15936   0.464   2.562   9.569  0.8262  1.3248  0.2649
  145SAPE  C21515937   0.645   2.565   9.455 -0.1979  0.0431 -0.3475
  145SAPE  H15R15938   0.591   2.585   9.361 -1.2694 -1.1499 -0.0225
  145SAPE  C21615939   0.797   2.552   9.446  0.5035  0.3553 -0.4967
  145SAPE  H16R15940   0.838   2.513   9.541 -0.3704 -2.7186 -1.2730
  145SAPE  H16S15941   0.827   2.658   9.427  0.1362  1.1391  2.8101
  145SAPE  C21715942   0.834   2.452   9.332 -0.2168 -0.3379  0.5396
  145SAPE  H17R15943   0.767   2.364   9.341 -1.4168  0.3982 -0.9736
  145SAPE  H17S15944   0.939   2.414   9.340  0.1418  0.0909 -1.6509
  145SAPE  C21815945   0.814   2.523   9.193 -0.4728 -0.4653 -0.0058
  145SAPE  H18R15946   0.879   2.613   9.201  1.4432 -1.7646 -0.4615
  145SAPE  H18S15947   0.707   2.554   9.192 -0.2622  0.8844  3.5601
  145SAPE  C21915948   0.836   2.447   9.063  0.5162  0.0570  0.1937
  145SAPE  H19R15949   0.768   2.359   9.060 -1.0771  1.2690 -0.6454
  145SAPE  H19S15950   0.943   2.418   9.062  0.4348 -0.2444 -0.1505
  145SAPE  C22015951   0.805   2.523   8.938 -0.5436 -0.2550 -0.8028
  145SAPE  H20R15952   0.885   2.586   8.893  0.1632 -0.2055  0.5005
  145SAPE  H20S15953   0.737   2.606   8.968  0.6365  0.4792 -0.1297
  145SAPE  H20T15954   0.750   2.460   8.865  0.8657  0.3802 -2.4860
  145SAPE   C3315955   0.138   2.883  10.304 -0.1486  0.1094 -0.5875
  145SAPE   H3X15956   0.099   2.798  10.243 -0.5341 -0.8082  0.8752
  145SAPE   H3Y15957   0.243   2.864  10.336 -0.2070  1.3945  0.4808
  145SAPE   C3415958   0.124   3.003  10.216  0.6774  0.4605 -0.6262
  145SAPE   H4X15959   0.113   3.098  10.273  0.4200  2.3934 -3.6654
  145SAPE   H4Y15960   0.033   3.005  10.151  0.7894 -2.0763 -0.9623
  145SAPE   C3515961   0.244   3.011  10.122 -0.0708 -0.6765 -0.7390
  145SAPE   H5X15962   0.343   2.994  10.169 -0.1792 -0.3532 -0.3905
  145SAPE   H5Y15963   0.251   3.116  10.085 -0.5776 -0.5445 -0.4721
  145SAPE   C3615964   0.234   2.915   9.998  0.1297  0.0026 -0.1467
  145SAPE   H6X15965   0.133   2.916   9.952  1.0662  0.3678 -2.3508
  145SAPE   H6Y15966   0.272   2.818  10.036 -1.5611  0.1833  2.2389
  145SAPE   C3715967   0.323   2.960   9.878  0.8372 -0.0604 -0.0489
  145SAPE   H7X15968   0.429   2.962   9.909  0.8169  0.0736  0.0115
  145SAPE   H7Y15969   0.301   3.064   9.846  2.0580 -0.8734 -4.1481
  145SAPE   C3815970   0.297   2.877   9.751  0.7944 -0.5339  0.5323
  145SAPE   H8X15971   0.186   2.875   9.747  0.8245 -1.5080 -0.0927
  145SAPE   H8Y15972   0.331   2.772   9.750  0.2654 -0.7071 -0.6699
  145SAPE   C3915973   0.346   2.937   9.620  0.9624 -0.3150  0.0044
  145SAPE   H9X15974   0.457   2.943   9.625  0.8639  4.4210  2.4521
  145SAPE   H9Y15975   0.322   3.045   9.608 -0.1360 -0.4837  0.5694
  145SAPE  C31015976   0.302   2.856   9.493  0.7850 -0.7363 -0.4734
  145SAPE  H10X15977   0.192   2.840   9.488  0.1600  3.0322 -1.1040
  145SAPE  H10Y15978   0.342   2.752   9.494  0.2272 -1.0174  2.3458
  145SAPE  C31115979   0.330   2.927   9.360 -0.0338  0.2595  0.3644
  145SAPE  H11X15980   0.432   2.970   9.364 -0.0700  0.2955  2.7219
  145SAPE  H11Y15981   0.266   3.015   9.337  1.2736  0.9286 -0.8243
  145SAPE  C31215982   0.326   2.832   9.233  1.0750 -0.1065 -0.3490
  145SAPE  H12X15983   0.227   2.785   9.217  1.7631 -2.0680  0.7656
  145SAPE  H12Y15984   0.391   2.743   9.249 -0.3405 -1.0233  0.5113
  145SAPE  C31315985   0.382   2.904   9.109 -1.1445  0.2291  0.0170
  145SAPE  H13X15986   0.314   2.987   9.080 -1.6629 -0.0749  0.3395
  145SAPE  H13Y15987   0.368   2.829   9.027 -2.6117 -0.3334  0.7592
  145SAPE  C31415988   0.529   2.970   9.119 -0.6864  0.0416 -0.3490
  145SAPE  H14X15989   0.602   2.898   9.162 -0.7450 -0.7282 -1.5007
  145SAPE  H14Y15990   0.520   3.051   9.194  1.7375 -1.2865  1.5427
  145SAPE  C31515991   0.584   3.011   8.984 -0.0893  0.1466 -0.3786
  145SAPE  H15X15992   0.688   3.046   9.004  0.0833  0.9297 -2.3583
  145SAPE  H15Y15993   0.540   3.104   8.942  0.8879  0.5102 -0.6408
  145SAPE  C31615994   0.587   2.901   8.878  0.2992 -0.7556  0.2624
  145SAPE  H16X15995   0.485   2.864   8.854  0.0066  0.8420 -1.1869
  145SAPE  H16Y15996   0.634   2.807   8.915 -0.5565 -1.6287 -0.7809
  145SAPE  C31715997   0.649   2.954   8.744  0.1918 -0.0614 -0.3176
  145SAPE  H17X15998   0.733   3.022   8.769  1.0456 -1.1983 -0.0415
  145SAPE  H17Y15999   0.567   3.004   8.688 -3.0816 -0.0192  4.0313
  145SAPE  C31816000   0.731   2.843   8.677 -0.6290 -0.3638  0.0088
  145SAPE  H18X16001   0.773   2.874   8.579  0.5952 -2.6519 -0.2562
  145SAPE  H18Y16002   0.670   2.752   8.655 -0.6248 -0.5660  0.8281
  145SAPE  H18Z16003   0.819   2.816   8.738  0.1078 -1.7925 -1.5806
  146SAPE     N16004   5.075   2.691  10.763  0.0412  0.1861  0.4491
  146SAPE   HN116005   5.064   2.787  10.800 -1.0481  1.4156 -2.7429
  146SAPE   HN216006   5.076   2.703  10.660 -0.7953  0.7980  0.5047
  146SAPE   HN316007   4.991   2.637  10.791  0.4526  0.1733  1.7161
  146SAPE   C1216008   5.201   2.615  10.804  0.3405  0.3990 -0.1972
  146SAPE  H12A16009   5.163   2.526  10.858 -0.1858 -0.0458 -1.2855
  146SAPE  H12B16010   5.252   2.673  10.884 -0.9658  3.1138 -1.2267
  146SAPE   C1116011   5.288   2.573  10.692  0.4624  0.3698 -0.4222
  146SAPE  H11A16012   5.223   2.508  10.629 -1.5191  0.8474  1.0356
  146SAPE  H11B16013   5.375   2.509  10.719  0.5000 -0.6174 -2.6503
  146SAPE     P16014   5.446   2.783  10.643  0.2553 -0.0767  0.1836
  146SAPE   O1316015   5.400   2.916  10.593 -0.3849  0.0475  0.1661
  146SAPE   O1416016   5.482   2.763  10.783  0.2059 -0.5622  0.2542
  146SAPE   O1216017   5.329   2.685  10.611  0.4671  0.0893 -0.2334
  146SAPE   O1116018   5.563   2.724  10.547  0.2739  0.5671  0.2387
  146SAPE    C116019   5.539   2.672  10.411 -0.0626  0.4380 -0.3560
  146SAPE    HA16020   5.578   2.569  10.400  0.9879  0.6368  1.1392
  146SAPE    HB16021   5.432   2.687  10.385 -1.5235 -1.2847  3.8289
  146SAPE    C216022   5.622   2.760  10.314  0.1352 -0.0868 -0.1571
  146SAPE    HS16023   5.582   2.863  10.309 -0.8721 -0.3944  1.0360
  146SAPE   O2116024   5.633   2.693  10.185  0.3617 -0.2077  0.2739
  146SAPE   C2116025   5.538   2.727  10.099  0.0222  0.5326  0.1571
  146SAPE   O2216026   5.445   2.806  10.128 -0.6664 -0.1311 -0.2805
  146SAPE   C2216027   5.561   2.666   9.965  0.1338  0.8850 -0.4602
  146SAPE   H2R16028   5.668   2.638   9.955 -0.2875 -0.6251 -1.0177
  146SAPE   H2S16029   5.511   2.567   9.972  1.3241  0.3127  0.2489
  146SAPE    C316030   5.764   2.775  10.383 -0.2760 -0.3250  1.1305
  146SAPE    HX16031   5.795   2.668  10.386  1.5807  0.1317  0.1108
  146SAPE    HY16032   5.757   2.825  10.482 -0.4564 -0.5126  1.2144
  146SAPE   O3116033   5.853   2.845  10.303  0.2482 -0.1912 -0.0477
  146SAPE   C3116034   5.983   2.835  10.326  0.1373  0.3764  0.5260
  146SAPE   O3216035   6.038   2.750  10.398  0.0378 -0.2149  0.1939
  146SAPE   C3216036   6.061   2.935  10.249  0.3068  0.1822  0.7178
  146SAPE   H2X16037   6.125   2.971  10.331  0.3714  1.1774  0.2385
  146SAPE   H2Y16038   6.004   3.025  10.216  0.6335  0.1673  0.0984
  146SAPE   C2316039   5.499   2.749   9.848  0.5703  0.5441 -0.3677
  146SAPE   H3R16040   5.547   2.848   9.836  2.4080 -0.4025 -1.3708
  146SAPE   H3S16041   5.389   2.757   9.861 -0.4837 -4.6140 -3.2160
  146SAPE   C2416042   5.516   2.687   9.709 -0.9178  0.8168 -0.4715
  146SAPE   H4R16043   5.447   2.715   9.627  0.3410 -3.0497 -3.1542
  146SAPE   H4S16044   5.498   2.579   9.732  1.8237  0.5421  0.7130
  146SAPE   C2516045   5.659   2.699   9.662 -0.7175 -0.5680  0.9337
  146SAPE   H5R16046   5.731   2.738   9.736  1.3966 -1.1443 -0.7315
  146SAPE   C2616047   5.703   2.652   9.542 -0.6496 -0.9251 -0.3222
  146SAPE   H6R16048   5.809   2.671   9.519 -0.8703  2.0676  0.7327
  146SAPE   C2716049   5.635   2.569   9.436  0.4890  0.1095  0.6321
  146SAPE   H7R16050   5.537   2.530   9.472  0.1956  0.1542 -0.1030
  146SAPE   H7S16051   5.698   2.484   9.402  2.3642  1.4565  0.5790
  146SAPE   C2816052   5.594   2.662   9.318 -0.1689  0.4371 -0.3560
  146SAPE   H8R16053   5.531   2.745   9.353 -0.3654 -0.4250  1.4560
  146SAPE   C2916054   5.602   2.636   9.185 -0.4365  0.0933  0.3063
  146SAPE   H9R16055   5.559   2.718   9.126  1.9776  1.3048  0.0700
  146SAPE  C21016056   5.664   2.527   9.106 -0.7477  0.5381  0.5059
  146SAPE  H10R16057   5.694   2.454   9.184 -0.9663  1.7810  1.7796
  146SAPE  H10S16058   5.755   2.562   9.053 -0.4262 -0.0621  0.6515
  146SAPE  C21116059   5.574   2.471   8.994  0.4799 -0.4517  0.1460
  146SAPE  H11R16060   5.466   2.465   9.013  0.3648  0.8544 -0.0585
  146SAPE  C21216061   5.612   2.423   8.878  0.2538 -0.2511  0.6846
  146SAPE  H12R16062   5.532   2.383   8.813  1.7280 -0.6226 -0.9879
  146SAPE  C21316063   5.752   2.410   8.819 -0.0981  0.5909  0.7708
  146SAPE  H13R16064   5.827   2.372   8.891  1.2056  0.6754 -0.4808
  146SAPE  H13S16065   5.779   2.515   8.792 -0.5287  1.0071  1.9186
  146SAPE  C21416066   5.759   2.318   8.702 -0.7260  0.6346 -0.2448
  146SAPE  H14R16067   5.665   2.278   8.661  0.3690 -0.0006 -2.2536
  146SAPE  C21516068   5.871   2.281   8.640  0.1697  0.0262  0.2639
  146SAPE  H15R16069   5.860   2.221   8.548 -0.3220  3.5554 -2.1957
  146SAPE  C21616070   6.009   2.319   8.692 -0.0771  1.3657  0.6162
  146SAPE  H16R16071   6.000   2.341   8.800 -3.6158  3.2732  0.0813
  146SAPE  H16S16072   6.049   2.405   8.635 -1.0840  1.9309  0.7477
  146SAPE  C21716073   6.104   2.194   8.701 -0.7969 -0.1582  0.6219
  146SAPE  H17R16074   6.062   2.112   8.762 -0.1827 -1.4037 -0.5914
  146SAPE  H17S16075   6.198   2.222   8.754 -2.0987  0.3357  2.8004
  146SAPE  C21816076   6.143   2.143   8.564 -0.0558 -0.2863 -0.1524
  146SAPE  H18R16077   6.158   2.225   8.491  0.8008 -0.7911 -0.5677
  146SAPE  H18S16078   6.060   2.087   8.517  1.2016  0.4710 -3.5328
  146SAPE  C21916079   6.245   2.027   8.549 -0.3455  0.0108 -0.0141
  146SAPE  H19R16080   6.341   2.061   8.594  1.1114 -0.9804 -2.1697
  146SAPE  H19S16081   6.274   2.017   8.442 -1.1767  1.4493 -0.4095
  146SAPE  C22016082   6.198   1.887   8.600  0.2190  0.4259 -0.6480
  146SAPE  H20R16083   6.272   1.804   8.593 -1.7900 -1.5307  0.2799
  146SAPE  H20S16084   6.111   1.848   8.543 -1.6205  1.2708  1.4388
  146SAPE  H20T16085   6.164   1.894   8.706 -1.9796 -0.7092 -1.2214
  146SAPE   C3316086   6.158   2.877  10.134  0.6025 -0.6027  0.5393
  146SAPE   H3X16087   6.222   2.803  10.187 -2.0985 -3.6932 -0.1202
  146SAPE   H3Y16088   6.220   2.949  10.078 -0.9572 -0.1434 -0.6553
  146SAPE   C3416089   6.064   2.797  10.033 -0.2970 -0.1924 -0.4235
  146SAPE   H4X16090   6.034   2.878   9.964 -2.1101 -0.1177  0.3903
  146SAPE   H4Y16091   5.973   2.754  10.081 -1.1629  1.9065 -0.0828
  146SAPE   C3516092   6.131   2.692   9.945 -0.1844  0.2226  0.6553
  146SAPE   H5X16093   6.152   2.600  10.004  2.0535  1.0396  1.2145
  146SAPE   H5Y16094   6.224   2.733   9.901 -0.4101 -1.2044 -1.3008
  146SAPE   C3616095   6.036   2.656   9.819 -0.0921  0.2268 -0.0232
  146SAPE   H6X16096   6.042   2.742   9.748  0.2653  1.3853  1.3679
  146SAPE   H6Y16097   5.931   2.659   9.855  0.3262  2.1408  1.1956
  146SAPE   C3716098   6.085   2.530   9.755 -0.3004 -0.0669 -0.1674
  146SAPE   H7X16099   6.074   2.444   9.825  1.3843  0.4872  0.8296
  146SAPE   H7Y16100   6.194   2.544   9.742  0.0877 -2.4601  0.0604
  146SAPE   C3816101   6.036   2.490   9.619  0.4241  0.0495  0.3419
  146SAPE   H8X16102   5.927   2.507   9.634 -0.0658 -3.4902  1.7985
  146SAPE   H8Y16103   6.051   2.382   9.599  1.0881 -0.0752  1.4559
  146SAPE   C3916104   6.098   2.568   9.495 -0.5065 -0.3158 -0.3108
  146SAPE   H9X16105   6.204   2.539   9.478 -0.1060  1.3814 -0.9145
  146SAPE   H9Y16106   6.088   2.677   9.516  0.6811 -0.1717 -0.4075
  146SAPE  C31016107   6.018   2.529   9.367 -0.1609 -0.2709  0.1255
  146SAPE  H10X16108   5.921   2.582   9.363 -0.9768 -1.7245 -0.3169
  146SAPE  H10Y16109   5.993   2.420   9.374  1.8109 -0.7181  0.8181
  146SAPE  C31116110   6.093   2.552   9.233  0.4877  0.6243 -0.0372
  146SAPE  H11X16111   6.199   2.519   9.236 -0.5195 -3.1056 -0.7479
  146SAPE  H11Y16112   6.090   2.663   9.219 -0.1769  0.6495  0.2515
  146SAPE  C31216113   6.046   2.485   9.107  0.1534 -0.8489  0.3906
  146SAPE  H12X16114   5.944   2.523   9.084  0.5153  0.0447  0.2309
  146SAPE  H12Y16115   6.043   2.375   9.090 -2.6062 -0.7011 -0.5908
  146SAPE  C31316116   6.125   2.533   8.983  0.8070 -0.3332  0.6865
  146SAPE  H13X16117   6.146   2.642   8.972  2.6535 -0.8619 -2.5565
  146SAPE  H13Y16118   6.066   2.504   8.893  1.9472  0.8820 -0.5238
  146SAPE  C31416119   6.261   2.465   8.966 -0.8082  0.4109  0.3729
  146SAPE  H14X16120   6.249   2.355   8.963 -0.7159  0.4217 -1.6614
  146SAPE  H14Y16121   6.329   2.496   9.049 -1.0617 -1.4221  1.3060
  146SAPE  C31516122   6.339   2.516   8.839  0.0191  0.3822  0.0785
  146SAPE  H15X16123   6.332   2.627   8.848  0.9593  0.4424  0.1749
  146SAPE  H15Y16124   6.294   2.476   8.745 -1.4809  0.3378  0.7948
  146SAPE  C31616125   6.487   2.473   8.835 -0.3675  0.4170 -0.1495
  146SAPE  H16X16126   6.547   2.503   8.924  0.7444 -0.1214 -0.7068
  146SAPE  H16Y16127   6.519   2.530   8.746 -1.1818 -1.3527 -1.6567
  146SAPE  C31716128   6.509   2.323   8.808  0.2218 -0.3443  0.0937
  146SAPE  H17X16129   6.442   2.280   8.730 -0.4502 -2.0434  1.5215
  146SAPE  H17Y16130   6.471   2.269   8.898 -1.1792 -1.6584 -1.2350
  146SAPE  C31816131   6.652   2.282   8.787 -1.0825 -0.1349 -0.6556
  146SAPE  H18X16132   6.683   2.287   8.680  1.6978  0.1053  0.0939
  146SAPE  H18Y16133   6.667   2.181   8.829 -0.4587  0.4678  0.6290
  146SAPE  H18Z16134   6.706   2.356   8.849 -0.9378  0.1839 -1.1497
  147SAPE     N16135   3.535   6.579   5.963 -0.1453  0.3916  0.4728
  147SAPE   HN116136   3.620   6.530   5.928  1.8510  2.7309  1.7899
  147SAPE   HN216137   3.448   6.524   5.945 -1.1498  1.9529  0.4216
  147SAPE   HN316138   3.519   6.672   5.919  1.8928 -0.6911 -2.9257
  147SAPE   C1216139   3.545   6.580   6.110  0.3210 -0.3829 -0.0110
  147SAPE  H12A16140   3.585   6.678   6.144 -2.7473  0.5612  1.2336
  147SAPE  H12B16141   3.604   6.493   6.146  0.1850  1.0577  4.2285
  147SAPE   C1116142   3.399   6.578   6.154 -0.3813  0.6718 -0.3818
  147SAPE  H11A16143   3.355   6.672   6.113  0.5026  1.3735  0.2465
  147SAPE  H11B16144   3.405   6.576   6.265  1.9442 -1.0090 -0.4691
  147SAPE     P16145   3.171   6.456   6.121 -0.2634 -0.3148  0.0887
  147SAPE   O1316146   3.102   6.571   6.046  0.0027  0.2566  0.1298
  147SAPE   O1416147   3.119   6.322   6.082 -0.2117  0.3592 -0.4965
  147SAPE   O1216148   3.333   6.462   6.104 -0.0561  0.2697 -0.4887
  147SAPE   O1116149   3.159   6.470   6.280 -0.5768  0.2147  0.0843
  147SAPE    C116150   3.207   6.350   6.358  0.0548 -0.2537  0.4000
  147SAPE    HA16151   3.297   6.300   6.314  0.3171 -1.7194  2.4376
  147SAPE    HB16152   3.256   6.386   6.451  3.0203 -0.9479 -0.7747
  147SAPE    C216153   3.098   6.255   6.400 -0.5289  0.0702 -0.0351
  147SAPE    HS16154   3.037   6.227   6.312 -0.7012  0.5609 -0.0752
  147SAPE   O2116155   3.018   6.312   6.507  0.1917  0.8353  0.0081
  147SAPE   C2116156   2.896   6.266   6.519  0.2550 -0.9557  0.1785
  147SAPE   O2216157   2.840   6.175   6.458  0.0724  0.4671  0.8314
  147SAPE   C2216158   2.829   6.335   6.638  0.7572  0.2949 -0.1031
  147SAPE   H2R16159   2.906   6.394   6.693  1.3118 -0.9324  0.4771
  147SAPE   H2S16160   2.741   6.394   6.605  0.2017 -0.7397 -0.5329
  147SAPE    C316161   3.168   6.116   6.436  0.2013  0.1806 -0.1491
  147SAPE    HX16162   3.215   6.084   6.341  1.7412 -1.3315  1.0763
  147SAPE    HY16163   3.095   6.034   6.453 -1.6211  1.8848  0.6462
  147SAPE   O3116164   3.272   6.122   6.531 -0.0870 -0.1146  0.5749
  147SAPE   C3116165   3.248   6.105   6.659 -0.1282  1.0659  0.2406
  147SAPE   O3216166   3.142   6.086   6.719 -0.2970  0.0228 -0.3810
  147SAPE   C3216167   3.388   6.111   6.723  0.0093 -0.6461 -0.2269
  147SAPE   H2X16168   3.449   6.198   6.691  3.4125 -0.8468  4.7036
  147SAPE   H2Y16169   3.439   6.014   6.703  1.2531  0.1153 -0.8857
  147SAPE   C2316170   2.775   6.246   6.745 -0.5526  0.0290  0.8138
  147SAPE   H3R16171   2.853   6.180   6.789 -0.4574 -0.0514  0.5232
  147SAPE   H3S16172   2.695   6.184   6.699  0.8266  0.4537 -2.4382
  147SAPE   C2416173   2.721   6.314   6.869 -0.0555  0.0378 -0.2867
  147SAPE   H4R16174   2.627   6.360   6.831 -0.2942 -0.0599  0.1845
  147SAPE   H4S16175   2.803   6.385   6.894  1.8614 -1.0330 -2.9285
  147SAPE   C2516176   2.691   6.219   6.986 -0.1276  0.5336  0.6538
  147SAPE   H5R16177   2.592   6.183   7.018 -0.0577 -0.4050 -0.1125
  147SAPE   C2616178   2.785   6.185   7.072  0.3567 -0.1757 -0.5438
  147SAPE   H6R16179   2.754   6.117   7.152  0.5489 -0.9557 -1.1196
  147SAPE   C2716180   2.930   6.226   7.067 -0.2311  0.4521  0.5659
  147SAPE   H7R16181   2.933   6.331   7.102  0.6584  0.1508  1.4768
  147SAPE   H7S16182   2.963   6.217   6.962 -1.8865  2.9566 -0.2396
  147SAPE   C2816183   3.019   6.124   7.148  0.6097 -0.1339 -0.5251
  147SAPE   H8R16184   3.094   6.079   7.082  0.6445  1.0986 -1.3652
  147SAPE   C2916185   3.010   6.096   7.282 -0.9236 -0.3559  0.1998
  147SAPE   H9R16186   3.067   6.011   7.322 -0.6999  0.2704  1.2581
  147SAPE  C21016187   2.923   6.171   7.379  0.4589 -0.5293  0.2406
  147SAPE  H10R16188   2.844   6.232   7.329 -0.0369 -1.6532 -0.3971
  147SAPE  H10S16189   2.979   6.243   7.442  0.5128  0.9104 -1.3798
  147SAPE  C21116190   2.859   6.071   7.472 -0.3396 -0.4488  0.0406
  147SAPE  H11R16191   2.879   5.965   7.451  0.6775 -0.2516 -0.0426
  147SAPE  C21216192   2.800   6.111   7.588  0.2663  0.0036  0.4312
  147SAPE  H12R16193   2.774   6.033   7.662 -0.2829  1.7334  2.1313
  147SAPE  C21316194   2.783   6.250   7.643  0.6178  0.9657 -0.0720
  147SAPE  H13R16195   2.754   6.320   7.562 -0.1656  0.9063  0.1487
  147SAPE  H13S16196   2.869   6.297   7.695  1.3646 -1.6386  1.2615
  147SAPE  C21416197   2.666   6.238   7.739  0.3872 -1.1199  0.1107
  147SAPE  H14R16198   2.570   6.267   7.696 -0.6216  1.3768  3.5983
  147SAPE  C21516199   2.666   6.211   7.874 -0.4620  0.6559 -0.3942
  147SAPE  H15R16200   2.570   6.233   7.924  0.9756 -0.8665  3.3621
  147SAPE  C21616201   2.786   6.169   7.957 -0.1608  0.7023 -0.4614
  147SAPE  H16R16202   2.864   6.123   7.893 -1.3520 -1.5225 -0.4175
  147SAPE  H16S16203   2.751   6.090   8.028 -0.0309  2.6046  1.8654
  147SAPE  C21716204   2.839   6.285   8.037  0.8151  0.1076  0.1488
  147SAPE  H17R16205   2.753   6.316   8.100  0.0009 -2.8500  0.6340
  147SAPE  H17S16206   2.876   6.364   7.969  0.3037 -0.8644 -1.2918
  147SAPE  C21816207   2.953   6.244   8.126  0.4579  0.1103  0.7264
  147SAPE  H18R16208   3.014   6.179   8.060  0.9034 -1.2499  2.4316
  147SAPE  H18S16209   2.931   6.183   8.215  2.3634 -0.2561  0.9909
  147SAPE  C21916210   3.037   6.359   8.183  0.5101  0.4871  0.4434
  147SAPE  H19R16211   3.051   6.429   8.098  0.0574 -2.1184 -1.9135
  147SAPE  H19S16212   3.136   6.322   8.216  0.4823  1.1194  1.2689
  147SAPE  C22016213   2.961   6.425   8.295 -0.1992 -0.1897 -0.4557
  147SAPE  H20R16214   3.012   6.519   8.328  0.4251 -0.4644 -0.6219
  147SAPE  H20S16215   2.943   6.359   8.383  0.5624  0.6195  0.3379
  147SAPE  H20T16216   2.864   6.463   8.258  0.7943  1.5383 -1.4694
  147SAPE   C3316217   3.379   6.139   6.875  0.1697 -0.5002 -0.5506
  147SAPE   H3X16218   3.473   6.111   6.925  0.6104  0.2563 -0.9358
  147SAPE   H3Y16219   3.297   6.082   6.924  1.0498 -1.4249 -0.1418
  147SAPE   C3416220   3.359   6.290   6.918 -0.1265  1.3312  0.7163
  147SAPE   H4X16221   3.266   6.336   6.878 -0.4893  1.3942  1.6167
  147SAPE   H4Y16222   3.435   6.356   6.870 -1.0656  2.0031  0.1241
  147SAPE   C3516223   3.363   6.300   7.070 -0.6154  1.2325  0.0763
  147SAPE   H5X16224   3.466   6.285   7.108 -1.9313 -1.4827  2.9722
  147SAPE   H5Y16225   3.304   6.215   7.109  1.3029 -0.7668 -1.1010
  147SAPE   C3616226   3.300   6.434   7.110 -0.6133  0.2874 -0.2705
  147SAPE   H6X16227   3.191   6.418   7.125 -0.3214 -2.6661 -0.5252
  147SAPE   H6Y16228   3.324   6.510   7.033 -1.8952  1.0443  0.0445
  147SAPE   C3716229   3.362   6.497   7.237 -0.5329 -0.2641  0.1377
  147SAPE   H7X16230   3.334   6.605   7.234  0.1141 -0.1294 -1.9841
  147SAPE   H7Y16231   3.471   6.503   7.218 -0.5868  1.1002  0.1768
  147SAPE   C3816232   3.331   6.440   7.374  0.0056  0.2686  0.1331
  147SAPE   H8X16233   3.414   6.457   7.445 -0.6956  0.3952  0.9366
  147SAPE   H8Y16234   3.326   6.330   7.362  0.6627  0.1819  0.6435
  147SAPE   C3916235   3.196   6.470   7.429  0.0492 -0.3994  0.3255
  147SAPE   H9X16236   3.127   6.435   7.349  0.9341 -2.0599  0.2502
  147SAPE   H9Y16237   3.186   6.580   7.440  0.9969 -0.4353  1.9246
  147SAPE  C31016238   3.182   6.419   7.565  0.3887 -0.1709 -0.3745
  147SAPE  H10X16239   3.173   6.309   7.558  1.9470 -0.4348  1.0254
  147SAPE  H10Y16240   3.083   6.454   7.600  0.4670 -0.4322  0.1250
  147SAPE  C31116241   3.284   6.453   7.671 -0.0573 -0.3510 -0.3839
  147SAPE  H11X16242   3.331   6.552   7.653  0.0994  0.3685  3.2048
  147SAPE  H11Y16243   3.364   6.378   7.656 -0.1084 -0.4940  0.0543
  147SAPE  C31216244   3.242   6.440   7.820 -0.3281  0.2457 -0.1638
  147SAPE  H12X16245   3.200   6.343   7.855 -2.1828  0.7917 -0.7861
  147SAPE  H12Y16246   3.158   6.512   7.826 -0.5638  0.1501 -1.9393
  147SAPE  C31316247   3.360   6.481   7.906  0.5127  0.7900  0.3758
  147SAPE  H13X16248   3.420   6.550   7.843  0.1868  0.4685 -0.2912
  147SAPE  H13Y16249   3.421   6.388   7.907 -1.6859 -0.9403 -3.4993
  147SAPE  C31416250   3.322   6.543   8.044  0.0541 -0.3709 -0.3931
  147SAPE  H14X16251   3.262   6.473   8.106 -0.5930 -0.4798 -1.1407
  147SAPE  H14Y16252   3.250   6.626   8.029  0.3746 -0.1650 -0.8193
  147SAPE  C31516253   3.446   6.611   8.102 -0.2997 -0.0509  0.3828
  147SAPE  H15X16254   3.397   6.682   8.173  1.5155  1.6277  0.0348
  147SAPE  H15Y16255   3.505   6.673   8.032  1.4432 -0.1380  1.7155
  147SAPE  C31616256   3.558   6.526   8.165  0.0623  0.1434 -0.1877
  147SAPE  H16X16257   3.602   6.466   8.082 -0.5199  1.3469 -1.4230
  147SAPE  H16Y16258   3.500   6.463   8.236 -2.1505  2.3682  0.1275
  147SAPE  C31716259   3.658   6.608   8.244 -0.4770 -0.2558 -0.2507
  147SAPE  H17X16260   3.733   6.544   8.295 -0.5696  0.9326  1.4816
  147SAPE  H17Y16261   3.621   6.667   8.331 -1.4033 -1.1485 -0.0190
  147SAPE  C31816262   3.746   6.699   8.158  0.3949 -0.3230  0.3517
  147SAPE  H18X16263   3.843   6.724   8.205  1.6184  0.7787 -2.5591
  147SAPE  H18Y16264   3.687   6.788   8.129 -1.1637 -0.7188  2.1223
  147SAPE  H18Z16265   3.777   6.654   8.062 -1.3966 -0.8741  0.0054
  148SAPE     N16266   1.644   3.128   6.571 -0.2049 -0.8749  0.6701
  148SAPE   HN116267   1.674   3.224   6.599  1.9156 -0.4030 -2.6446
  148SAPE   HN216268   1.548   3.143   6.535  0.2741 -0.3825 -0.4442
  148SAPE   HN316269   1.622   3.071   6.655 -2.7406 -0.3520  0.4534
  148SAPE   C1216270   1.741   3.065   6.470  0.7879 -0.3315 -0.6492
  148SAPE  H12A16271   1.764   3.147   6.399  2.9731 -0.8850 -0.6574
  148SAPE  H12B16272   1.696   2.974   6.426 -0.9356  0.3575 -0.4188
  148SAPE   C1116273   1.874   3.028   6.549  0.0758  0.2574  0.4859
  148SAPE  H11A16274   1.906   3.110   6.616  0.8200 -0.3788  0.9236
  148SAPE  H11B16275   1.958   3.012   6.477  0.3381  0.3229  0.7782
  148SAPE     P16276   1.963   2.814   6.685 -0.1835  0.2133  0.1699
  148SAPE   O1316277   1.910   2.719   6.782 -0.1189 -0.1843  0.4646
  148SAPE   O1416278   2.048   2.759   6.573 -0.0331  0.0212  0.0503
  148SAPE   O1216279   1.842   2.905   6.622 -0.6760 -0.3127 -0.3715
  148SAPE   O1116280   2.058   2.922   6.754 -0.2538 -0.4557  0.3653
  148SAPE    C116281   2.026   2.999   6.869  0.2082  0.1713 -0.0444
  148SAPE    HA16282   1.921   3.032   6.863 -0.2772 -1.2632  0.1460
  148SAPE    HB16283   2.050   2.937   6.959  0.7748  0.6835  0.1658
  148SAPE    C216284   2.102   3.135   6.869  0.1733 -0.8609 -0.9751
  148SAPE    HS16285   2.104   3.171   6.765  0.0482 -0.5747 -0.8777
  148SAPE   O2116286   2.237   3.110   6.919 -0.4025  0.1714 -0.6816
  148SAPE   C2116287   2.329   3.193   6.881 -0.2319  0.4099 -0.5675
  148SAPE   O2216288   2.299   3.302   6.826 -0.0977  0.5263 -0.2063
  148SAPE   C2216289   2.468   3.151   6.929 -0.6253  0.7026  0.2019
  148SAPE   H2R16290   2.501   3.061   6.875 -0.2952  1.3511 -0.6924
  148SAPE   H2S16291   2.526   3.238   6.891  1.6040 -0.3588  0.9962
  148SAPE    C316292   2.033   3.249   6.953 -0.1229 -0.0679  0.4047
  148SAPE    HX16293   1.945   3.278   6.892  0.7102  0.3750 -0.6005
  148SAPE    HY16294   2.095   3.341   6.949 -0.5465  0.2153  0.3260
  148SAPE   O3116295   2.027   3.222   7.093  0.2925 -0.0811 -0.1841
  148SAPE   C3116296   1.902   3.181   7.133 -0.2297  0.1051  0.2649
  148SAPE   O3216297   1.805   3.185   7.056  0.4612 -0.4390 -0.4946
  148SAPE   C3216298   1.893   3.131   7.277 -0.1556 -0.7400 -0.4679
  148SAPE   H2X16299   1.950   3.192   7.351 -1.4392 -1.5646  1.2837
  148SAPE   H2Y16300   1.923   3.025   7.262 -1.8813 -1.3872  0.4083
  148SAPE   C2316301   2.498   3.148   7.089  0.0179  0.4249  0.3948
  148SAPE   H3R16302   2.608   3.159   7.087  0.1863 -1.0794  0.5104
  148SAPE   H3S16303   2.474   3.059   7.150 -0.5936  2.2993  3.0812
  148SAPE   C2416304   2.434   3.270   7.158  0.6304 -0.0579 -0.2213
  148SAPE   H4R16305   2.326   3.256   7.135  0.9197 -0.7550 -1.2192
  148SAPE   H4S16306   2.465   3.363   7.106 -2.5664  0.6339 -1.1066
  148SAPE   C2516307   2.465   3.281   7.307  0.3179  0.6321 -0.1335
  148SAPE   H5R16308   2.569   3.312   7.328  1.7161 -1.2235 -3.4275
  148SAPE   C2616309   2.382   3.282   7.408  0.0337 -0.4769 -0.3181
  148SAPE   H6R16310   2.424   3.292   7.509  1.1403 -1.2754 -0.6782
  148SAPE   C2716311   2.229   3.274   7.396 -0.0853  0.1246  0.4859
  148SAPE   H7R16312   2.194   3.176   7.437 -0.1117 -0.0695 -0.0003
  148SAPE   H7S16313   2.188   3.272   7.293 -1.8590 -1.1060  1.1578
  148SAPE   C2816314   2.159   3.396   7.451 -0.3093 -0.7366 -0.0971
  148SAPE   H8R16315   2.131   3.474   7.379 -1.0321 -0.6628  0.2552
  148SAPE   C2916316   2.116   3.417   7.576 -0.5357 -0.2880 -0.0469
  148SAPE   H9R16317   2.074   3.514   7.604  0.5368 -0.5291  2.7754
  148SAPE  C21016318   2.133   3.323   7.693  0.0236  0.0699 -0.9451
  148SAPE  H10R16319   2.184   3.233   7.653  0.1929  0.5188 -1.7724
  148SAPE  H10S16320   2.038   3.275   7.725  0.7973 -0.1147  1.1920
  148SAPE  C21116321   2.214   3.380   7.811  1.0130  0.6698  0.0584
  148SAPE  H11R16322   2.299   3.445   7.787 -0.3605  2.3344 -0.4919
  148SAPE  C21216323   2.180   3.365   7.940 -0.3839 -0.3778  0.5075
  148SAPE  H12R16324   2.256   3.415   8.001  0.0487  1.2607 -1.2656
  148SAPE  C21316325   2.072   3.297   8.020 -0.2849  0.9304 -0.0623
  148SAPE  H13R16326   2.120   3.215   8.078 -1.2889  0.0705 -0.4044
  148SAPE  H13S16327   2.005   3.242   7.950  0.1655 -1.5291  1.3039
  148SAPE  C21416328   1.993   3.394   8.099 -0.3325  0.6309 -0.1243
  148SAPE  H14R16329   1.934   3.471   8.046  0.8504  2.9749  1.7593
  148SAPE  C21516330   2.002   3.411   8.235  0.0822  0.6620  0.6971
  148SAPE  H15R16331   1.946   3.493   8.282  0.3747  1.0341  0.4066
  148SAPE  C21616332   2.075   3.322   8.332 -0.1098  0.2433  0.1534
  148SAPE  H16R16333   2.161   3.277   8.279  0.9082  1.7491  0.4604
  148SAPE  H16S16334   2.007   3.241   8.368 -1.9918  0.2804 -2.9693
  148SAPE  C21716335   2.146   3.389   8.447 -0.1425  0.3313 -0.4471
  148SAPE  H17R16336   2.214   3.468   8.408 -0.5698 -0.3267 -2.6474
  148SAPE  H17S16337   2.211   3.317   8.501 -0.4202  1.8813  2.1179
  148SAPE  C21816338   2.050   3.466   8.542 -0.0044 -0.7152 -0.0595
  148SAPE  H18R16339   1.951   3.418   8.555  0.2277 -0.5818  3.2204
  148SAPE  H18S16340   2.032   3.569   8.506 -0.7936 -0.2176  1.6344
  148SAPE  C21916341   2.114   3.489   8.688  0.9272  0.4487  0.3941
  148SAPE  H19R16342   2.130   3.386   8.729 -2.9768  0.3440  2.1107
  148SAPE  H19S16343   2.021   3.509   8.746 -0.8628 -0.5279 -2.0068
  148SAPE  C22016344   2.233   3.577   8.704 -0.4967 -0.3117 -0.0296
  148SAPE  H20R16345   2.198   3.680   8.683  1.7781  0.1646 -1.9467
  148SAPE  H20S16346   2.306   3.551   8.624  1.3585  3.0660  0.3699
  148SAPE  H20T16347   2.273   3.560   8.806 -1.0553  0.2026  0.2874
  148SAPE   C3316348   1.750   3.132   7.343 -0.6684  0.6718  0.0997
  148SAPE   H3X16349   1.673   3.092   7.274  1.0629  1.4771 -2.4402
  148SAPE   H3Y16350   1.721   3.239   7.354 -1.6167  0.4590 -0.2560
  148SAPE   C3416351   1.747   3.087   7.489  0.6683 -0.1671 -0.7624
  148SAPE   H4X16352   1.807   3.167   7.536 -1.8692  1.2647  0.2406
  148SAPE   H4Y16353   1.802   2.993   7.513  0.4015 -0.4763 -1.3472
  148SAPE   C3516354   1.611   3.086   7.558 -0.7338  0.3846 -0.2528
  148SAPE   H5X16355   1.542   3.026   7.495  1.0142 -2.0189 -0.0511
  148SAPE   H5Y16356   1.572   3.189   7.563 -1.2103  0.2422 -0.8488
  148SAPE   C3616357   1.616   3.023   7.698 -0.2040  0.5349 -0.3164
  148SAPE   H6X16358   1.635   2.914   7.688 -0.6859  0.3132  1.0391
  148SAPE   H6Y16359   1.517   3.045   7.744  1.4999  2.0425  2.9991
  148SAPE   C3716360   1.716   3.090   7.789  0.6430 -0.2072 -0.1943
  148SAPE   H7X16361   1.693   3.197   7.806  1.6579  0.0841 -0.6334
  148SAPE   H7Y16362   1.819   3.091   7.748  0.3063  2.4834 -1.1648
  148SAPE   C3816363   1.709   3.029   7.934 -0.0231 -0.4565  0.3306
  148SAPE   H8X16364   1.799   3.062   7.989 -1.3867  1.6529  1.4565
  148SAPE   H8Y16365   1.703   2.919   7.924 -0.3603 -0.2707 -1.9413
  148SAPE   C3916366   1.588   3.077   8.015 -0.0333  0.3555  0.7397
  148SAPE   H9X16367   1.489   3.062   7.968 -1.2333  3.6437  1.9731
  148SAPE   H9Y16368   1.595   3.188   8.022  2.5406  0.3522 -0.3854
  148SAPE  C31016369   1.580   3.013   8.157 -0.5595 -0.4991 -0.5379
  148SAPE  H10X16370   1.518   3.082   8.218  2.4249  1.1484  0.8839
  148SAPE  H10Y16371   1.684   3.016   8.199 -0.1984 -1.5417 -1.3303
  148SAPE  C31116372   1.535   2.871   8.178  0.1271 -0.0182 -0.1465
  148SAPE  H11X16373   1.598   2.793   8.131  0.2339 -1.7091  2.5621
  148SAPE  H11Y16374   1.434   2.857   8.136 -0.6564 -0.8649  1.8758
  148SAPE  C31216375   1.523   2.829   8.325  0.4659 -0.2371  0.2211
  148SAPE  H12X16376   1.433   2.886   8.356  0.2430  0.7843 -2.0797
  148SAPE  H12Y16377   1.611   2.859   8.386  0.9522  1.4303 -1.2185
  148SAPE  C31316378   1.513   2.681   8.347  0.0840  0.1069 -0.0863
  148SAPE  H13X16379   1.606   2.631   8.314  1.9292  1.7172  2.2807
  148SAPE  H13Y16380   1.427   2.649   8.284 -0.1107  1.3888 -0.5167
  148SAPE  C31416381   1.498   2.638   8.493  0.2384  1.0677  0.8757
  148SAPE  H14X16382   1.469   2.531   8.500  0.6689  0.9353  0.6852
  148SAPE  H14Y16383   1.429   2.701   8.555 -2.6434 -2.3425  1.4696
  148SAPE  C31516384   1.628   2.639   8.575  0.5001  0.5831 -0.0636
  148SAPE  H15X16385   1.604   2.621   8.682 -0.4453  0.4442 -0.2917
  148SAPE  H15Y16386   1.678   2.737   8.566 -0.3007  1.1403  1.2386
  148SAPE  C31616387   1.731   2.534   8.536 -0.2405  0.4117  0.0393
  148SAPE  H16X16388   1.775   2.568   8.440  1.4029 -1.2263  0.1708
  148SAPE  H16Y16389   1.684   2.434   8.521 -0.8012  0.7623 -0.6457
  148SAPE  C31716390   1.845   2.511   8.643 -0.5105 -0.7140 -0.4994
  148SAPE  H17X16391   1.905   2.604   8.652  0.7157 -1.6418  1.4306
  148SAPE  H17Y16392   1.916   2.438   8.598 -0.5334 -0.8920 -0.2464
  148SAPE  C31816393   1.813   2.472   8.790  0.6608  0.7680 -0.1710
  148SAPE  H18X16394   1.737   2.391   8.789  1.5914 -0.1421  0.7715
  148SAPE  H18Y16395   1.746   2.548   8.833 -2.4370 -0.7211 -2.0062
  148SAPE  H18Z16396   1.898   2.449   8.858  0.2987 -1.4904 -0.4027
  149SAPE     N16397   1.770   4.126   6.007  0.4686 -0.1587  0.1438
  149SAPE   HN116398   1.747   4.098   5.910  0.1973 -2.3675  0.7714
  149SAPE   HN216399   1.868   4.099   6.033  0.2465  0.8133  2.1896
  149SAPE   HN316400   1.696   4.084   6.066  0.3693 -1.4817 -0.8758
  149SAPE   C1216401   1.751   4.277   6.013 -0.0615  0.0210  0.8542
  149SAPE  H12A16402   1.665   4.313   5.953  1.4716  3.1089  0.3029
  149SAPE  H12B16403   1.836   4.325   5.960 -1.8413  1.1388 -1.1577
  149SAPE   C1116404   1.746   4.323   6.157  0.5554 -0.2792  0.9633
  149SAPE  H11A16405   1.654   4.295   6.212  0.1376  1.3573  1.1670
  149SAPE  H11B16406   1.735   4.433   6.143 -0.9258 -0.6673 -1.6563
  149SAPE     P16407   1.859   4.188   6.352 -0.0132 -0.0403 -0.1524
  149SAPE   O1316408   1.751   4.081   6.329  0.3890 -0.5821  0.5934
  149SAPE   O1416409   2.001   4.144   6.375  0.1375  0.1597 -0.1326
  149SAPE   O1216410   1.857   4.284   6.231 -0.0120 -0.3192 -0.8826
  149SAPE   O1116411   1.820   4.277   6.474 -0.8053  0.2344 -0.6529
  149SAPE    C116412   1.917   4.373   6.520 -1.3845  0.1707  0.1349
  149SAPE    HA16413   1.987   4.408   6.441 -0.6862  1.0098  1.1001
  149SAPE    HB16414   1.860   4.464   6.549  1.2990  1.9596  0.1685
  149SAPE    C216415   1.990   4.323   6.649  0.3005 -0.3433  0.9120
  149SAPE    HS16416   2.050   4.240   6.606 -2.5901 -2.1516  0.0747
  149SAPE   O2116417   1.885   4.283   6.743 -0.6608 -0.2677  0.2836
  149SAPE   C2116418   1.894   4.160   6.791 -0.5496  0.2560 -0.5862
  149SAPE   O2216419   1.986   4.085   6.766 -0.7606 -0.3614  0.2974
  149SAPE   C2216420   1.760   4.125   6.870 -0.0938  0.4416  1.2613
  149SAPE   H2R16421   1.732   4.222   6.917  0.1374  0.3116  1.6734
  149SAPE   H2S16422   1.684   4.073   6.807  2.7926 -1.2179 -1.1516
  149SAPE    C316423   2.076   4.423   6.722  0.0257 -0.7969  0.1494
  149SAPE    HX16424   2.006   4.503   6.754  2.1236  1.3334 -0.3228
  149SAPE    HY16425   2.157   4.470   6.663  3.1395 -2.9799  2.3119
  149SAPE   O3116426   2.132   4.358   6.843 -0.0007 -0.2603  0.1271
  149SAPE   C3116427   2.243   4.280   6.828 -0.2293 -0.0175  0.7904
  149SAPE   O3216428   2.306   4.267   6.726 -0.1271  0.4435  0.2285
  149SAPE   C3216429   2.274   4.201   6.957  0.1463 -0.2977  0.1913
  149SAPE   H2X16430   2.371   4.148   6.944  0.9324  1.5006 -1.8058
  149SAPE   H2Y16431   2.184   4.136   6.959 -0.7442  0.8808 -0.8323
  149SAPE   C2316432   1.787   4.020   6.985 -0.5685 -0.5527 -0.4753
  149SAPE   H3R16433   1.845   3.937   6.940 -0.1026 -0.0473 -0.8244
  149SAPE   H3S16434   1.689   3.978   7.017 -1.2499 -0.1855 -1.9667
  149SAPE   C2416435   1.863   4.095   7.099 -0.7371 -0.0925 -0.1416
  149SAPE   H4R16436   1.795   4.172   7.141 -1.2713  0.1977 -1.4893
  149SAPE   H4S16437   1.957   4.143   7.064 -0.9301  0.3503 -0.0606
  149SAPE   C2516438   1.914   3.996   7.201 -0.3046  0.7317 -0.4001
  149SAPE   H5R16439   1.999   3.928   7.185 -1.5490 -1.3701  1.2955
  149SAPE   C2616440   1.838   3.960   7.306  0.2256 -0.1083  0.1173
  149SAPE   H6R16441   1.869   3.881   7.376  0.8999  0.2705  0.2541
  149SAPE   C2716442   1.700   4.013   7.343 -0.7396  0.7797  0.5918
  149SAPE   H7R16443   1.645   3.941   7.407 -0.9655  1.8851  1.6947
  149SAPE   H7S16444   1.641   4.025   7.250  1.1440  1.3668 -0.5859
  149SAPE   C2816445   1.689   4.150   7.411 -0.7862 -0.5357  0.1262
  149SAPE   H8R16446   1.655   4.235   7.350 -0.0172 -0.2164  0.1409
  149SAPE   C2916447   1.717   4.177   7.543 -0.0146 -0.7449 -0.9135
  149SAPE   H9R16448   1.691   4.277   7.581 -0.0912 -0.5836 -1.3803
  149SAPE  C21016449   1.754   4.079   7.653 -0.7163  0.1781  0.3439
  149SAPE  H10R16450   1.742   3.976   7.612 -1.5797  0.7614 -0.9192
  149SAPE  H10S16451   1.671   4.086   7.727  1.1140  1.5973  2.4078
  149SAPE  C21116452   1.885   4.096   7.730 -0.0603  0.1231 -0.0757
  149SAPE  H11R16453   1.979   4.085   7.673  0.0539  0.0529  0.1211
  149SAPE  C21216454   1.899   4.130   7.865  0.6983  0.2365  0.4830
  149SAPE  H12R16455   2.004   4.143   7.898  0.2653 -0.8228  2.4304
  149SAPE  C21316456   1.790   4.139   7.971  0.5116 -0.2840 -0.0578
  149SAPE  H13R16457   1.750   4.036   7.984  1.2784 -0.5457  0.2886
  149SAPE  H13S16458   1.705   4.203   7.938 -0.2002 -1.5077 -0.6899
  149SAPE  C21416459   1.845   4.173   8.108  0.5008  0.3438  0.7944
  149SAPE  H14R16460   1.955   4.174   8.115  0.5422  1.7998  0.0645
  149SAPE  C21516461   1.769   4.199   8.218  0.3058 -0.0713 -0.5795
  149SAPE  H15R16462   1.823   4.213   8.313  1.8807 -3.4134 -0.8182
  149SAPE  C21616463   1.621   4.204   8.223  0.2188 -0.7096 -0.5424
  149SAPE  H16R16464   1.587   4.175   8.325  2.3456 -2.8751 -0.3447
  149SAPE  H16S16465   1.584   4.129   8.150 -1.0491 -0.9385  0.3192
  149SAPE  C21716466   1.560   4.341   8.194  0.6895 -0.3288 -0.6184
  149SAPE  H17R16467   1.455   4.337   8.230  1.1086  0.1029  0.6995
  149SAPE  H17S16468   1.567   4.359   8.085  0.5418  3.2403 -0.1835
  149SAPE  C21816469   1.619   4.456   8.282  0.4694  0.5290  0.5667
  149SAPE  H18R16470   1.557   4.545   8.258  0.6145  0.5395  0.2196
  149SAPE  H18S16471   1.725   4.470   8.253  0.2458  0.0872 -0.5079
  149SAPE  C21916472   1.612   4.435   8.435 -0.2343 -0.3658 -0.4749
  149SAPE  H19R16473   1.668   4.344   8.465 -1.4544 -0.6538  1.0305
  149SAPE  H19S16474   1.503   4.418   8.448  0.0471 -2.3474 -0.3460
  149SAPE  C22016475   1.668   4.555   8.508 -0.1378  0.1608 -0.6449
  149SAPE  H20R16476   1.627   4.570   8.610  1.4288 -0.4962  0.1236
  149SAPE  H20S16477   1.657   4.648   8.448 -3.6067 -1.2165 -2.4495
  149SAPE  H20T16478   1.777   4.540   8.525 -0.4981 -1.1968  0.7339
  149SAPE   C3316479   2.277   4.278   7.090  0.5213  0.3237 -0.7418
  149SAPE   H3X16480   2.181   4.332   7.103  0.4495 -0.3250  1.9089
  149SAPE   H3Y16481   2.364   4.347   7.082  2.0025 -1.5254 -1.4186
  149SAPE   C3416482   2.306   4.192   7.217 -0.4108 -0.4022 -0.4313
  149SAPE   H4X16483   2.393   4.127   7.195 -0.2075 -0.0023 -0.8235
  149SAPE   H4Y16484   2.219   4.123   7.217 -1.2416  0.6187  0.0068
  149SAPE   C3516485   2.321   4.279   7.342 -0.5054 -0.2450 -0.9659
  149SAPE   H5X16486   2.225   4.330   7.365  0.4845  1.3896 -0.3211
  149SAPE   H5Y16487   2.395   4.361   7.326  0.6177  0.1615  4.3885
  149SAPE   C3616488   2.363   4.188   7.468  0.1866  0.0165  0.5047
  149SAPE   H6X16489   2.473   4.169   7.462  0.5137  2.0114 -0.9323
  149SAPE   H6Y16490   2.307   4.093   7.462  1.9401 -1.0453  0.3781
  149SAPE   C3716491   2.313   4.256   7.595  0.1765 -0.8574  0.2738
  149SAPE   H7X16492   2.205   4.274   7.574  0.8924 -0.7525 -4.2113
  149SAPE   H7Y16493   2.373   4.348   7.610  0.9220 -0.9240 -2.0042
  149SAPE   C3816494   2.325   4.175   7.724  0.0307 -0.0406 -0.2310
  149SAPE   H8X16495   2.418   4.115   7.717 -0.0051 -0.5953  2.7186
  149SAPE   H8Y16496   2.244   4.099   7.732  1.8200 -2.4126 -2.7926
  149SAPE   C3916497   2.341   4.264   7.850 -0.0166 -0.3041  0.2174
  149SAPE   H9X16498   2.432   4.326   7.844 -1.7359  2.2630 -0.8862
  149SAPE   H9Y16499   2.352   4.211   7.947  1.8275  2.0542  1.3680
  149SAPE  C31016500   2.223   4.361   7.882 -0.6597  0.4143  0.8212
  149SAPE  H10X16501   2.128   4.302   7.884  0.2211 -1.2280 -1.3462
  149SAPE  H10Y16502   2.228   4.444   7.808  0.8492  0.0485  0.4743
  149SAPE  C31116503   2.232   4.426   8.024  0.1380  0.4529 -0.6246
  149SAPE  H11X16504   2.321   4.493   8.024  0.5767 -0.0589  1.4742
  149SAPE  H11Y16505   2.263   4.340   8.087 -0.9101  0.6202  0.1454
  149SAPE  C31216506   2.102   4.484   8.073 -0.7684 -0.2984  0.1139
  149SAPE  H12X16507   2.023   4.407   8.086 -0.3870 -0.3768  2.2477
  149SAPE  H12Y16508   2.082   4.565   8.000 -0.4594 -1.7609 -1.6774
  149SAPE  C31316509   2.123   4.556   8.208  0.2445  0.1658  0.5701
  149SAPE  H13X16510   2.031   4.615   8.231 -1.6710 -2.1148 -0.7872
  149SAPE  H13Y16511   2.204   4.631   8.204  0.3399 -0.0022 -0.9617
  149SAPE  C31416512   2.140   4.453   8.326 -0.4373 -0.1599  0.1407
  149SAPE  H14X16513   2.227   4.387   8.303  0.3606  0.0893  2.2724
  149SAPE  H14Y16514   2.059   4.377   8.318 -0.3136 -0.2918  0.1437
  149SAPE  C31516515   2.151   4.516   8.470 -0.5895  0.6439  0.8462
  149SAPE  H15X16516   2.189   4.429   8.529  1.9568  0.8356 -0.3766
  149SAPE  H15Y16517   2.054   4.557   8.503 -0.1582  1.0192  1.6759
  149SAPE  C31616518   2.244   4.634   8.472 -0.0962 -0.1041 -0.2753
  149SAPE  H16X16519   2.237   4.718   8.399  1.8548 -1.0311 -1.6307
  149SAPE  H16Y16520   2.346   4.594   8.455  0.2316  0.2408  0.7995
  149SAPE  C31716521   2.273   4.692   8.617  0.1471  0.2637  0.8165
  149SAPE  H17X16522   2.319   4.618   8.686  0.8853 -1.0286 -0.9897
  149SAPE  H17Y16523   2.172   4.704   8.661  0.6857 -0.8368  2.4786
  149SAPE  C31816524   2.348   4.825   8.635 -0.2077  0.1138 -0.4590
  149SAPE  H18X16525   2.439   4.845   8.575  0.5044  2.3270  1.2359
  149SAPE  H18Y16526   2.374   4.840   8.741 -0.2695 -0.6451 -0.3307
  149SAPE  H18Z16527   2.278   4.911   8.625  1.7015  1.9651  1.3373
  150SAPE     N16528   1.012   4.799   6.109 -0.4394  0.3896 -0.0312
  150SAPE   HN116529   0.982   4.748   6.024  1.0428 -1.0207  0.2335
  150SAPE   HN216530   1.020   4.900   6.086  0.2881 -0.1948 -2.7969
  150SAPE   HN316531   1.106   4.768   6.143  0.4129  1.6507 -1.1223
  150SAPE   C1216532   0.913   4.770   6.217 -0.1520 -1.0864 -0.9935
  150SAPE  H12A16533   0.914   4.663   6.248  0.1324 -0.3469  1.9004
  150SAPE  H12B16534   0.810   4.788   6.180  0.1581  0.6423 -1.0752
  150SAPE   C1116535   0.949   4.860   6.339 -0.1730 -0.3335 -1.0796
  150SAPE  H11A16536   1.057   4.841   6.359 -0.4868 -2.9045 -1.4467
  150SAPE  H11B16537   0.884   4.824   6.422 -0.4615 -0.0140 -1.1664
  150SAPE     P16538   0.811   5.093   6.309 -0.1062 -0.1995  0.1242
  150SAPE   O1316539   0.767   5.130   6.168 -0.3880 -0.2292  0.0279
  150SAPE   O1416540   0.714   5.033   6.403  0.2422  0.7269 -0.9832
  150SAPE   O1216541   0.936   4.999   6.307  0.2450  0.3334 -0.1116
  150SAPE   O1116542   0.852   5.230   6.376 -0.1705  0.4152  0.1743
  150SAPE    C116543   0.979   5.232   6.440  0.1627  0.0530  0.4933
  150SAPE    HA16544   1.065   5.224   6.370 -1.4488  0.3854 -1.6264
  150SAPE    HB16545   0.992   5.339   6.470 -0.5741  0.1351  0.5416
  150SAPE    C216546   0.999   5.165   6.573 -0.6160  0.1134 -0.8889
  150SAPE    HS16547   0.937   5.075   6.593  1.3692 -0.7874  1.6060
  150SAPE   O2116548   0.972   5.259   6.674  0.0617 -0.4343  0.5728
  150SAPE   C2116549   0.950   5.230   6.790  0.3060 -0.4768  0.1202
  150SAPE   O2216550   0.936   5.117   6.839  0.3910  0.2481  0.3699
  150SAPE   C2216551   0.945   5.356   6.870 -0.1627  0.1384  0.4412
  150SAPE   H2R16552   1.004   5.438   6.823  0.2755  0.6789  1.8799
  150SAPE   H2S16553   0.843   5.398   6.859 -1.0960 -1.7521  1.3543
  150SAPE    C316554   1.149   5.106   6.566  0.1156  0.4931 -0.6968
  150SAPE    HX16555   1.211   5.191   6.530 -1.9517  1.9656 -0.9255
  150SAPE    HY16556   1.132   5.023   6.494 -2.5716 -0.5528  0.9892
  150SAPE   O3116557   1.197   5.058   6.696 -0.1066  0.0936  0.1284
  150SAPE   C3116558   1.137   4.939   6.722 -0.6624  1.2208 -0.2749
  150SAPE   O3216559   1.073   4.870   6.644 -0.1997  0.6317  0.2280
  150SAPE   C3216560   1.185   4.895   6.860 -0.4281 -0.5031 -0.4625
  150SAPE   H2X16561   1.103   4.940   6.921 -0.4222 -0.5522 -0.4191
  150SAPE   H2Y16562   1.284   4.943   6.873  0.3895 -2.0769 -0.6699
  150SAPE   C2316563   0.977   5.352   7.023 -1.0049 -0.1064  0.6164
  150SAPE   H3R16564   0.941   5.260   7.073  0.0338  0.0517  1.6890
  150SAPE   H3S16565   0.930   5.443   7.065  0.5618  1.1260 -0.1691
  150SAPE   C2416566   1.131   5.376   7.055  0.6606 -0.6804  0.3276
  150SAPE   H4R16567   1.138   5.395   7.164  0.2549 -2.4163  0.6855
  150SAPE   H4S16568   1.157   5.467   6.996  1.2085 -1.2727 -0.3822
  150SAPE   C2516569   1.223   5.276   7.004  0.0104 -0.0313 -0.4154
  150SAPE   H5R16570   1.228   5.274   6.894  2.4636  0.2738 -0.3595
  150SAPE   C2616571   1.303   5.195   7.077  0.1590  0.0345  0.5243
  150SAPE   H6R16572   1.365   5.117   7.030  0.6942 -0.7503  2.3993
  150SAPE   C2716573   1.301   5.185   7.226  0.4118 -0.1277 -0.0186
  150SAPE   H7R16574   1.201   5.205   7.270  0.4246 -0.2053  0.0463
  150SAPE   H7S16575   1.366   5.267   7.263  1.0179  2.0297 -5.0181
  150SAPE   C2816576   1.358   5.054   7.266 -0.0126 -0.5057 -0.2357
  150SAPE   H8R16577   1.457   5.037   7.223  1.0933  0.2920  1.8706
  150SAPE   C2916578   1.306   4.964   7.350 -0.2614  0.7698 -0.0331
  150SAPE   H9R16579   1.354   4.866   7.363 -1.8127  0.0583  0.4895
  150SAPE  C21016580   1.170   4.974   7.419  0.3703 -0.2925 -0.2986
  150SAPE  H10R16581   1.152   5.080   7.449 -0.3082 -1.3049  3.4033
  150SAPE  H10S16582   1.180   4.925   7.519  1.7659  0.4596 -0.0397
  150SAPE  C21116583   1.056   4.920   7.337  0.4928  0.0333  0.2295
  150SAPE  H11R16584   1.037   4.968   7.240 -2.6404  0.7011  1.0864
  150SAPE  C21216585   0.978   4.815   7.374  0.0523  0.7339  0.0733
  150SAPE  H12R16586   0.902   4.776   7.304  1.3503 -0.5386 -0.6857
  150SAPE  C21316587   1.003   4.738   7.502 -0.0395  0.6303 -0.4487
  150SAPE  H13R16588   1.007   4.806   7.590  1.2423  2.2944 -1.7393
  150SAPE  H13S16589   1.101   4.687   7.496 -0.1404  0.4502 -0.5778
  150SAPE  C21416590   0.898   4.625   7.517  0.2085 -0.2271  0.3486
  150SAPE  H14R16591   0.900   4.543   7.444 -0.2555 -1.1795  1.3783
  150SAPE  C21516592   0.808   4.622   7.617 -1.3668  0.3675  0.9749
  150SAPE  H15R16593   0.751   4.529   7.620 -2.1354  0.6277 -2.0710
  150SAPE  C21616594   0.774   4.721   7.717  0.0633  0.3426  0.0104
  150SAPE  H16R16595   0.679   4.767   7.682 -1.1497 -1.4617  0.7842
  150SAPE  H16S16596   0.849   4.802   7.725  0.8377  0.0439 -3.1797
  150SAPE  C21716597   0.747   4.648   7.847 -0.2074  0.0157 -0.8067
  150SAPE  H17R16598   0.841   4.622   7.901 -2.4612 -0.2536  3.3749
  150SAPE  H17S16599   0.702   4.547   7.842  1.5454 -0.9000  0.5948
  150SAPE  C21816600   0.663   4.721   7.955 -0.3387 -0.4649 -0.2589
  150SAPE  H18R16601   0.555   4.718   7.931 -0.0691  1.3672 -1.8681
  150SAPE  H18S16602   0.685   4.830   7.951 -0.1400 -0.5484 -3.0306
  150SAPE  C21916603   0.704   4.673   8.097  0.7483  0.1646 -0.7745
  150SAPE  H19R16604   0.813   4.691   8.101  0.6200  0.7448  1.4148
  150SAPE  H19S16605   0.690   4.564   8.114 -0.7277 -0.0089 -2.6577
  150SAPE  C22016606   0.644   4.749   8.213  0.4176 -0.3411 -0.5610
  150SAPE  H20R16607   0.671   4.856   8.204  0.0446 -0.2469 -0.5922
  150SAPE  H20S16608   0.687   4.702   8.304  0.1960 -1.6290 -1.0935
  150SAPE  H20T16609   0.534   4.737   8.229  0.8388 -2.4700  1.3527
  150SAPE   C3316610   1.215   4.745   6.890  0.1313 -0.0025 -0.0686
  150SAPE   H3X16611   1.320   4.727   6.859  1.0642  1.7396  1.8266
  150SAPE   H3Y16612   1.143   4.666   6.859 -1.3644  0.8189  1.1661
  150SAPE   C3416613   1.232   4.719   7.035 -0.4172 -0.9150 -0.2818
  150SAPE   H4X16614   1.134   4.744   7.081  0.5242 -1.2253  2.0343
  150SAPE   H4Y16615   1.300   4.797   7.076 -1.6157  0.0799 -0.0956
  150SAPE   C3516616   1.273   4.579   7.088  0.0195  0.2684 -0.5913
  150SAPE   H5X16617   1.359   4.538   7.031  0.8283 -1.4159  1.6939
  150SAPE   H5Y16618   1.199   4.501   7.060  0.1495  1.1493 -3.8301
  150SAPE   C3616619   1.312   4.586   7.236 -0.2639  0.3248 -0.5678
  150SAPE   H6X16620   1.235   4.629   7.304  1.3339 -0.2650  1.7454
  150SAPE   H6Y16621   1.397   4.658   7.237  0.7446 -0.8096  1.3194
  150SAPE   C3716622   1.355   4.452   7.305 -0.9929 -0.3904 -0.3031
  150SAPE   H7X16623   1.462   4.429   7.292 -0.2587  0.2324  3.4815
  150SAPE   H7Y16624   1.296   4.372   7.255 -2.5171  0.6924 -0.3333
  150SAPE   C3816625   1.344   4.452   7.457 -0.2163 -0.0302 -0.5253
  150SAPE   H8X16626   1.385   4.354   7.488  0.0884  0.3158  0.1911
  150SAPE   H8Y16627   1.234   4.443   7.472 -0.7371 -1.5950 -4.1588
  150SAPE   C3916628   1.420   4.557   7.528  0.1237 -0.8678 -0.3194
  150SAPE   H9X16629   1.371   4.654   7.504  3.7036  0.7435 -1.8696
  150SAPE   H9Y16630   1.520   4.564   7.481 -0.9243  1.7560 -2.4385
  150SAPE  C31016631   1.413   4.547   7.680  0.4692  0.2809 -0.3110
  150SAPE  H10X16632   1.451   4.640   7.727  0.1686  1.2313 -1.8513
  150SAPE  H10Y16633   1.490   4.475   7.716 -0.9585 -1.2831 -0.2707
  150SAPE  C31116634   1.284   4.510   7.758  0.2969 -0.7176 -0.5948
  150SAPE  H11X16635   1.262   4.405   7.729 -0.7954 -1.2889  1.9924
  150SAPE  H11Y16636   1.190   4.564   7.731  0.5527 -0.5109 -1.0830
  150SAPE  C31216637   1.292   4.512   7.906 -0.5917  0.0497 -0.3520
  150SAPE  H12X16638   1.301   4.616   7.943  1.4223  0.4252 -1.6766
  150SAPE  H12Y16639   1.379   4.457   7.949 -0.3986  0.1946 -0.5489
  150SAPE  C31316640   1.164   4.447   7.979 -0.1606  0.3397  0.2103
  150SAPE  H13X16641   1.149   4.348   7.932 -1.3766  0.8680 -0.5798
  150SAPE  H13Y16642   1.074   4.500   7.940 -0.5125 -1.1379 -1.0739
  150SAPE  C31416643   1.166   4.432   8.135 -0.4426 -0.2792  0.4574
  150SAPE  H14X16644   1.256   4.371   8.157  0.3473  0.5182 -0.4684
  150SAPE  H14Y16645   1.077   4.372   8.166 -0.4942  0.3772  1.6548
  150SAPE  C31516646   1.173   4.567   8.210  0.4270 -0.4011  0.2733
  150SAPE  H15X16647   1.080   4.618   8.177 -0.4706 -1.1521  1.5658
  150SAPE  H15Y16648   1.250   4.640   8.177 -0.5000  0.4263 -0.1296
  150SAPE  C31616649   1.170   4.549   8.366  0.4980  0.1677  0.5528
  150SAPE  H16X16650   1.271   4.527   8.406  1.3532  0.3433 -1.3628
  150SAPE  H16Y16651   1.112   4.458   8.391 -0.2167  0.5917  0.4776
  150SAPE  C31716652   1.098   4.664   8.436  0.3763  0.3695  0.0903
  150SAPE  H17X16653   1.105   4.653   8.546 -0.5722 -0.3936  0.0919
  150SAPE  H17Y16654   0.987   4.658   8.424  0.4669 -2.3859 -0.0294
  150SAPE  C31816655   1.164   4.795   8.395  0.4064  0.4825 -0.4002
  150SAPE  H18X16656   1.144   4.818   8.288 -0.0461 -2.4113 -1.0302
  150SAPE  H18Y16657   1.274   4.795   8.404  0.3732  2.6433  0.7706
  150SAPE  H18Z16658   1.131   4.876   8.463 -0.8686 -2.0932  2.2884
  151SAPE     N16659   3.396   3.499   6.264 -0.4491  0.2000 -0.8659
  151SAPE   HN116660   3.327   3.535   6.196  0.4604 -0.6834 -2.3156
  151SAPE   HN216661   3.432   3.570   6.331 -3.0276  0.2963  0.5333
  151SAPE   HN316662   3.481   3.464   6.215  1.1212 -0.9043  2.3653
  151SAPE   C1216663   3.353   3.372   6.337  0.4646  0.2795  0.3713
  151SAPE  H12A16664   3.300   3.403   6.430  0.3426 -1.7094  1.0104
  151SAPE  H12B16665   3.442   3.306   6.348  1.0811  0.6104 -2.0276
  151SAPE   C1116666   3.279   3.293   6.231  0.3977 -0.3013  0.3983
  151SAPE  H11A16667   3.256   3.194   6.274 -0.8308  0.0667  0.6502
  151SAPE  H11B16668   3.353   3.290   6.149  1.1031  1.2234  0.9341
  151SAPE     P16669   3.007   3.295   6.205 -0.3078  0.1183  0.1998
  151SAPE   O1316670   2.969   3.283   6.064 -0.4815 -0.1669 -0.1333
  151SAPE   O1416671   3.006   3.162   6.272 -0.1955 -0.2976 -0.4335
  151SAPE   O1216672   3.157   3.353   6.185 -0.4476 -0.2842 -0.6806
  151SAPE   O1116673   2.924   3.397   6.286  0.0097  0.5515  0.5388
  151SAPE    C116674   2.945   3.537   6.278  0.3054 -0.0591  0.2271
  151SAPE    HA16675   3.003   3.561   6.186  1.4800 -1.9927  0.4137
  151SAPE    HB16676   2.846   3.586   6.271  0.5978  0.4925 -0.1353
  151SAPE    C216677   3.035   3.591   6.383  0.0578 -0.4766  0.3878
  151SAPE    HS16678   3.127   3.530   6.395 -0.2305 -1.1420 -0.7050
  151SAPE   O2116679   2.950   3.594   6.500 -0.2675  0.7443  0.2595
  151SAPE   C2116680   2.989   3.503   6.589 -0.0341  0.1913  0.0812
  151SAPE   O2216681   3.086   3.433   6.576 -0.1543  0.0294  0.5119
  151SAPE   C2216682   2.895   3.510   6.712  0.4344 -0.1258  0.0997
  151SAPE   H2R16683   2.909   3.607   6.765  2.7864 -0.8770  0.9975
  151SAPE   H2S16684   2.793   3.510   6.668  0.7628  0.2111 -0.6747
  151SAPE    C316685   3.079   3.742   6.360  0.5667  0.2925  0.5908
  151SAPE    HX16686   2.983   3.786   6.327 -0.4092 -3.1598 -1.7134
  151SAPE    HY16687   3.141   3.748   6.268 -2.3936  3.3823 -1.3958
  151SAPE   O3116688   3.130   3.805   6.482  0.1962 -0.0074  0.0329
  151SAPE   C3116689   3.260   3.786   6.484 -1.1068 -0.2952 -0.4834
  151SAPE   O3216690   3.331   3.717   6.409  0.5037  0.7763  0.1088
  151SAPE   C3216691   3.319   3.877   6.593 -0.4809  0.4468 -0.7528
  151SAPE   H2X16692   3.277   3.980   6.586  0.0446  0.6396 -1.1932
  151SAPE   H2Y16693   3.429   3.887   6.582 -0.7681  3.0705 -1.8770
  151SAPE   C2316694   2.915   3.396   6.812 -0.0729 -0.4383  0.6888
  151SAPE   H3R16695   3.005   3.417   6.873  0.5695  3.3959 -1.2334
  151SAPE   H3S16696   2.926   3.304   6.752  0.1932 -0.2085  0.3834
  151SAPE   C2416697   2.794   3.381   6.908  0.5079 -0.2119  0.2181
  151SAPE   H4R16698   2.808   3.286   6.964  0.0413 -1.4837 -1.7522
  151SAPE   H4S16699   2.704   3.389   6.844  1.4350  1.4051 -0.9464
  151SAPE   C2516700   2.767   3.491   7.008 -0.8770 -0.2503 -0.2502
  151SAPE   H5R16701   2.734   3.585   6.964 -1.7543 -0.0930  0.7041
  151SAPE   C2616702   2.791   3.485   7.142 -0.0678  0.0435  0.0942
  151SAPE   H6R16703   2.764   3.577   7.195 -1.9257 -0.4267  0.0104
  151SAPE   C2716704   2.861   3.379   7.228 -0.0670  0.3243 -0.6106
  151SAPE   H7R16705   2.900   3.298   7.164  1.1590  0.4271 -0.0337
  151SAPE   H7S16706   2.791   3.338   7.304 -1.6790 -1.6276 -3.0251
  151SAPE   C2816707   2.984   3.434   7.295  0.1357  0.1408 -0.3359
  151SAPE   H8R16708   3.073   3.458   7.234 -1.1202  1.3974 -1.7553
  151SAPE   C2916709   2.999   3.456   7.430  0.2465 -0.4163  0.0182
  151SAPE   H9R16710   3.096   3.494   7.465  0.3515  0.9787 -1.6083
  151SAPE  C21016711   2.891   3.447   7.538 -0.2042  0.1382 -0.9925
  151SAPE  H10R16712   2.787   3.455   7.500 -0.1798 -3.4638 -2.2591
  151SAPE  H10S16713   2.916   3.529   7.607 -0.3797 -0.4242 -0.2453
  151SAPE  C21116714   2.918   3.317   7.606 -0.2833 -0.1886  0.1813
  151SAPE  H11R16715   2.930   3.235   7.533  0.6968  0.6133 -0.6044
  151SAPE  C21216716   2.930   3.285   7.737 -0.2257 -0.7529  0.4418
  151SAPE  H12R16717   2.949   3.180   7.765 -3.0584 -1.7461 -0.9589
  151SAPE  C21316718   2.919   3.383   7.855 -0.7019 -0.6350 -0.4903
  151SAPE  H13R16719   2.833   3.359   7.921  0.9449 -1.2502  1.5638
  151SAPE  H13S16720   2.897   3.486   7.821 -1.4618 -0.7987 -0.5198
  151SAPE  C21416721   3.039   3.384   7.956  0.3156 -0.7422  0.9255
  151SAPE  H14R16722   3.139   3.354   7.922  0.7935  0.5227  1.1506
  151SAPE  C21516723   3.041   3.429   8.078  0.7189 -0.4175 -0.3343
  151SAPE  H15R16724   3.129   3.426   8.145 -1.3078 -0.8660  2.5207
  151SAPE  C21616725   2.921   3.500   8.139 -0.3156  0.5139  0.1296
  151SAPE  H16R16726   2.852   3.544   8.063 -2.6976 -3.0585  0.0133
  151SAPE  H16S16727   2.960   3.589   8.192 -0.2864  0.3364  0.4033
  151SAPE  C21716728   2.840   3.405   8.229 -0.5802 -0.3737  0.5644
  151SAPE  H17R16729   2.899   3.357   8.310 -1.9589 -1.2801  1.0681
  151SAPE  H17S16730   2.809   3.317   8.168  1.2046 -0.6343 -0.0178
  151SAPE  C21816731   2.713   3.474   8.282  0.5546  0.1712 -0.5379
  151SAPE  H18R16732   2.644   3.521   8.208  0.5775  2.8113  1.0046
  151SAPE  H18S16733   2.745   3.555   8.350  0.0096 -0.4013  0.4150
  151SAPE  C21916734   2.627   3.394   8.383  0.0343  0.6341  0.3782
  151SAPE  H19R16735   2.701   3.327   8.433 -1.7958 -2.5306 -0.8146
  151SAPE  H19S16736   2.552   3.332   8.330  1.0679 -1.2272  0.9901
  151SAPE  C22016737   2.550   3.483   8.488  0.3889 -0.1977  0.5588
  151SAPE  H20R16738   2.479   3.419   8.545 -2.5047 -1.2032 -3.6552
  151SAPE  H20S16739   2.619   3.540   8.553 -0.7255  0.8198  0.8958
  151SAPE  H20T16740   2.497   3.558   8.425  1.4615 -1.1333 -1.5554
  151SAPE   C3316741   3.301   3.821   6.743  0.4187 -0.3975  0.4983
  151SAPE   H3X16742   3.354   3.894   6.808 -1.5329  0.8260  0.8114
  151SAPE   H3Y16743   3.357   3.725   6.746 -0.6256 -1.1001 -0.9999
  151SAPE   C3416744   3.157   3.798   6.806  0.7475  0.2003 -0.7245
  151SAPE   H4X16745   3.079   3.763   6.735  1.4344  0.8105 -1.8083
  151SAPE   H4Y16746   3.111   3.897   6.822  1.1719  0.2253  0.4175
  151SAPE   C3516747   3.156   3.723   6.944 -0.4866  0.4644  0.1138
  151SAPE   H5X16748   3.209   3.626   6.948  0.1916  0.8696  1.8265
  151SAPE   H5Y16749   3.049   3.695   6.956 -0.7108 -0.0104 -2.3949
  151SAPE   C3616750   3.202   3.811   7.062 -0.2302 -0.4755 -0.2485
  151SAPE   H6X16751   3.132   3.897   7.060  2.2356  1.8143  2.5008
  151SAPE   H6Y16752   3.304   3.851   7.046 -0.6029  0.3361 -0.6918
  151SAPE   C3716753   3.191   3.743   7.198  0.2308  0.3736 -0.3598
  151SAPE   H7X16754   3.251   3.649   7.204 -1.0808 -0.4623  0.1218
  151SAPE   H7Y16755   3.084   3.715   7.212 -0.4105  2.4273 -0.8857
  151SAPE   C3816756   3.235   3.825   7.323  0.3629  0.0613  0.4678
  151SAPE   H8X16757   3.154   3.900   7.337  0.5782  0.3028  0.4191
  151SAPE   H8Y16758   3.329   3.882   7.312  0.0550  0.3330 -0.9247
  151SAPE   C3916759   3.255   3.740   7.441 -0.7619  0.8766 -0.1014
  151SAPE   H9X16760   3.331   3.659   7.428 -1.0153  0.8510 -1.6422
  151SAPE   H9Y16761   3.153   3.699   7.454 -1.2832  2.1272 -0.1420
  151SAPE  C31016762   3.288   3.832   7.562 -0.2266  0.7589 -0.5788
  151SAPE  H10X16763   3.216   3.916   7.561 -1.6482 -0.4094 -0.7299
  151SAPE  H10Y16764   3.389   3.873   7.541 -0.1905 -0.2458 -2.6933
  151SAPE  C31116765   3.295   3.756   7.696 -0.0393  0.3423 -0.0397
  151SAPE  H11X16766   3.363   3.669   7.685 -0.7528 -0.1253 -0.8845
  151SAPE  H11Y16767   3.191   3.726   7.722 -0.5793  1.4724 -0.7993
  151SAPE  C31216768   3.345   3.831   7.821 -0.2496  0.4168  0.3411
  151SAPE  H12X16769   3.292   3.929   7.826 -0.3439  0.4603 -1.0755
  151SAPE  H12Y16770   3.450   3.868   7.818 -0.0645  0.1013  2.0195
  151SAPE  C31316771   3.328   3.753   7.950 -0.7049 -0.0825  1.1836
  151SAPE  H13X16772   3.405   3.676   7.927 -1.0262 -0.2493  0.6582
  151SAPE  H13Y16773   3.227   3.708   7.950 -1.2712  1.1436  1.3127
  151SAPE  C31416774   3.344   3.830   8.079 -0.8054 -0.5921  0.7378
  151SAPE  H14X16775   3.253   3.814   8.141 -1.7939  1.2786 -0.1237
  151SAPE  H14Y16776   3.345   3.940   8.060 -0.1290 -0.6420  0.4613
  151SAPE  C31516777   3.466   3.791   8.153 -0.5987  0.1812 -0.0373
  151SAPE  H15X16778   3.558   3.813   8.093 -0.8432  2.1008  0.2143
  151SAPE  H15Y16779   3.460   3.680   8.159  3.9899 -0.3935 -1.7589
  151SAPE  C31616780   3.481   3.838   8.300 -0.8348  0.1482 -0.1378
  151SAPE  H16X16781   3.394   3.827   8.368 -0.2973 -0.2337  0.5059
  151SAPE  H16Y16782   3.491   3.948   8.301 -0.7137  0.2054  3.2001
  151SAPE  C31716783   3.605   3.776   8.356 -0.4646  0.0172  0.1688
  151SAPE  H17X16784   3.695   3.774   8.291 -0.0444  1.3517  0.6886
  151SAPE  H17Y16785   3.582   3.668   8.374  1.6471 -0.7589 -1.3273
  151SAPE  C31816786   3.647   3.844   8.484  0.4856 -0.1679 -0.6743
  151SAPE  H18X16787   3.565   3.847   8.559  3.0147  0.3615  2.2785
  151SAPE  H18Y16788   3.693   3.944   8.469  0.3578  0.0570  0.3654
  151SAPE  H18Z16789   3.731   3.777   8.513  0.3184 -1.3317 -2.6775
  152SAPE     N16790   0.409   5.296   6.203 -0.2944 -0.1470 -0.2561
  152SAPE   HN116791   0.354   5.385   6.203 -0.3870 -0.1826 -1.5609
  152SAPE   HN216792   0.505   5.319   6.169  0.4740 -0.2390  1.7096
  152SAPE   HN316793   0.356   5.232   6.140 -2.5831  2.0009 -0.6779
  152SAPE   C1216794   0.429   5.226   6.335  0.4029  0.0415  0.8426
  152SAPE  H12A16795   0.492   5.294   6.396  1.3425  0.2359 -0.3257
  152SAPE  H12B16796   0.491   5.136   6.319  0.7385  0.3582  0.3373
  152SAPE   C1116797   0.288   5.203   6.390 -0.8192  0.0297  0.2086
  152SAPE  H11A16798   0.241   5.303   6.394 -0.1807  0.3479 -0.1293
  152SAPE  H11B16799   0.296   5.175   6.498 -0.5876  0.6665  0.3622
  152SAPE     P16800   0.249   4.951   6.314  0.1472  0.0796  0.1782
  152SAPE   O1316801   0.115   4.882   6.315 -0.1910  0.0750  0.5976
  152SAPE   O1416802   0.336   4.928   6.197  0.0689 -0.5971  0.5172
  152SAPE   O1216803   0.214   5.104   6.314  0.1137 -0.0024 -0.8893
  152SAPE   O1116804   0.318   4.927   6.453 -0.3681  0.4660  0.0457
  152SAPE    C116805   0.269   4.813   6.533  0.0863 -0.0281  0.2965
  152SAPE    HA16806   0.245   4.726   6.469 -1.4355  0.1415  0.5922
  152SAPE    HB16807   0.341   4.778   6.610  0.1569  0.4919  0.4712
  152SAPE    C216808   0.155   4.845   6.631  0.7733  0.0624 -0.4021
  152SAPE    HS16809   0.073   4.905   6.587 -0.6054  0.5125  2.5155
  152SAPE   O2116810   0.211   4.918   6.740  0.0759 -0.6124  0.0662
  152SAPE   C2116811   0.176   5.045   6.743 -0.6329 -0.1535 -0.2107
  152SAPE   O2216812   0.079   5.092   6.691  0.3150  0.3955 -0.1939
  152SAPE   C2216813   0.267   5.112   6.840 -0.6213  0.1680 -0.2680
  152SAPE   H2R16814   0.261   5.064   6.940 -0.3807  1.3978  0.3616
  152SAPE   H2S16815   0.370   5.096   6.802 -1.3154 -0.2212 -2.0674
  152SAPE    C316816   0.077   4.723   6.685  0.3735 -0.2509 -0.3522
  152SAPE    HX16817   0.147   4.654   6.736  1.3562  0.6125 -0.5063
  152SAPE    HY16818   0.052   4.666   6.593  2.2019 -0.1243 -0.9767
  152SAPE   O3116819  -0.052   4.758   6.741 -0.0496 -0.0494  0.1091
  152SAPE   C3116820  -0.075   4.717   6.869  0.2350 -0.2918 -0.1491
  152SAPE   O3216821   0.001   4.638   6.930  0.5606 -0.8460  0.0695
  152SAPE   C3216822  -0.200   4.783   6.921 -0.9055  0.2240  1.0366
  152SAPE   H2X16823  -0.292   4.765   6.862  0.2879 -0.0733 -0.8224
  152SAPE   H2Y16824  -0.175   4.891   6.931 -1.5599  0.3011  1.9398
  152SAPE   C2316825   0.238   5.265   6.863  0.3902 -0.2293  0.9450
  152SAPE   H3R16826   0.197   5.306   6.768  1.5372  1.3034  1.0671
  152SAPE   H3S16827   0.337   5.315   6.874 -0.0339  0.2458  3.0033
  152SAPE   C2416828   0.138   5.307   6.971 -0.1157  0.2040 -0.0480
  152SAPE   H4R16829   0.139   5.418   6.978 -0.1113  0.3426 -1.7988
  152SAPE   H4S16830   0.172   5.272   7.071  1.2305 -0.0519 -0.5730
  152SAPE   C2516831   0.000   5.257   6.938  0.5678 -0.0811 -0.5941
  152SAPE   H5R16832  -0.058   5.307   6.859 -1.9304 -0.4586  0.9322
  152SAPE   C2616833  -0.066   5.162   7.004 -0.6782 -0.3397  0.4004
  152SAPE   H6R16834  -0.165   5.138   6.962 -0.7766  0.7496 -0.0143
  152SAPE   C2716835  -0.009   5.073   7.117  0.4075 -0.3193  0.0515
  152SAPE   H7R16836   0.089   5.114   7.151  0.1310  0.1102  0.3361
  152SAPE   H7S16837   0.016   4.972   7.077  2.3751 -0.8582  2.4113
  152SAPE   C2816838  -0.114   5.046   7.227  0.2260 -0.2497 -0.3972
  152SAPE   H8R16839  -0.189   4.967   7.211  0.6415 -0.2775 -2.6030
  152SAPE   C2916840  -0.124   5.113   7.345 -0.0336  0.0152 -0.7508
  152SAPE   H9R16841  -0.192   5.074   7.423 -0.7595  0.2709 -1.2375
  152SAPE  C21016842  -0.036   5.231   7.386  0.3505  0.3763 -0.1477
  152SAPE  H10R16843  -0.081   5.331   7.404 -0.4986  0.3243 -1.8046
  152SAPE  H10S16844   0.029   5.255   7.299  0.9451  1.2040  0.4989
  152SAPE  C21116845   0.063   5.196   7.496 -0.4967  0.0659  0.1551
  152SAPE  H11R16846   0.092   5.091   7.500  0.4226  0.3317  0.8833
  152SAPE  C21216847   0.114   5.279   7.582  0.5910 -0.3852  0.4242
  152SAPE  H12R16848   0.181   5.236   7.658 -0.1130 -2.3972 -0.0230
  152SAPE  C21316849   0.086   5.428   7.602 -0.4466 -0.0415  0.8372
  152SAPE  H13R16850   0.035   5.470   7.514  1.2760  0.2164 -0.0772
  152SAPE  H13S16851   0.180   5.486   7.596 -1.3221  1.3937  0.6004
  152SAPE  C21416852   0.012   5.459   7.727  0.2664  0.2191 -0.1842
  152SAPE  H14R16853  -0.089   5.415   7.736  0.7461 -0.6503  1.3714
  152SAPE  C21516854   0.062   5.536   7.826  0.1264 -0.7162  0.7090
  152SAPE  H15R16855  -0.002   5.572   7.908  1.0774 -1.4348  1.8009
  152SAPE  C21616856   0.202   5.600   7.840  0.0864  0.1113 -0.3464
  152SAPE  H16R16857   0.270   5.578   7.755 -0.9377 -1.2162 -0.8670
  152SAPE  H16S16858   0.251   5.537   7.916  1.1044 -1.0041 -1.8642
  152SAPE  C21716859   0.214   5.745   7.900 -0.5724  0.9739  1.0043
  152SAPE  H17R16860   0.145   5.817   7.851 -0.7632 -1.3154 -2.3666
  152SAPE  H17S16861   0.318   5.775   7.874  0.3640 -2.9543 -0.3788
  152SAPE  C21816862   0.190   5.749   8.056 -0.9689 -0.7419  0.8739
  152SAPE  H18R16863   0.266   5.687   8.108 -0.8086 -0.8455  0.5217
  152SAPE  H18S16864   0.088   5.723   8.091 -2.1799  1.1777 -0.9944
  152SAPE  C21916865   0.240   5.886   8.092  0.1940 -0.2595  0.1131
  152SAPE  H19R16866   0.169   5.962   8.054 -0.7441  1.0998  4.0307
  152SAPE  H19S16867   0.342   5.901   8.050 -0.6583  0.5908 -1.7730
  152SAPE  C22016868   0.242   5.914   8.253 -0.0878 -0.3864  0.7445
  152SAPE  H20R16869   0.248   6.025   8.257 -3.6385 -0.0969  0.4365
  152SAPE  H20S16870   0.333   5.868   8.297 -0.8677 -3.1337 -0.3241
  152SAPE  H20T16871   0.152   5.875   8.304  0.0170 -0.9163  0.5317
  152SAPE   C3316872  -0.237   4.733   7.059 -0.2616 -0.7493 -0.2220
  152SAPE   H3X16873  -0.300   4.814   7.102  1.1962  0.7289 -0.7771
  152SAPE   H3Y16874  -0.153   4.732   7.132 -0.8614  0.1830  0.4995
  152SAPE   C3416875  -0.327   4.607   7.054 -0.1302 -0.7279  0.2200
  152SAPE   H4X16876  -0.269   4.514   7.037  1.8349  0.4814  0.0575
  152SAPE   H4Y16877  -0.397   4.622   6.969 -2.2730 -0.3763  1.9440
  152SAPE   C3516878  -0.422   4.589   7.177 -0.3507  0.4820  0.4533
  152SAPE   H5X16879  -0.483   4.496   7.172 -0.3246  0.2783  2.6973
  152SAPE   H5Y16880  -0.488   4.677   7.195 -1.2270  0.2721 -1.5439
  152SAPE   C3616881  -0.348   4.566   7.312 -0.2392 -0.2619 -0.3693
  152SAPE   H6X16882  -0.266   4.640   7.301 -0.2566 -0.3628 -1.2069
  152SAPE   H6Y16883  -0.296   4.468   7.305  2.2480  1.0662 -2.1638
  152SAPE   C3716884  -0.436   4.588   7.438 -1.1049  0.0571  0.3239
  152SAPE   H7X16885  -0.482   4.488   7.455 -1.1558 -0.2054 -1.1636
  152SAPE   H7Y16886  -0.522   4.657   7.429 -0.6728  0.5500 -0.1281
  152SAPE   C3816887  -0.355   4.640   7.560  0.5828 -0.3840 -0.2560
  152SAPE   H8X16888  -0.321   4.745   7.543  1.2287 -0.5729 -0.1596
  152SAPE   H8Y16889  -0.268   4.581   7.596  1.3398  2.1836  2.5527
  152SAPE   C3916890  -0.452   4.639   7.687  0.0961 -0.4847  0.4301
  152SAPE   H9X16891  -0.509   4.543   7.689  0.1900 -0.5668 -0.4909
  152SAPE   H9Y16892  -0.519   4.728   7.682 -0.2327 -0.7610 -0.1481
  152SAPE  C31016893  -0.375   4.631   7.819 -0.3774  0.3218 -0.2894
  152SAPE  H10X16894  -0.307   4.718   7.830  0.3063 -0.0021 -1.7869
  152SAPE  H10Y16895  -0.304   4.546   7.819 -0.6070  0.0912  1.7271
  152SAPE  C31116896  -0.466   4.613   7.937 -0.1252  0.7724 -0.0708
  152SAPE  H11X16897  -0.532   4.526   7.924 -0.3706  1.0454 -0.6725
  152SAPE  H11Y16898  -0.528   4.704   7.952 -2.3331 -0.8411  1.0749
  152SAPE  C31216899  -0.397   4.581   8.069  0.1199 -0.1945 -0.2977
  152SAPE  H12X16900  -0.320   4.501   8.055  0.6700 -0.0117  1.4123
  152SAPE  H12Y16901  -0.471   4.552   8.146 -1.2958  3.3039 -0.1688
  152SAPE  C31316902  -0.308   4.702   8.114 -0.1290  0.1929 -0.1909
  152SAPE  H13X16903  -0.369   4.795   8.109 -1.6296 -0.7695 -0.1679
  152SAPE  H13Y16904  -0.231   4.717   8.035 -0.4939 -0.4920 -0.6839
  152SAPE  C31416905  -0.249   4.676   8.248  0.5620  0.0701 -0.4211
  152SAPE  H14X16906  -0.151   4.727   8.241  0.0067  0.9648 -2.5254
  152SAPE  H14Y16907  -0.223   4.569   8.259  0.9043  0.2879  1.1363
  152SAPE  C31516908  -0.318   4.725   8.382  0.2816  0.3042  0.6202
  152SAPE  H15X16909  -0.382   4.638   8.408  0.1408  0.5486  1.1010
  152SAPE  H15Y16910  -0.383   4.812   8.361 -0.2892  0.0830  1.4630
  152SAPE  C31616911  -0.211   4.766   8.498  0.3327 -0.3883  1.1884
  152SAPE  H16X16912  -0.128   4.692   8.495 -1.0103 -1.9078 -1.1533
  152SAPE  H16Y16913  -0.276   4.759   8.588  0.5761  0.6650  1.4587
  152SAPE  C31716914  -0.166   4.914   8.486  0.3106  0.4459  0.3569
  152SAPE  H17X16915  -0.149   4.934   8.594 -0.6775  1.6655  0.3162
  152SAPE  H17Y16916  -0.239   4.993   8.457 -1.6708 -0.6735  1.9914
  152SAPE  C31816917  -0.038   4.931   8.407  0.1519  0.0834 -0.4020
  152SAPE  H18X16918  -0.055   4.929   8.297 -0.7974  2.4382 -0.3511
  152SAPE  H18Y16919   0.033   4.849   8.430 -0.7607 -0.8447 -0.8069
  152SAPE  H18Z16920   0.019   5.023   8.432  2.5997 -1.3473 -0.4179
  153SAPE     N16921   2.535   0.834   5.982  0.2116  0.0035 -0.4121
  153SAPE   HN116922   2.572   0.894   5.906  0.6730  0.5069  0.1973
  153SAPE   HN216923   2.510   0.745   5.934 -0.1880 -0.2634  0.2703
  153SAPE   HN316924   2.452   0.876   6.028  0.6676  0.6545 -0.1632
  153SAPE   C1216925   2.654   0.808   6.068  0.2461  0.4404 -0.2592
  153SAPE  H12A16926   2.619   0.736   6.145 -0.2559  1.3194  0.3502
  153SAPE  H12B16927   2.699   0.893   6.124  1.0619  0.5286 -1.0249
  153SAPE   C1116928   2.769   0.752   5.976 -0.1397 -0.9420 -0.2364
  153SAPE  H11A16929   2.783   0.819   5.888  2.7202 -0.1805  0.6823
  153SAPE  H11B16930   2.733   0.657   5.931 -1.0872 -0.9493  0.4793
  153SAPE     P16931   2.952   0.617   6.117  0.3387  0.2493  0.3488
  153SAPE   O1316932   2.839   0.521   6.157 -0.2393 -0.7977  0.4793
  153SAPE   O1416933   3.065   0.571   6.038 -0.0555  0.6377  0.8443
  153SAPE   O1216934   2.898   0.747   6.039  0.3675 -0.0576 -0.3071
  153SAPE   O1116935   2.997   0.674   6.256 -0.2624 -0.8451  0.7914
  153SAPE    C116936   2.922   0.774   6.332 -0.4937 -0.1137  0.3251
  153SAPE    HA16937   2.832   0.810   6.278  0.2637  1.7418  0.2442
  153SAPE    HB16938   2.895   0.722   6.426  1.9505  1.0762  1.7726
  153SAPE    C216939   3.012   0.900   6.358 -0.0195  0.2904 -0.0937
  153SAPE    HS16940   3.021   0.946   6.257  0.1359  1.2218  0.3356
  153SAPE   O2116941   3.133   0.864   6.417 -0.3189  0.5818 -0.1737
  153SAPE   C2116942   3.231   0.957   6.408  0.4353  0.3114 -0.3526
  153SAPE   O2216943   3.219   1.067   6.362 -0.0236 -0.5118 -0.0097
  153SAPE   C2216944   3.365   0.899   6.464 -0.1485  0.3208  0.4415
  153SAPE   H2R16945   3.350   0.799   6.509  1.3557 -0.9918 -1.7895
  153SAPE   H2S16946   3.425   0.881   6.373 -0.4282  1.5002  0.0007
  153SAPE    C316947   2.929   1.004   6.447 -0.0595  1.2711  0.0483
  153SAPE    HX16948   2.829   1.022   6.401  0.3571 -1.0746 -1.9839
  153SAPE    HY16949   2.992   1.095   6.451  0.4530  0.9043  0.3969
  153SAPE   O3116950   2.913   0.947   6.575 -0.1577 -0.3082 -0.4542
  153SAPE   C3116951   2.991   0.996   6.671  0.2679  0.5724 -0.6082
  153SAPE   O3216952   3.064   1.095   6.663  0.4022 -0.1410  0.5432
  153SAPE   C3216953   2.975   0.910   6.798 -0.6936  0.1193  0.0225
  153SAPE   H2X16954   3.038   0.818   6.806 -0.7456  0.2063  1.9681
  153SAPE   H2Y16955   2.873   0.866   6.796 -1.0504  0.9369 -2.1555
  153SAPE   C2316956   3.444   0.983   6.564  0.3670 -0.4090 -0.2578
  153SAPE   H3R16957   3.456   1.079   6.509 -1.9964 -1.2581 -2.4909
  153SAPE   H3S16958   3.545   0.947   6.590 -1.0239 -3.1112  1.9256
  153SAPE   C2416959   3.385   1.011   6.709  0.3500 -0.2654  0.2292
  153SAPE   H4R16960   3.282   1.051   6.700  0.8830  1.3603  1.0761
  153SAPE   H4S16961   3.443   1.098   6.746  0.0320  0.0714 -0.0610
  153SAPE   C2516962   3.367   0.890   6.799  0.4173 -0.0215 -0.3464
  153SAPE   H5R16963   3.302   0.813   6.756  0.0360 -0.2978  0.6805
  153SAPE   C2616964   3.409   0.879   6.926  0.4551 -0.3839 -0.1553
  153SAPE   H6R16965   3.410   0.780   6.976  0.0773 -1.2909 -1.8872
  153SAPE   C2716966   3.472   0.988   7.011 -0.5423  0.3475 -0.2585
  153SAPE   H7R16967   3.469   1.093   6.976 -0.9823  0.8898  1.3135
  153SAPE   H7S16968   3.582   0.974   7.025 -0.0259  3.0093 -1.1875
  153SAPE   C2816969   3.404   1.001   7.143 -0.3961 -0.2384 -0.1347
  153SAPE   H8R16970   3.313   1.062   7.135 -1.1164 -1.4479 -1.8338
  153SAPE   C2916971   3.448   0.956   7.261  0.4818 -1.0729 -0.7278
  153SAPE   H9R16972   3.385   0.977   7.349  1.4595 -0.0705 -0.2577
  153SAPE  C21016973   3.572   0.874   7.287 -0.4296 -0.2051  0.3738
  153SAPE  H10R16974   3.612   0.903   7.386  1.4460 -2.1448  0.2563
  153SAPE  H10S16975   3.648   0.918   7.219 -0.8441  1.1013  0.7213
  153SAPE  C21116976   3.541   0.731   7.276 -0.3052  0.3144 -0.3867
  153SAPE  H11R16977   3.485   0.699   7.187 -1.7116  1.6321  0.0006
  153SAPE  C21216978   3.577   0.640   7.371  0.3593 -0.0404 -0.0694
  153SAPE  H12R16979   3.542   0.536   7.367  1.9873 -0.5799 -2.0224
  153SAPE  C21316980   3.659   0.665   7.498  0.1050 -0.2083  0.0438
  153SAPE  H13R16981   3.713   0.760   7.476 -1.2124  1.1035  2.1418
  153SAPE  H13S16982   3.736   0.586   7.512 -0.3291 -0.3089  2.1527
  153SAPE  C21416983   3.571   0.676   7.621 -0.0528 -0.1703  0.3475
  153SAPE  H14R16984   3.466   0.704   7.607 -1.1106 -3.3795  0.9728
  153SAPE  C21516985   3.621   0.651   7.747  0.0021 -0.0362  0.3773
  153SAPE  H15R16986   3.559   0.675   7.834  0.2843  2.4966 -0.0640
  153SAPE  C21616987   3.758   0.595   7.773 -0.3884  0.5864  0.0990
  153SAPE  H16R16988   3.802   0.667   7.846 -1.1305 -1.2477  2.4731
  153SAPE  H16S16989   3.823   0.586   7.684 -0.9472 -1.2914 -0.1462
  153SAPE  C21716990   3.755   0.455   7.844 -0.5888  0.0339  0.1804
  153SAPE  H17R16991   3.860   0.422   7.863 -1.5094 -2.1504  1.8734
  153SAPE  H17S16992   3.716   0.388   7.765 -0.4860  1.5259 -1.1932
  153SAPE  C21816993   3.695   0.444   7.985 -0.1225 -0.2626  0.1887
  153SAPE  H18R16994   3.586   0.462   7.979 -0.1111  0.3036  1.3490
  153SAPE  H18S16995   3.726   0.532   8.047  3.0374 -0.0120 -1.4960
  153SAPE  C21916996   3.714   0.317   8.065 -0.3709  0.0180 -0.4297
  153SAPE  H19R16997   3.819   0.283   8.076  0.1097  1.3625 -0.7112
  153SAPE  H19S16998   3.667   0.235   8.005 -0.5210 -0.2283  0.0156
  153SAPE  C22016999   3.645   0.331   8.201  0.2462  0.4787  0.5374
  153SAPE  H20R17000   3.539   0.345   8.171  0.7003 -0.0660 -1.4141
  153SAPE  H20S17001   3.684   0.422   8.252  0.3499  1.1970 -0.7863
  153SAPE  H20T17002   3.639   0.236   8.258  1.6418  1.0815  1.7871
  153SAPE   C3317003   3.005   0.985   6.929 -0.2442 -0.0411 -0.2347
  153SAPE   H3X17004   2.948   1.080   6.931  0.3997  0.3508  0.8917
  153SAPE   H3Y17005   3.116   0.994   6.926 -0.2440 -0.2612 -0.9583
  153SAPE   C3417006   2.958   0.905   7.050 -0.5149  0.3645  0.6379
  153SAPE   H4X17007   3.016   0.811   7.063 -0.7816  0.4374  2.7346
  153SAPE   H4Y17008   2.847   0.891   7.053 -0.5233  0.5805  2.4389
  153SAPE   C3517009   2.999   0.968   7.186 -0.2042  1.0419  0.8642
  153SAPE   H5X17010   2.985   1.078   7.193 -0.6722  0.8850  2.7279
  153SAPE   H5Y17011   3.109   0.964   7.195 -0.2288 -1.1935  0.7538
  153SAPE   C3617012   2.941   0.894   7.309 -0.2668  0.8508 -0.0879
  153SAPE   H6X17013   2.903   0.797   7.272  1.6106  0.6638 -1.6508
  153SAPE   H6Y17014   2.854   0.951   7.349 -0.4359  1.8521 -1.7998
  153SAPE   C3717015   3.044   0.878   7.426  0.5123  0.7999  0.3761
  153SAPE   H7X17016   3.054   0.982   7.465 -0.9055  0.7005  1.0940
  153SAPE   H7Y17017   3.137   0.844   7.376  0.3828  0.6302  0.2474
  153SAPE   C3817018   2.992   0.784   7.534  0.4113  0.5850 -0.1952
  153SAPE   H8X17019   3.008   0.679   7.502 -2.3474  0.1649 -0.4534
  153SAPE   H8Y17020   2.882   0.789   7.518  0.1223 -1.2078  0.9228
  153SAPE   C3917021   3.051   0.822   7.663  0.3232  0.2272  0.1986
  153SAPE   H9X17022   2.989   0.776   7.742  1.2253 -1.6201 -0.1130
  153SAPE   H9Y17023   3.046   0.931   7.683  1.5853  0.6122 -1.3714
  153SAPE  C31017024   3.191   0.780   7.682 -0.5750  0.7851 -0.9918
  153SAPE  H10X17025   3.249   0.845   7.614 -1.2763 -0.3256 -2.7260
  153SAPE  H10Y17026   3.227   0.679   7.652  1.4662  0.9339  0.7233
  153SAPE  C31117027   3.246   0.808   7.828 -0.3361  0.5014  0.1692
  153SAPE  H11X17028   3.228   0.917   7.838 -0.8923  0.3828  0.5621
  153SAPE  H11Y17029   3.356   0.798   7.833 -0.0429  2.8087 -0.6645
  153SAPE  C31217030   3.171   0.733   7.938  0.6296  0.0567  0.5275
  153SAPE  H12X17031   3.165   0.626   7.910 -3.9419  0.5034 -1.0735
  153SAPE  H12Y17032   3.063   0.756   7.949  0.8276  0.3197  2.2495
  153SAPE  C31317033   3.235   0.772   8.069 -0.0513  0.2015  0.2084
  153SAPE  H13X17034   3.164   0.811   8.145  1.7664 -2.0035  3.2384
  153SAPE  H13Y17035   3.311   0.851   8.048  0.5274 -0.3664  0.1225
  153SAPE  C31417036   3.321   0.659   8.135 -0.1824 -0.1808  0.0004
  153SAPE  H14X17037   3.419   0.701   8.167 -1.3166  4.0622 -1.5021
  153SAPE  H14Y17038   3.351   0.591   8.053 -0.8340  0.9781 -1.2337
  153SAPE  C31517039   3.253   0.579   8.242 -0.0578  0.1030  0.1567
  153SAPE  H15X17040   3.182   0.641   8.301  0.0152  1.2333 -0.8953
  153SAPE  H15Y17041   3.329   0.534   8.309  1.2959  0.1699 -1.2735
  153SAPE  C31617042   3.187   0.456   8.172  0.3509  0.0902  0.1098
  153SAPE  H16X17043   3.271   0.384   8.156  0.1029 -0.7293  2.1787
  153SAPE  H16Y17044   3.154   0.491   8.072 -0.1197 -0.2103  0.1586
  153SAPE  C31717045   3.069   0.415   8.245  0.4616 -0.2750 -0.8239
  153SAPE  H17X17046   2.995   0.497   8.231  1.1534  0.5365  0.0609
  153SAPE  H17Y17047   3.087   0.422   8.355 -1.6951  0.4637 -0.4750
  153SAPE  C31817048   3.015   0.275   8.245  0.1957  0.6105 -0.3079
  153SAPE  H18X17049   3.092   0.206   8.286  0.6631  0.8445 -0.7663
  153SAPE  H18Y17050   2.983   0.240   8.144 -3.5273  0.4977  0.7696
  153SAPE  H18Z17051   2.925   0.272   8.310  1.0298  1.0563  0.9059
  154SAPE     N17052   2.923   6.187   5.963 -0.2518  0.5706 -0.4014
  154SAPE   HN117053   2.853   6.262   5.943 -0.0673  1.1349  0.9674
  154SAPE   HN217054   3.000   6.231   6.017 -0.7713  1.3795 -0.2937
  154SAPE   HN317055   2.957   6.154   5.870  0.5485 -0.2385  0.1578
  154SAPE   C1217056   2.867   6.063   6.037  0.2074 -0.2843  0.3616
  154SAPE  H12A17057   2.947   6.010   6.093  0.6719 -0.2719 -0.2716
  154SAPE  H12B17058   2.842   5.989   5.958  1.5375 -0.0775 -0.2930
  154SAPE   C1117059   2.729   6.087   6.111 -0.3887  0.9873  0.7491
  154SAPE  H11A17060   2.749   6.167   6.186 -1.8211 -1.3249  3.7872
  154SAPE  H11B17061   2.690   5.995   6.159  0.7626  0.2876  0.3762
  154SAPE     P17062   2.569   6.272   5.991  0.1401 -0.3610 -0.4766
  154SAPE   O1317063   2.661   6.354   5.907  0.0628  0.5807 -0.2946
  154SAPE   O1417064   2.438   6.242   5.927 -0.1750 -0.3452 -0.3160
  154SAPE   O1217065   2.637   6.132   6.011  0.3570 -0.7914 -0.1209
  154SAPE   O1117066   2.552   6.335   6.136  0.1666 -0.5105  0.1603
  154SAPE    C117067   2.470   6.284   6.248 -0.2598  0.0528  0.7963
  154SAPE    HA17068   2.364   6.303   6.219  0.1402  1.0000 -0.0854
  154SAPE    HB17069   2.495   6.176   6.262  2.2081  0.3263 -0.9168
  154SAPE    C217070   2.481   6.365   6.376  0.2952  0.3767 -0.6541
  154SAPE    HS17071   2.573   6.347   6.436 -0.7670  0.9283  1.2465
  154SAPE   O2117072   2.361   6.342   6.449  0.8837  0.3228  0.4959
  154SAPE   C2117073   2.357   6.229   6.510  0.5434  0.7024  0.0058
  154SAPE   O2217074   2.452   6.154   6.529  0.6753  0.1810 -0.7835
  154SAPE   C2217075   2.215   6.215   6.560 -0.2196  0.2957 -0.1226
  154SAPE   H2R17076   2.187   6.307   6.615 -0.5937 -0.0375  0.2553
  154SAPE   H2S17077   2.139   6.208   6.478 -1.6208  1.0616  1.0585
  154SAPE    C317078   2.483   6.520   6.349  0.3906 -0.2361 -0.4078
  154SAPE    HX17079   2.396   6.521   6.279  1.0705  0.7488 -1.2663
  154SAPE    HY17080   2.565   6.555   6.282  0.2618 -1.2385 -1.1212
  154SAPE   O3117081   2.453   6.605   6.466  0.4007  0.3980  0.9587
  154SAPE   C3117082   2.551   6.634   6.546  0.1006 -0.4039 -0.3773
  154SAPE   O3217083   2.671   6.609   6.516 -0.0351  0.0095 -0.6175
  154SAPE   C3217084   2.507   6.725   6.663 -0.6047  0.2254  0.1467
  154SAPE   H2X17085   2.410   6.772   6.635  0.2266  1.7754 -0.2403
  154SAPE   H2Y17086   2.584   6.805   6.660 -2.5893  2.2184 -1.9863
  154SAPE   C2317087   2.200   6.100   6.668  0.0142  0.6432 -0.8060
  154SAPE   H3R17088   2.232   6.005   6.620 -0.4998  0.6044 -1.0813
  154SAPE   H3S17089   2.090   6.100   6.684 -0.0834  1.9441 -1.3698
  154SAPE   C2417090   2.275   6.121   6.799 -0.4714  0.3032  0.5324
  154SAPE   H4R17091   2.252   6.223   6.836  0.2526  1.1759 -1.2925
  154SAPE   H4S17092   2.384   6.122   6.777 -0.2758  1.9600  1.3949
  154SAPE   C2517093   2.236   6.017   6.894  0.5355 -0.5062 -0.2351
  154SAPE   H5R17094   2.204   5.925   6.843 -0.4781 -0.5473  0.4534
  154SAPE   C2617095   2.217   6.031   7.029 -0.0753  0.1174 -0.3060
  154SAPE   H6R17096   2.191   5.937   7.080 -0.7897  0.2778 -0.3699
  154SAPE   C2717097   2.240   6.163   7.099  0.3281  0.3000 -0.4451
  154SAPE   H7R17098   2.311   6.228   7.044 -0.3007  1.8278  0.4753
  154SAPE   H7S17099   2.297   6.142   7.192  0.8405  0.6764 -0.6725
  154SAPE   C2817100   2.106   6.220   7.131  0.0530  0.4069 -0.7308
  154SAPE   H8R17101   2.034   6.219   7.048 -1.7891 -2.0275  0.7581
  154SAPE   C2917102   2.076   6.267   7.254 -0.1436 -0.0869  0.3568
  154SAPE   H9R17103   1.981   6.313   7.284 -0.1233  1.0446 -1.1890
  154SAPE  C21017104   2.173   6.275   7.370 -0.4013  0.3819 -0.3996
  154SAPE  H10R17105   2.132   6.355   7.436  0.9048 -0.5669  1.6495
  154SAPE  H10S17106   2.269   6.298   7.319 -0.3601 -1.4491 -1.2171
  154SAPE  C21117107   2.173   6.143   7.447 -0.6128 -0.3397 -0.4862
  154SAPE  H11R17108   2.208   6.059   7.385  1.1787  0.5289 -0.6884
  154SAPE  C21217109   2.133   6.115   7.573 -0.0015  0.2050 -0.6905
  154SAPE  H12R17110   2.139   6.010   7.604  0.4731 -0.5011 -3.0052
  154SAPE  C21317111   2.064   6.201   7.677 -0.6637 -0.0018  0.2032
  154SAPE  H13R17112   2.006   6.126   7.735  0.4187 -1.6891 -0.7849
  154SAPE  H13S17113   1.985   6.264   7.631 -1.8028 -0.9307  0.8318
  154SAPE  C21417114   2.158   6.280   7.772 -0.4961 -0.4794  0.2626
  154SAPE  H14R17115   2.205   6.372   7.735  0.8279 -1.0978  0.3577
  154SAPE  C21517116   2.192   6.257   7.895 -0.5083  0.2678 -0.0594
  154SAPE  H15R17117   2.256   6.333   7.941  0.7372 -0.7397 -0.0759
  154SAPE  C21617118   2.149   6.146   7.984  0.0936  0.3147  0.8343
  154SAPE  H16R17119   2.230   6.128   8.058 -1.1208 -0.5270  2.0019
  154SAPE  H16S17120   2.125   6.060   7.918  4.2221 -0.5149  0.1343
  154SAPE  C21717121   2.027   6.178   8.067  0.7335  0.2307 -0.1629
  154SAPE  H17R17122   1.989   6.085   8.115 -0.3226  1.9586  2.5774
  154SAPE  H17S17123   1.946   6.215   8.000  0.1474 -1.8343 -0.6541
  154SAPE  C21817124   2.041   6.286   8.173  0.3907  0.0599 -0.1514
  154SAPE  H18R17125   2.036   6.387   8.126 -0.7795  1.2437  2.3194
  154SAPE  H18S17126   2.144   6.288   8.215  0.6171  2.1997 -0.6839
  154SAPE  C21917127   1.924   6.278   8.276  0.3716  0.3114 -0.1009
  154SAPE  H19R17128   1.829   6.263   8.220  0.6149 -1.3839 -0.1014
  154SAPE  H19S17129   1.919   6.380   8.320  0.1976 -1.3236  4.1608
  154SAPE  C22017130   1.941   6.169   8.381  0.5654 -0.0391  0.3375
  154SAPE  H20R17131   2.013   6.200   8.460 -0.4951  1.4128  0.7617
  154SAPE  H20S17132   1.986   6.080   8.331  0.9007  0.9660 -1.2199
  154SAPE  H20T17133   1.849   6.125   8.425 -0.4704  1.0486 -0.6812
  154SAPE   C3317134   2.484   6.655   6.800  0.0377 -0.3387 -0.2417
  154SAPE   H3X17135   2.459   6.732   6.876  0.2524 -0.7041  0.2064
  154SAPE   H3Y17136   2.581   6.612   6.834 -0.4271 -0.4183  1.0677
  154SAPE   C3417137   2.381   6.548   6.794  0.6754 -0.0906  0.4216
  154SAPE   H4X17138   2.400   6.482   6.880  0.9634  2.1620  2.1839
  154SAPE   H4Y17139   2.397   6.490   6.700  0.0075 -0.2191  0.3863
  154SAPE   C3517140   2.235   6.594   6.804 -0.1226 -0.3016 -0.1549
  154SAPE   H5X17141   2.186   6.590   6.704 -0.1659  0.0892 -0.1501
  154SAPE   H5Y17142   2.245   6.700   6.835 -2.5037 -0.7576  2.5255
  154SAPE   C3617143   2.152   6.519   6.912  0.2552 -0.4201  0.1771
  154SAPE   H6X17144   2.194   6.537   7.013  1.2807 -1.1478 -0.1056
  154SAPE   H6Y17145   2.149   6.408   6.903 -0.7733 -0.5123  1.3205
  154SAPE   C3717146   2.004   6.553   6.899 -0.0197  0.0807 -0.0368
  154SAPE   H7X17147   1.966   6.500   6.809  2.3236 -1.0883 -0.3979
  154SAPE   H7Y17148   1.997   6.663   6.879 -1.0590 -0.4405 -3.1636
  154SAPE   C3817149   1.928   6.514   7.028 -0.0209 -1.6063  0.3918
  154SAPE   H8X17150   1.929   6.404   7.038  2.0390 -1.6331  0.3783
  154SAPE   H8Y17151   1.824   6.550   7.012  1.1727  4.1259  2.9302
  154SAPE   C3917152   1.963   6.597   7.150  0.5063 -0.0528 -0.6439
  154SAPE   H9X17153   1.981   6.702   7.119  1.7811  0.0810  0.4282
  154SAPE   H9Y17154   2.066   6.570   7.184  0.9669 -0.1687 -2.0591
  154SAPE  C31017155   1.863   6.597   7.271  0.3053 -0.4105  0.8639
  154SAPE  H10X17156   1.825   6.494   7.287 -0.3962 -0.8104 -2.7012
  154SAPE  H10Y17157   1.773   6.661   7.260  0.3753 -0.5651 -0.7904
  154SAPE  C31117158   1.930   6.636   7.404 -0.1565 -0.0624  0.4292
  154SAPE  H11X17159   1.947   6.744   7.386  0.0730  0.0962  1.5394
  154SAPE  H11Y17160   2.034   6.596   7.410  0.5091  1.5232  0.0064
  154SAPE  C31217161   1.869   6.594   7.535  0.3521  0.6890  0.8451
  154SAPE  H12X17162   1.890   6.485   7.543 -1.9339  0.2796  2.3666
  154SAPE  H12Y17163   1.759   6.604   7.522  0.4690 -0.4047 -1.6222
  154SAPE  C31317164   1.919   6.677   7.647  0.1056 -0.4571 -0.5265
  154SAPE  H13X17165   1.896   6.784   7.631  0.4282 -0.3423 -0.2336
  154SAPE  H13Y17166   2.028   6.657   7.658  0.4780  0.5040 -2.1965
  154SAPE  C31417167   1.845   6.631   7.771  0.6332 -0.5663  0.2314
  154SAPE  H14X17168   1.835   6.521   7.767 -1.2829 -0.3822 -1.1705
  154SAPE  H14Y17169   1.740   6.666   7.769  0.2418 -1.6756  0.8623
  154SAPE  C31517170   1.914   6.683   7.902 -0.7303  0.0712  0.3277
  154SAPE  H15X17171   1.915   6.794   7.892  0.1944 -0.1221 -3.2998
  154SAPE  H15Y17172   2.021   6.654   7.908 -1.4746 -3.5012 -1.1210
  154SAPE  C31617173   1.843   6.644   8.029  0.0196  0.2569  0.0387
  154SAPE  H16X17174   1.833   6.533   8.032  0.0791  0.2702  2.2071
  154SAPE  H16Y17175   1.735   6.668   8.019 -0.0542 -0.3676 -0.8057
  154SAPE  C31717176   1.902   6.686   8.159  0.3138 -0.3908  0.2522
  154SAPE  H17X17177   1.922   6.795   8.155 -0.6540 -0.1701  1.1366
  154SAPE  H17Y17178   2.003   6.640   8.169  0.1379 -1.2172 -1.4476
  154SAPE  C31817179   1.815   6.658   8.283 -0.1679 -0.5577  0.1085
  154SAPE  H18X17180   1.730   6.729   8.294 -1.5208 -2.2631  1.3551
  154SAPE  H18Y17181   1.882   6.680   8.368 -0.3096  0.3235  0.0008
  154SAPE  H18Z17182   1.772   6.555   8.280 -2.6362  0.4179 -1.4697
  155SAPE     N17183   0.843   6.608   5.957  0.2828 -0.5313  0.0034
  155SAPE   HN117184   0.887   6.535   6.017 -0.9984 -0.5095  1.0238
  155SAPE   HN217185   0.781   6.560   5.889  1.4673  0.0159 -1.5126
  155SAPE   HN317186   0.931   6.638   5.910 -1.3669  1.0279 -2.3110
  155SAPE   C1217187   0.774   6.713   6.043 -1.0428  0.4574  0.2939
  155SAPE  H12A17188   0.705   6.771   5.977 -0.6650 -0.5460 -1.0287
  155SAPE  H12B17189   0.853   6.777   6.089 -0.2784 -1.1130  1.2493
  155SAPE   C1117190   0.694   6.641   6.153 -0.7461  0.1397 -0.1256
  155SAPE  H11A17191   0.614   6.580   6.107 -1.2212  1.2270 -0.7695
  155SAPE  H11B17192   0.642   6.709   6.223  0.1331  0.0621  0.6301
  155SAPE     P17193   0.840   6.613   6.376 -0.0479  0.5349 -0.3362
  155SAPE   O1317194   0.894   6.490   6.445 -0.2299 -0.0097 -0.3229
  155SAPE   O1417195   0.926   6.735   6.360 -0.1300 -0.1177  0.0049
  155SAPE   O1217196   0.786   6.559   6.233  0.2667 -0.0005  0.1354
  155SAPE   O1117197   0.697   6.647   6.444 -0.3190 -0.3955  0.2015
  155SAPE    C117198   0.643   6.536   6.532  0.4664 -0.7011 -0.6439
  155SAPE    HA17199   0.618   6.444   6.474 -0.7747 -0.5531 -0.3828
  155SAPE    HB17200   0.696   6.518   6.627 -2.3800  2.0309  1.6936
  155SAPE    C217201   0.504   6.575   6.584 -0.1119 -0.7473 -0.3628
  155SAPE    HS17202   0.446   6.607   6.495 -0.1611  0.9043  0.2301
  155SAPE   O2117203   0.519   6.682   6.675 -0.2462 -0.0706 -0.1976
  155SAPE   C2117204   0.418   6.759   6.710  0.3151  0.3603 -0.1414
  155SAPE   O2217205   0.306   6.754   6.655  0.1197  0.1684 -0.0154
  155SAPE   C2217206   0.440   6.840   6.839  0.0887  0.0812 -0.5583
  155SAPE   H2R17207   0.548   6.860   6.854  0.1938 -0.2369 -0.8869
  155SAPE   H2S17208   0.397   6.941   6.817 -1.9821 -0.8995 -1.2248
  155SAPE    C317209   0.409   6.464   6.630 -0.9155  0.4884 -0.8692
  155SAPE    HX17210   0.391   6.395   6.545  0.4343  2.6635 -3.0387
  155SAPE    HY17211   0.310   6.512   6.645 -1.0870  0.4086 -1.7212
  155SAPE   O3117212   0.470   6.396   6.747 -0.1834  0.3130  0.3291
  155SAPE   C3117213   0.399   6.290   6.781 -0.1735  0.1257  0.5291
  155SAPE   O3217214   0.294   6.256   6.731 -0.1214  0.6219  0.1992
  155SAPE   C3217215   0.474   6.214   6.891  0.1232  0.2266  0.4218
  155SAPE   H2X17216   0.419   6.241   6.984 -1.8718  0.9054 -0.8833
  155SAPE   H2Y17217   0.580   6.245   6.892 -0.2201  1.4400  0.4505
  155SAPE   C2317218   0.369   6.779   6.965 -0.0490 -0.4799  0.2140
  155SAPE   H3R17219   0.268   6.761   6.920  0.4508 -1.7653 -0.4597
  155SAPE   H3S17220   0.365   6.858   7.042  3.5477 -0.5145  0.5707
  155SAPE   C2417221   0.428   6.642   7.010 -0.0826 -0.3005  0.1324
  155SAPE   H4R17222   0.511   6.654   7.083  0.0842  0.0721 -0.1155
  155SAPE   H4S17223   0.472   6.589   6.923 -1.3426 -0.9356 -0.1330
  155SAPE   C2517224   0.328   6.554   7.080  0.4496  0.1269  0.2379
  155SAPE   H5R17225   0.250   6.523   7.009 -1.0386  2.8339  0.5530
  155SAPE   C2617226   0.315   6.540   7.209 -0.6276 -0.0301  0.1046
  155SAPE   H6R17227   0.228   6.481   7.241  0.4930 -1.7929  0.0739
  155SAPE   C2717228   0.405   6.590   7.320  0.6471 -0.5525 -0.4461
  155SAPE   H7R17229   0.338   6.613   7.405 -0.8924 -0.0409 -1.7470
  155SAPE   H7S17230   0.448   6.690   7.297 -1.3942  0.2041 -1.1948
  155SAPE   C2817231   0.527   6.509   7.352  0.6841  0.8910  0.5712
  155SAPE   H8R17232   0.604   6.503   7.273  0.1159  1.9175 -0.0878
  155SAPE   C2917233   0.548   6.443   7.469  0.3933  0.6083  0.1003
  155SAPE   H9R17234   0.652   6.410   7.484  0.2865  0.3813  0.3481
  155SAPE  C21017235   0.464   6.445   7.595 -0.6390 -0.9082  0.2987
  155SAPE  H10R17236   0.409   6.540   7.612 -1.6897 -1.4932  0.2553
  155SAPE  H10S17237   0.533   6.442   7.682  0.6054 -1.0874 -0.6724
  155SAPE  C21117238   0.361   6.334   7.600  0.4287 -1.0132 -0.4141
  155SAPE  H11R17239   0.325   6.296   7.503  1.2089 -1.7201 -0.4425
  155SAPE  C21217240   0.318   6.272   7.715  0.0827  0.6540  0.0506
  155SAPE  H12R17241   0.250   6.186   7.706  3.0011 -1.6904 -1.7648
  155SAPE  C21317242   0.363   6.294   7.856 -0.0595 -0.5016 -0.4846
  155SAPE  H13R17243   0.276   6.280   7.924 -0.5361  3.6411  0.0128
  155SAPE  H13S17244   0.382   6.402   7.875 -1.6593 -0.3976  0.7106
  155SAPE  C21417245   0.488   6.226   7.891 -0.0176  0.0038  0.2133
  155SAPE  H14R17246   0.555   6.181   7.816 -0.4985 -0.5366  0.1038
  155SAPE  C21517247   0.542   6.240   8.013  0.1722  0.3326 -0.2465
  155SAPE  H15R17248   0.630   6.181   8.043 -0.6639  0.1630  2.0793
  155SAPE  C21617249   0.490   6.325   8.126  0.3121 -0.1096  0.2317
  155SAPE  H16R17250   0.379   6.330   8.118 -0.3156 -2.0136  4.6040
  155SAPE  H16S17251   0.557   6.414   8.130  0.5045 -0.2610  0.3629
  155SAPE  C21717252   0.494   6.257   8.262  0.2890 -0.0098  0.2930
  155SAPE  H17R17253   0.449   6.156   8.253 -0.3803  0.3989 -1.2311
  155SAPE  H17S17254   0.430   6.316   8.331  0.7666 -0.0408  0.7719
  155SAPE  C21817255   0.636   6.239   8.314 -0.0490  0.3444  0.1218
  155SAPE  H18R17256   0.689   6.335   8.296  2.7674 -1.2204 -0.5356
  155SAPE  H18S17257   0.691   6.160   8.259  2.4735  0.8632  1.6889
  155SAPE  C21917258   0.635   6.220   8.469  0.1072 -0.2126  0.3446
  155SAPE  H19R17259   0.585   6.123   8.492 -0.5466  0.7493  3.4355
  155SAPE  H19S17260   0.581   6.306   8.513  0.2158  1.7665 -3.0183
  155SAPE  C22017261   0.776   6.216   8.518 -0.0630 -0.3156  0.1032
  155SAPE  H20R17262   0.838   6.289   8.462 -0.1901  0.6904  1.2231
  155SAPE  H20S17263   0.824   6.117   8.507 -0.3644 -0.9007  3.0341
  155SAPE  H20T17264   0.795   6.243   8.624 -2.4458  0.0741  0.5013
  155SAPE   C3317265   0.460   6.057   6.879  0.2927 -0.0837  0.4704
  155SAPE   H3X17266   0.507   6.013   6.789  0.6404 -0.5178  0.8609
  155SAPE   H3Y17267   0.352   6.030   6.879  0.1828  0.0499 -2.6525
  155SAPE   C3417268   0.542   5.982   6.985  0.6578 -0.3007 -1.3167
  155SAPE   H4X17269   0.651   5.994   6.968  0.8121  0.6526  0.1659
  155SAPE   H4Y17270   0.506   5.878   6.974  0.3794 -0.5445  1.2323
  155SAPE   C3517271   0.493   6.025   7.128 -0.7143 -0.4422  0.0491
  155SAPE   H5X17272   0.383   6.043   7.124 -0.5570  1.4501  2.2116
  155SAPE   H5Y17273   0.535   6.125   7.151 -1.8764 -0.2462  1.4956
  155SAPE   C3617274   0.532   5.922   7.242 -0.4510 -0.3856 -0.3079
  155SAPE   H6X17275   0.641   5.900   7.254 -0.6109 -1.6794 -1.1535
  155SAPE   H6Y17276   0.486   5.824   7.219 -1.3584 -0.1648  0.5189
  155SAPE   C3717277   0.489   5.976   7.374 -0.1809  0.0566 -0.3296
  155SAPE   H7X17278   0.381   6.000   7.370  0.1562  1.5779 -1.1988
  155SAPE   H7Y17279   0.544   6.071   7.388  0.4477 -0.1857 -1.0696
  155SAPE   C3817280   0.529   5.877   7.494  0.1678 -0.0731  0.2926
  155SAPE   H8X17281   0.626   5.827   7.473 -0.2351 -0.0845 -1.7698
  155SAPE   H8Y17282   0.459   5.792   7.505 -2.1915  1.7367  0.0366
  155SAPE   C3917283   0.551   5.952   7.636  0.1871  0.2477  0.1161
  155SAPE   H9X17284   0.454   5.998   7.664  0.9081  1.4710  0.6799
  155SAPE   H9Y17285   0.634   6.025   7.630  0.4619 -0.0497  0.3088
  155SAPE  C31017286   0.588   5.838   7.732  0.0354  0.7021  0.5414
  155SAPE  H10X17287   0.686   5.797   7.700 -0.6448 -1.5264  1.1087
  155SAPE  H10Y17288   0.513   5.757   7.716  0.4979  0.2831  0.4553
  155SAPE  C31117289   0.580   5.887   7.875 -0.3362 -0.9164  0.0386
  155SAPE  H11X17290   0.494   5.953   7.900 -0.7729 -1.7883  0.8437
  155SAPE  H11Y17291   0.664   5.961   7.879 -2.1961  1.3330 -0.2125
  155SAPE  C31217292   0.603   5.770   7.980  0.1106 -0.5690 -0.1226
  155SAPE  H12X17293   0.696   5.712   7.960  0.9013  0.4327  0.4942
  155SAPE  H12Y17294   0.522   5.694   7.981 -0.0697 -0.5864  4.1181
  155SAPE  C31317295   0.619   5.821   8.128  0.2232  0.0582  0.4303
  155SAPE  H13X17296   0.528   5.879   8.153  0.2072  0.8751 -1.3378
  155SAPE  H13Y17297   0.706   5.890   8.120  0.1336  0.2191  0.8232
  155SAPE  C31417298   0.642   5.700   8.219  0.0291  0.4089  0.6478
  155SAPE  H14X17299   0.706   5.638   8.153 -0.2059  0.6305  0.2048
  155SAPE  H14Y17300   0.542   5.656   8.241  0.5525 -1.0906  0.1058
  155SAPE  C31517301   0.723   5.727   8.341 -0.2724 -0.3836 -0.7463
  155SAPE  H15X17302   0.660   5.801   8.396 -1.7891 -0.2760 -2.5274
  155SAPE  H15Y17303   0.820   5.778   8.327 -0.9618  1.9443  1.9042
  155SAPE  C31617304   0.756   5.608   8.436 -0.6328 -0.0442  0.4946
  155SAPE  H16X17305   0.697   5.520   8.402  0.7642 -0.6473 -0.4734
  155SAPE  H16Y17306   0.733   5.633   8.542  0.9346  1.1552  0.5929
  155SAPE  C31717307   0.904   5.572   8.436 -0.6636 -0.1663 -0.0480
  155SAPE  H17X17308   0.965   5.657   8.473  0.5954 -1.1646  0.2174
  155SAPE  H17Y17309   0.942   5.545   8.336 -0.8742 -1.2523  0.1467
  155SAPE  C31817310   0.913   5.453   8.528 -1.2162  0.4576 -0.0245
  155SAPE  H18X17311   0.865   5.469   8.628 -0.6767 -0.6025  0.4237
  155SAPE  H18Y17312   1.022   5.436   8.539 -1.1155  2.0582  2.3452
  155SAPE  H18Z17313   0.865   5.363   8.483 -0.3898  0.0713 -0.1610
  156SAPE     N17314   5.531   6.014   6.275 -0.5535  0.4110  0.7399
  156SAPE   HN117315   5.497   6.054   6.365  0.6494  1.8754  0.5951
  156SAPE   HN217316   5.456   5.988   6.208  0.5770  0.8181 -0.7560
  156SAPE   HN317317   5.576   5.922   6.291  1.5767  1.3711  0.6928
  156SAPE   C1217318   5.652   6.074   6.220 -0.1662 -0.5784 -0.2617
  156SAPE  H12A17319   5.632   6.181   6.198  0.2491 -0.2424  0.8792
  156SAPE  H12B17320   5.681   6.033   6.121 -2.2964  0.8216 -1.5415
  156SAPE   C1117321   5.756   6.076   6.337  0.6038 -1.1866  0.1994
  156SAPE  H11A17322   5.698   6.099   6.429  1.3421 -1.3969  0.7344
  156SAPE  H11B17323   5.831   6.157   6.322  2.6554 -2.9527  0.3615
  156SAPE     P17324   5.956   5.914   6.413  0.0347 -0.0235 -0.2135
  156SAPE   O1317325   5.986   5.768   6.386  0.0700  0.1674 -0.4238
  156SAPE   O1417326   6.045   6.019   6.361  0.1406 -0.2656 -0.4601
  156SAPE   O1217327   5.811   5.944   6.356  0.1807  0.9754 -0.4270
  156SAPE   O1117328   5.925   5.934   6.565  0.3406 -0.6862 -0.2104
  156SAPE    C117329   5.998   6.029   6.634  0.3601 -0.1014  0.1009
  156SAPE    HA17330   6.105   6.004   6.621  0.2376  0.5206 -2.6757
  156SAPE    HB17331   5.984   6.131   6.592  0.7291 -0.5207 -1.0883
  156SAPE    C217332   5.940   6.024   6.782  0.5704  0.3705  0.3933
  156SAPE    HS17333   5.834   6.057   6.774 -0.1476 -2.1703 -1.7161
  156SAPE   O2117334   6.022   6.113   6.868  0.1612 -0.0722 -0.1433
  156SAPE   C2117335   6.020   6.238   6.838 -0.1885 -1.1977 -0.3966
  156SAPE   O2217336   5.945   6.296   6.759 -0.2315  0.3919 -0.4888
  156SAPE   C2217337   6.128   6.308   6.920  0.0284 -0.5343  0.3484
  156SAPE   H2R17338   6.220   6.246   6.910  0.6980  0.4919  0.0878
  156SAPE   H2S17339   6.140   6.413   6.888 -0.4743 -0.1364  1.4058
  156SAPE    C317340   5.942   5.882   6.845 -0.1632  0.4318  0.3123
  156SAPE    HX17341   6.045   5.842   6.831 -0.2167 -0.7841  2.7924
  156SAPE    HY17342   5.882   5.820   6.774  1.6525 -0.9732 -0.0781
  156SAPE   O3117343   5.908   5.878   6.981  0.4810  0.1232 -0.5313
  156SAPE   C3117344   5.783   5.859   7.006 -0.3940  0.1518 -0.8475
  156SAPE   O3217345   5.696   5.861   6.918 -0.3491 -0.3272 -0.9587
  156SAPE   C3217346   5.774   5.850   7.154  0.4334 -0.3352  0.8658
  156SAPE   H2X17347   5.841   5.924   7.203  1.8059  1.1260 -2.8613
  156SAPE   H2Y17348   5.795   5.751   7.201  1.6646 -0.2882  0.4573
  156SAPE   C2317349   6.075   6.295   7.067 -0.1460  0.3248  0.6752
  156SAPE   H3R17350   6.167   6.328   7.120  0.1991  0.9887 -0.3032
  156SAPE   H3S17351   6.048   6.190   7.092 -0.4232  0.2696  0.1563
  156SAPE   C2417352   5.961   6.395   7.120  0.2613  1.0454 -0.7843
  156SAPE   H4R17353   5.967   6.496   7.074 -1.0018  0.6500 -1.8522
  156SAPE   H4S17354   5.969   6.398   7.231  0.4268 -1.6809 -0.6631
  156SAPE   C2517355   5.829   6.346   7.072  0.2117 -0.0614 -0.6342
  156SAPE   H5R17356   5.812   6.332   6.964  0.4360 -1.0093 -0.5573
  156SAPE   C2617357   5.738   6.292   7.158  0.4259 -1.1784  1.4651
  156SAPE   H6R17358   5.646   6.254   7.111  0.5426 -0.2126  0.4005
  156SAPE   C2717359   5.740   6.287   7.310 -0.7302 -0.2502  0.4553
  156SAPE   H7R17360   5.775   6.383   7.355 -0.4716  0.0225 -0.3098
  156SAPE   H7S17361   5.816   6.215   7.347 -0.1031 -0.6763 -1.5509
  156SAPE   C2817362   5.605   6.254   7.362 -0.1072  0.4335  0.0804
  156SAPE   H8R17363   5.524   6.269   7.289  1.1553 -0.5789 -1.6297
  156SAPE   C2917364   5.575   6.245   7.490 -0.8486  0.2132 -0.1855
  156SAPE   H9R17365   5.470   6.234   7.520 -0.5184  0.6304  1.1839
  156SAPE  C21017366   5.674   6.250   7.604 -0.4825  0.5137 -0.1639
  156SAPE  H10R17367   5.773   6.224   7.561 -0.8669  1.1449 -1.4836
  156SAPE  H10S17368   5.642   6.172   7.677  2.1396 -1.0011 -0.5157
  156SAPE  C21117369   5.686   6.389   7.667  0.3167 -0.0606  0.1923
  156SAPE  H11R17370   5.702   6.473   7.598  3.1219 -0.3955  0.3044
  156SAPE  C21217371   5.685   6.424   7.798 -0.5625  0.1737 -0.1231
  156SAPE  H12R17372   5.692   6.532   7.819  2.7096  0.0400 -0.0700
  156SAPE  C21317373   5.677   6.332   7.916  0.4723  0.1021  0.8773
  156SAPE  H13R17374   5.642   6.231   7.887  0.5215 -0.0289  1.2672
  156SAPE  H13S17375   5.597   6.362   7.987 -0.6651 -3.9947  1.5838
  156SAPE  C21417376   5.810   6.316   7.984 -0.0788  0.1142  0.6086
  156SAPE  H14R17377   5.891   6.305   7.911 -0.0040  2.2591  0.2945
  156SAPE  C21517378   5.850   6.304   8.114  0.3656 -0.2879  0.3061
  156SAPE  H15R17379   5.959   6.301   8.126  0.2871  1.8285  2.2806
  156SAPE  C21617380   5.757   6.311   8.230 -0.7986 -0.0952  0.0580
  156SAPE  H16R17381   5.787   6.247   8.317  0.2320  2.2004  1.5032
  156SAPE  H16S17382   5.660   6.269   8.197  0.7149 -2.7854 -1.3282
  156SAPE  C21717383   5.735   6.455   8.285 -0.6789 -0.5685 -0.2615
  156SAPE  H17R17384   5.666   6.438   8.370  0.9010 -1.4775  0.8843
  156SAPE  H17S17385   5.690   6.519   8.206 -1.1126 -1.1142 -0.4668
  156SAPE  C21817386   5.851   6.537   8.347  0.1433  0.3489  0.5556
  156SAPE  H18R17387   5.910   6.481   8.423  1.7299  0.9796 -0.1657
  156SAPE  H18S17388   5.800   6.613   8.410  2.2154  0.2795  2.4653
  156SAPE  C21917389   5.940   6.608   8.234  0.8984 -0.3838 -0.6046
  156SAPE  H19R17390   5.864   6.652   8.167 -2.4788  0.7607  3.5299
  156SAPE  H19S17391   5.999   6.525   8.190 -1.7488 -2.3893 -0.6053
  156SAPE  C22017392   6.035   6.714   8.287  0.7053  0.7560  0.2119
  156SAPE  H20R17393   6.103   6.674   8.365  0.2018 -0.2041  0.1750
  156SAPE  H20S17394   5.990   6.805   8.332 -0.7431 -0.1007  0.5663
  156SAPE  H20T17395   6.098   6.745   8.200 -0.6173  0.5696 -0.8539
  156SAPE   C3317396   5.626   5.888   7.198 -0.7250  0.4615 -0.2617
  156SAPE   H3X17397   5.552   5.855   7.122  0.4866 -0.9560 -0.8815
  156SAPE   H3Y17398   5.628   5.998   7.211  3.4449  0.3234  2.0818
  156SAPE   C3417399   5.590   5.828   7.339 -0.0890  0.3492 -0.5717
  156SAPE   H4X17400   5.582   5.718   7.328  0.8144  0.0734  1.2072
  156SAPE   H4Y17401   5.490   5.865   7.369  0.3246  0.0483  1.3483
  156SAPE   C3517402   5.690   5.878   7.445  0.3111  0.2795 -0.2001
  156SAPE   H5X17403   5.715   5.986   7.437 -0.9216  0.7691  1.6866
  156SAPE   H5Y17404   5.787   5.827   7.426  0.2717 -0.2080  0.8423
  156SAPE   C3617405   5.630   5.861   7.585 -0.1734  0.5399 -0.2463
  156SAPE   H6X17406   5.594   5.757   7.601  0.1253  0.5224  0.3412
  156SAPE   H6Y17407   5.548   5.933   7.606 -2.0379 -2.1133  2.5523
  156SAPE   C3717408   5.747   5.894   7.688  0.6122  0.5202  0.7803
  156SAPE   H7X17409   5.795   5.990   7.659  1.3940  0.3387  1.4627
  156SAPE   H7Y17410   5.834   5.829   7.667  0.4276  0.0523  1.4459
  156SAPE   C3817411   5.717   5.882   7.832 -0.0949 -0.2835 -0.1681
  156SAPE   H8X17412   5.641   5.805   7.860 -0.6368  0.1321 -0.4731
  156SAPE   H8Y17413   5.664   5.977   7.857 -1.0766 -0.2869 -2.1023
  156SAPE   C3917414   5.842   5.864   7.921 -0.0279  0.3975  0.1651
  156SAPE   H9X17415   5.901   5.958   7.925  0.8177 -0.1485  0.8133
  156SAPE   H9Y17416   5.904   5.788   7.869  0.6232  0.6573  0.5541
  156SAPE  C31017417   5.804   5.833   8.070  0.6637  0.2614 -0.5503
  156SAPE  H10X17418   5.890   5.791   8.125 -0.2356 -1.0188 -0.0712
  156SAPE  H10Y17419   5.729   5.751   8.074  2.4541 -1.3859  1.7693
  156SAPE  C31117420   5.729   5.939   8.163  0.7605 -0.5172 -0.2529
  156SAPE  H11X17421   5.646   5.994   8.115 -0.3129 -1.1333  0.8316
  156SAPE  H11Y17422   5.804   6.017   8.189 -1.8491  2.1840 -0.3180
  156SAPE  C31217423   5.661   5.885   8.286 -0.1193  0.1777 -0.3300
  156SAPE  H12X17424   5.736   5.825   8.341 -1.5409 -1.9152 -0.5370
  156SAPE  H12Y17425   5.581   5.816   8.250  1.5164 -1.6922 -0.5235
  156SAPE  C31317426   5.612   5.991   8.386  0.2787  0.1704 -0.2678
  156SAPE  H13X17427   5.517   6.034   8.349 -0.3854 -0.1023  1.0722
  156SAPE  H13Y17428   5.685   6.074   8.400  2.1203 -1.3947  0.0012
  156SAPE  C31417429   5.569   5.941   8.528  0.1427 -0.1501 -0.3869
  156SAPE  H14X17430   5.663   5.898   8.568 -1.3301 -1.1900  2.1523
  156SAPE  H14Y17431   5.497   5.857   8.515  1.6987 -1.3561 -1.6783
  156SAPE  C31517432   5.521   6.051   8.618  1.1879  0.1401  0.2744
  156SAPE  H15X17433   5.422   6.090   8.587 -0.7648 -3.0109  1.9669
  156SAPE  H15Y17434   5.592   6.137   8.616  0.0988  1.0521 -0.7672
  156SAPE  C31617435   5.508   5.993   8.760  0.4332 -0.0513  0.8545
  156SAPE  H16X17436   5.606   5.951   8.792  0.3426 -0.9351  0.0099
  156SAPE  H16Y17437   5.428   5.916   8.758 -2.4277  2.7145  0.8944
  156SAPE  C31717438   5.464   6.103   8.862 -0.5182  0.2020  0.3961
  156SAPE  H17X17439   5.373   6.153   8.822 -1.2501 -1.1464  0.3148
  156SAPE  H17Y17440   5.538   6.185   8.856  0.3437 -0.6327 -0.8908
  156SAPE  C31817441   5.441   6.052   8.995  0.1864  0.9653  0.0629
  156SAPE  H18X17442   5.403   6.142   9.050 -0.9786  1.6961 -1.8428
  156SAPE  H18Y17443   5.536   6.020   9.043 -1.2135 -1.1919  1.5818
  156SAPE  H18Z17444   5.364   5.972   9.003 -2.1027  3.0080 -0.0916
  157SAPE     N17445   3.762   2.057   6.047 -0.1095 -0.4862  0.5064
  157SAPE   HN117446   3.732   2.053   6.147 -0.6575 -0.2428  0.3601
  157SAPE   HN217447   3.755   1.961   6.008 -0.7767  0.0937 -0.8863
  157SAPE   HN317448   3.861   2.089   6.047  0.6162 -2.5752  1.4120
  157SAPE   C1217449   3.681   2.152   5.968 -0.4407  0.4534 -0.1262
  157SAPE  H12A17450   3.574   2.120   5.960 -0.7793  1.4994  0.0854
  157SAPE  H12B17451   3.725   2.157   5.866  1.0042 -0.9754  0.3888
  157SAPE   C1117452   3.675   2.281   6.040  0.3725 -0.0672 -0.0010
  157SAPE  H11A17453   3.636   2.275   6.144 -0.8194 -0.0932 -0.4264
  157SAPE  H11B17454   3.607   2.350   5.986  0.0900 -1.3013 -1.2660
  157SAPE     P17455   3.863   2.449   6.122 -0.7861  0.3222  0.0412
  157SAPE   O1317456   4.014   2.457   6.104 -0.1287  0.0180  0.5259
  157SAPE   O1417457   3.782   2.574   6.108  0.1735 -0.3502  0.3339
  157SAPE   O1217458   3.802   2.340   6.026 -0.6841 -0.2149  0.0979
  157SAPE   O1117459   3.844   2.385   6.262  0.2348 -0.1099 -0.2869
  157SAPE    C117460   3.746   2.419   6.361 -0.0229  0.1583 -0.3894
  157SAPE    HA17461   3.655   2.458   6.310 -0.2361 -0.8223 -0.7709
  157SAPE    HB17462   3.709   2.327   6.410  0.4486 -0.8211 -1.7984
  157SAPE    C217463   3.793   2.520   6.479 -0.2620 -0.8649  0.5465
  157SAPE    HS17464   3.846   2.602   6.427  0.3027 -0.6903  1.3846
  157SAPE   O2117465   3.893   2.448   6.552  0.2482 -0.1289 -0.0088
  157SAPE   C2117466   3.974   2.521   6.625 -0.7525  0.2759  0.3153
  157SAPE   O2217467   3.967   2.641   6.639 -0.1947 -0.0955 -0.1951
  157SAPE   C2217468   4.084   2.433   6.682  0.1495  0.3245  0.3985
  157SAPE   H2R17469   4.045   2.330   6.694  1.0194 -0.1238 -0.4690
  157SAPE   H2S17470   4.161   2.429   6.601 -0.4389  0.5980 -0.1813
  157SAPE    C317471   3.685   2.585   6.572  0.4183 -0.4041 -0.0250
  157SAPE    HX17472   3.597   2.615   6.511  1.1278 -3.9865 -3.2271
  157SAPE    HY17473   3.726   2.679   6.612  1.7424 -1.7096  1.8277
  157SAPE   O3117474   3.647   2.493   6.676 -0.0999  0.6694 -0.4273
  157SAPE   C3117475   3.653   2.531   6.802  0.4698 -0.0183  0.8699
  157SAPE   O3217476   3.684   2.642   6.840  0.9183  0.7326 -1.1383
  157SAPE   C3217477   3.615   2.416   6.898 -0.1825  0.0838  0.1976
  157SAPE   H2X17478   3.508   2.395   6.875 -0.5703  0.8704  1.2077
  157SAPE   H2Y17479   3.607   2.464   6.998 -2.8236  0.3992 -0.0870
  157SAPE   C2317480   4.149   2.478   6.805  0.1303 -0.6825 -0.2671
  157SAPE   H3R17481   4.192   2.580   6.791 -2.3605  0.2258 -2.2101
  157SAPE   H3S17482   4.236   2.417   6.838  0.0966  0.6471  2.5988
  157SAPE   C2417483   4.053   2.475   6.926 -0.2535  0.3506 -0.0174
  157SAPE   H4R17484   4.005   2.375   6.924 -1.0950  0.7593 -1.7871
  157SAPE   H4S17485   3.975   2.553   6.909  0.8148  1.4840  0.1843
  157SAPE   C2517486   4.124   2.494   7.062  0.6151  0.7208  0.4550
  157SAPE   H5R17487   4.234   2.500   7.055  0.5301  0.6231 -2.0023
  157SAPE   C2617488   4.066   2.511   7.178  0.1825 -0.1555 -0.4210
  157SAPE   H6R17489   4.129   2.516   7.269  1.2516 -1.9717 -1.0211
  157SAPE   C2717490   3.916   2.508   7.201 -0.2856 -0.1500  0.6243
  157SAPE   H7R17491   3.892   2.439   7.285  0.4490  1.1765  1.9541
  157SAPE   H7S17492   3.871   2.471   7.106  3.1249  2.8814 -2.5161
  157SAPE   C2817493   3.859   2.643   7.229 -0.5839  0.1045  0.3084
  157SAPE   H8R17494   3.839   2.704   7.139  1.0394  1.2551  0.6784
  157SAPE   C2917495   3.811   2.689   7.339  0.1672  0.5065 -0.1248
  157SAPE   H9R17496   3.758   2.785   7.349 -2.2112 -0.9205  2.4202
  157SAPE  C21017497   3.809   2.602   7.463  0.3681 -0.5013 -0.1410
  157SAPE  H10R17498   3.897   2.536   7.477  0.5325 -0.0445  1.0214
  157SAPE  H10S17499   3.719   2.536   7.465 -0.9989  1.2766  0.1373
  157SAPE  C21117500   3.799   2.681   7.586 -0.0830 -0.3655 -0.3750
  157SAPE  H11R17501   3.884   2.751   7.593  0.5258 -0.7196 -3.0523
  157SAPE  C21217502   3.729   2.663   7.704 -0.0601  0.3638  0.4681
  157SAPE  H12R17503   3.742   2.736   7.785 -2.5966  2.2955 -0.6917
  157SAPE  C21317504   3.619   2.562   7.712  0.4664 -0.2513  0.3753
  157SAPE  H13R17505   3.607   2.529   7.817  0.2925  0.9836  0.7713
  157SAPE  H13S17506   3.639   2.475   7.647  0.2628 -1.4517  1.8811
  157SAPE  C21417507   3.492   2.631   7.679 -0.0972  0.6063  0.7256
  157SAPE  H14R17508   3.473   2.725   7.735  0.5741 -0.2374  2.4393
  157SAPE  C21517509   3.384   2.579   7.603  0.1515 -0.5859 -1.1621
  157SAPE  H15R17510   3.289   2.632   7.618  0.0315 -1.3070  0.9788
  157SAPE  C21617511   3.363   2.451   7.524 -0.5430 -0.3871  0.7100
  157SAPE  H16R17512   3.255   2.449   7.496 -0.4421  0.0081  0.2881
  157SAPE  H16S17513   3.383   2.368   7.595  0.1402  0.9663  2.1622
  157SAPE  C21717514   3.445   2.419   7.398 -0.0633 -0.2359  0.3935
  157SAPE  H17R17515   3.423   2.314   7.369  1.3497 -0.6689  0.7896
  157SAPE  H17S17516   3.552   2.422   7.427  0.5549 -1.7624 -1.5121
  157SAPE  C21817517   3.421   2.518   7.278 -0.6818  0.1821  0.0881
  157SAPE  H18R17518   3.491   2.484   7.199 -0.9096 -3.4237  1.2605
  157SAPE  H18S17519   3.444   2.619   7.320 -0.5502  0.6494 -1.0657
  157SAPE  C21917520   3.275   2.523   7.227 -0.4347  0.1450 -0.0741
  157SAPE  H19R17521   3.216   2.581   7.301  1.3190  2.1927 -0.1831
  157SAPE  H19S17522   3.233   2.420   7.228 -2.0865  0.7395 -2.0162
  157SAPE  C22017523   3.274   2.582   7.082  0.6434  0.7918 -0.3389
  157SAPE  H20R17524   3.322   2.501   7.022  0.6668  0.6099 -0.0766
  157SAPE  H20S17525   3.330   2.678   7.081  0.0472  1.1769 -2.5495
  157SAPE  H20T17526   3.173   2.595   7.038  0.3013  0.6027  0.3916
  157SAPE   C3317527   3.693   2.278   6.887  0.7187  0.0492 -0.0064
  157SAPE   H3X17528   3.801   2.300   6.872  1.1328 -1.8504  0.0351
  157SAPE   H3Y17529   3.660   2.224   6.796  0.7083 -0.9384  0.5680
  157SAPE   C3417530   3.674   2.183   7.011  0.8741  0.2468  0.1739
  157SAPE   H4X17531   3.700   2.081   6.976 -0.4205 -0.0385  0.0077
  157SAPE   H4Y17532   3.567   2.185   7.039  0.4098  0.2188 -1.5077
  157SAPE   C3517533   3.746   2.217   7.147  0.2251  0.0664 -0.1348
  157SAPE   H5X17534   3.716   2.323   7.165 -0.6191 -0.3414  0.9915
  157SAPE   H5Y17535   3.856   2.212   7.133  0.1973  0.3208 -0.4533
  157SAPE   C3617536   3.701   2.135   7.265 -0.3454  0.2229 -0.0932
  157SAPE   H6X17537   3.748   2.036   7.245 -0.0204  0.9223 -3.3495
  157SAPE   H6Y17538   3.591   2.129   7.258 -0.3596  0.5390 -0.1399
  157SAPE   C3717539   3.756   2.183   7.398  0.8735  0.4147  0.0739
  157SAPE   H7X17540   3.717   2.283   7.426  0.2491  0.0423  0.5781
  157SAPE   H7Y17541   3.867   2.181   7.400  0.8787  0.9108  1.4160
  157SAPE   C3817542   3.719   2.089   7.511 -0.0089  0.3439  1.2070
  157SAPE   H8X17543   3.770   1.993   7.490 -1.7582 -0.2583 -0.7097
  157SAPE   H8Y17544   3.612   2.062   7.495 -0.6308  3.0567  0.1891
  157SAPE   C3917545   3.740   2.137   7.655  0.1833  0.0371  0.2797
  157SAPE   H9X17546   3.765   2.049   7.719  0.9313 -0.6898 -0.9547
  157SAPE   H9Y17547   3.646   2.192   7.678  1.3629  3.3213 -2.0396
  157SAPE  C31017548   3.868   2.232   7.668 -0.8954 -0.2450  0.8689
  157SAPE  H10X17549   3.858   2.318   7.598 -0.9226 -0.0205  1.1497
  157SAPE  H10Y17550   3.954   2.164   7.651 -0.2793  0.6803  0.1599
  157SAPE  C31117551   3.870   2.304   7.803  0.6011  1.1637  0.1586
  157SAPE  H11X17552   3.872   2.231   7.886  1.2951 -1.4975 -2.0389
  157SAPE  H11Y17553   3.774   2.360   7.813  0.0496 -0.0599  2.4023
  157SAPE  C31217554   3.971   2.418   7.805 -0.0705  0.2885  0.1049
  157SAPE  H12X17555   3.959   2.478   7.712  0.5851 -0.6303 -0.5937
  157SAPE  H12Y17556   4.074   2.377   7.789  0.5268  2.0254 -0.7726
  157SAPE  C31317557   3.972   2.498   7.939  0.2536 -0.1420  0.0608
  157SAPE  H13X17558   4.015   2.435   8.020  0.1555 -0.3647 -0.0597
  157SAPE  H13Y17559   3.864   2.509   7.962 -0.2147  0.1074 -2.0907
  157SAPE  C31417560   4.047   2.632   7.938  0.4330  0.3645 -0.3259
  157SAPE  H14X17561   3.970   2.709   7.920  1.0077  0.6506 -1.7149
  157SAPE  H14Y17562   4.119   2.631   7.853 -1.7724  0.4328 -2.3016
  157SAPE  C31517563   4.124   2.664   8.066  0.3306  0.0633 -0.1428
  157SAPE  H15X17564   4.192   2.748   8.039  1.5083 -0.8760 -0.2344
  157SAPE  H15Y17565   4.175   2.568   8.089  0.2659 -0.3054 -1.4119
  157SAPE  C31617566   4.039   2.701   8.190 -0.0296 -0.2125  0.8344
  157SAPE  H16X17567   3.958   2.629   8.213  0.8679 -1.8738 -0.9760
  157SAPE  H16Y17568   4.011   2.807   8.174  0.8830  0.0003  0.5575
  157SAPE  C31717569   4.136   2.682   8.306  0.0518 -0.4579  0.0893
  157SAPE  H17X17570   4.222   2.752   8.302 -1.0968  1.0245  0.5622
  157SAPE  H17Y17571   4.177   2.579   8.304 -1.6583 -1.2783  2.3624
  157SAPE  C31817572   4.077   2.693   8.440  0.2932  0.1547  0.0522
  157SAPE  H18X17573   3.982   2.636   8.437  0.5478 -0.2136 -1.1968
  157SAPE  H18Y17574   4.049   2.798   8.462 -0.0033  0.5797 -2.1553
  157SAPE  H18Z17575   4.146   2.646   8.513 -0.1205 -1.9142 -0.8336
  158SAPE     N17576   5.545   4.725   5.630  0.4292 -0.3964  0.1855
  158SAPE   HN117577   5.615   4.730   5.553  0.4167  1.9690  0.2452
  158SAPE   HN217578   5.510   4.630   5.651 -0.0991 -0.5349 -1.2363
  158SAPE   HN317579   5.465   4.783   5.596  0.9884 -1.1181 -2.5705
  158SAPE   C1217580   5.621   4.764   5.746 -0.2989 -0.8311  0.4689
  158SAPE  H12A17581   5.645   4.872   5.734 -0.6642 -0.7470  0.4851
  158SAPE  H12B17582   5.713   4.702   5.743 -0.1848 -0.7206 -3.8967
  158SAPE   C1117583   5.538   4.755   5.867  0.4053 -0.4734  0.4565
  158SAPE  H11A17584   5.604   4.802   5.943  1.5357  1.4843 -1.6372
  158SAPE  H11B17585   5.535   4.650   5.904  0.8361 -0.3102  0.9785
  158SAPE     P17586   5.341   4.892   5.973 -0.2088 -0.0329  0.1312
  158SAPE   O1317587   5.366   5.037   5.951  0.1042 -0.4767 -0.1174
  158SAPE   O1417588   5.201   4.848   5.981  0.3227  0.6887 -0.2215
  158SAPE   O1217589   5.406   4.809   5.852 -0.6090 -0.0921 -0.0620
  158SAPE   O1117590   5.421   4.846   6.098 -0.1139 -0.0979 -0.1935
  158SAPE    C117591   5.391   4.734   6.178 -0.4703  1.0495  0.1270
  158SAPE    HA17592   5.282   4.731   6.194 -0.3662  3.1484  1.6338
  158SAPE    HB17593   5.420   4.643   6.121 -1.8509  0.9051 -0.3839
  158SAPE    C217594   5.483   4.733   6.304  0.5145  0.5851  0.1357
  158SAPE    HS17595   5.477   4.639   6.362  1.2350  0.4225 -0.0416
  158SAPE   O2117596   5.455   4.862   6.371 -0.0793 -0.1026 -0.4235
  158SAPE   C2117597   5.372   4.854   6.478 -0.7317  0.2558 -0.5764
  158SAPE   O2217598   5.326   4.746   6.515  0.2431  0.1594  0.3621
  158SAPE   C2217599   5.360   4.991   6.539 -0.4344 -0.1878 -0.2932
  158SAPE   H2R17600   5.439   4.997   6.617 -2.2062  1.7599  1.4887
  158SAPE   H2S17601   5.385   5.076   6.472  3.5024 -0.5543  0.4529
  158SAPE    C317602   5.633   4.728   6.267  0.1322  0.5525  0.5172
  158SAPE    HX17603   5.654   4.810   6.195  0.0561 -0.9312 -1.2586
  158SAPE    HY17604   5.650   4.630   6.217  0.6556  0.5252  0.7468
  158SAPE   O3117605   5.715   4.731   6.383  0.1375  0.0796  0.2668
  158SAPE   C3117606   5.827   4.794   6.374 -0.2397 -0.5976  0.7637
  158SAPE   O3217607   5.862   4.869   6.284 -0.1654 -0.9529  0.3702
  158SAPE   C3217608   5.905   4.770   6.500 -0.2832 -0.4249  0.3437
  158SAPE   H2X17609   5.999   4.827   6.483 -1.8010  1.5058 -2.4720
  158SAPE   H2Y17610   5.918   4.660   6.509  1.1904 -0.3109 -0.1106
  158SAPE   C2317611   5.228   5.018   6.620  0.1001  1.0150  0.3938
  158SAPE   H3R17612   5.231   4.940   6.699  1.4401 -0.4560 -1.0285
  158SAPE   H3S17613   5.145   4.977   6.559  1.2740 -0.3563 -0.3534
  158SAPE   C2417614   5.202   5.160   6.672 -0.5172 -0.2914  0.0688
  158SAPE   H4R17615   5.105   5.158   6.727 -0.0838  0.0962  0.8666
  158SAPE   H4S17616   5.195   5.233   6.588  0.7239  1.2027  1.1888
  158SAPE   C2517617   5.310   5.220   6.764  0.4268  0.0155  0.1600
  158SAPE   H5R17618   5.381   5.288   6.715 -1.5791  2.2922  0.2116
  158SAPE   C2617619   5.325   5.200   6.895 -0.1065 -0.4938  0.6239
  158SAPE   H6R17620   5.396   5.261   6.953 -0.3503  0.4987 -0.0873
  158SAPE   C2717621   5.235   5.122   6.990 -0.0148  0.2139 -1.0435
  158SAPE   H7R17622   5.281   5.028   7.028 -1.7998  0.0068  0.8134
  158SAPE   H7S17623   5.143   5.095   6.934  0.5056  1.1975 -2.4168
  158SAPE   C2817624   5.198   5.213   7.112  0.2990 -0.0401 -0.1085
  158SAPE   H8R17625   5.159   5.306   7.070  0.2923 -0.2342 -0.5326
  158SAPE   C2917626   5.228   5.201   7.244 -0.1175 -0.6972  0.2531
  158SAPE   H9R17627   5.187   5.277   7.311  2.6762  2.2371 -1.0807
  158SAPE  C21017628   5.303   5.086   7.302 -0.2499  0.7404 -1.1191
  158SAPE  H10R17629   5.299   4.992   7.242 -0.0228  0.7419 -1.1373
  158SAPE  H10S17630   5.260   5.056   7.400  1.8076 -0.5838 -0.5453
  158SAPE  C21117631   5.449   5.097   7.333 -0.1571  0.2361 -0.2094
  158SAPE  H11R17632   5.508   5.113   7.241 -0.5432 -0.4328 -0.5784
  158SAPE  C21217633   5.520   5.090   7.450 -0.1422  0.7167  0.2625
  158SAPE  H12R17634   5.630   5.102   7.443 -0.1591  0.5141 -0.4846
  158SAPE  C21317635   5.472   5.060   7.592 -0.2381 -0.0429 -0.2646
  158SAPE  H13R17636   5.529   4.981   7.644  1.2735  0.7528 -0.6638
  158SAPE  H13S17637   5.368   5.019   7.591 -0.5553  0.6712  1.1971
  158SAPE  C21417638   5.449   5.187   7.678  0.3203  1.1085  0.7539
  158SAPE  H14R17639   5.386   5.265   7.634 -1.4122 -1.0960 -0.9602
  158SAPE  C21517640   5.491   5.193   7.807  0.1255 -0.1676 -0.1596
  158SAPE  H15R17641   5.456   5.285   7.857 -1.8594 -1.1649  0.4057
  158SAPE  C21617642   5.568   5.104   7.906  0.5719  0.7021  0.1527
  158SAPE  H16R17643   5.643   5.161   7.966  2.2635 -1.2075 -0.0186
  158SAPE  H16S17644   5.623   5.024   7.852 -1.6813 -0.4477 -0.5461
  158SAPE  C21717645   5.471   5.036   7.999 -1.1940  0.3292 -0.0943
  158SAPE  H17R17646   5.412   4.963   7.939 -1.6256  1.5866 -1.2474
  158SAPE  H17S17647   5.400   5.114   8.033  0.4506  2.4665 -1.2518
  158SAPE  C21817648   5.536   4.958   8.106 -0.4650 -0.1566  0.5277
  158SAPE  H18R17649   5.607   5.012   8.171 -0.3377  0.0781  0.1988
  158SAPE  H18S17650   5.601   4.883   8.057  0.6226 -0.0140  1.7031
  158SAPE  C21917651   5.438   4.866   8.185  0.2027  0.1523 -0.0141
  158SAPE  H19R17652   5.378   4.806   8.114  0.4397 -0.3086  0.1723
  158SAPE  H19S17653   5.368   4.935   8.236 -1.9946 -1.9437 -0.0652
  158SAPE  C22017654   5.493   4.780   8.303  0.1517 -0.5050 -0.3358
  158SAPE  H20R17655   5.550   4.838   8.379  0.1126  0.0388 -0.7213
  158SAPE  H20S17656   5.570   4.707   8.270  0.4711  0.2437 -1.2669
  158SAPE  H20T17657   5.404   4.733   8.351 -1.1167  1.1464 -0.9512
  158SAPE   C3317658   5.832   4.795   6.635 -0.1950 -0.3505  0.5825
  158SAPE   H3X17659   5.882   4.740   6.718  0.5207 -2.4701 -1.1455
  158SAPE   H3Y17660   5.723   4.773   6.627  0.5310 -4.3872 -0.6792
  158SAPE   C3417661   5.840   4.945   6.675  0.1574  0.1500  1.0227
  158SAPE   H4X17662   5.787   4.998   6.593  0.7462 -1.8907 -0.7742
  158SAPE   H4Y17663   5.947   4.973   6.666  0.6540 -0.9388  3.1131
  158SAPE   C3517664   5.769   4.975   6.812 -0.0626 -0.0373 -0.5444
  158SAPE   H5X17665   5.690   4.898   6.825  1.8641 -2.1359 -0.5793
  158SAPE   H5Y17666   5.735   5.081   6.807  0.0547  0.0251 -0.0981
  158SAPE   C3617667   5.875   4.970   6.926  0.2033 -0.0477 -0.3102
  158SAPE   H6X17668   5.952   5.044   6.897 -0.1341 -0.5659 -2.8345
  158SAPE   H6Y17669   5.921   4.871   6.906 -0.9494 -0.5893 -0.3816
  158SAPE   C3717670   5.821   4.996   7.062  0.4606  0.2425  0.7068
  158SAPE   H7X17671   5.782   5.100   7.064  0.6287  0.4091 -1.7672
  158SAPE   H7Y17672   5.734   4.928   7.066  1.4104 -1.1040 -0.4153
  158SAPE   C3817673   5.923   4.970   7.172  0.4167 -0.3772 -0.2109
  158SAPE   H8X17674   6.013   5.029   7.143  0.1687 -0.6308 -1.5660
  158SAPE   H8Y17675   5.950   4.863   7.168 -2.4088 -1.2063  0.7098
  158SAPE   C3917676   5.880   5.005   7.311 -0.1485  0.5703  0.8198
  158SAPE   H9X17677   5.786   4.949   7.328  1.5071 -2.5222  0.4747
  158SAPE   H9Y17678   5.857   5.113   7.322  0.2244  0.8750 -1.0610
  158SAPE  C31017679   5.984   4.962   7.417 -0.1022 -0.5728 -0.5975
  158SAPE  H10X17680   6.072   5.030   7.407 -1.0607  0.8545  0.2789
  158SAPE  H10Y17681   6.017   4.857   7.414 -2.4609 -1.4765  1.3571
  158SAPE  C31117682   5.921   4.981   7.558  0.1619 -0.0666 -0.2584
  158SAPE  H11X17683   5.828   4.921   7.554  1.2103 -1.6651 -2.6754
  158SAPE  H11Y17684   5.893   5.085   7.585 -0.7847 -0.6729  1.2112
  158SAPE  C31217685   6.002   4.928   7.677  0.0629  0.0811 -0.4505
  158SAPE  H12X17686   6.101   4.979   7.667 -1.5993  3.1912 -2.7943
  158SAPE  H12Y17687   6.016   4.818   7.677  0.3420  0.0997  0.8294
  158SAPE  C31317688   5.946   4.964   7.811 -0.0168 -0.3326  0.5917
  158SAPE  H13X17689   5.841   4.927   7.815  0.4725 -1.8691 -0.0665
  158SAPE  H13Y17690   5.926   5.072   7.827  0.4699 -0.0022 -0.9429
  158SAPE  C31417691   6.034   4.917   7.925  0.0194  0.4686 -1.0862
  158SAPE  H14X17692   6.129   4.975   7.929 -0.3315  1.2323  4.6662
  158SAPE  H14Y17693   6.047   4.807   7.917  3.1849  0.4764  1.7007
  158SAPE  C31517694   5.967   4.959   8.060 -0.1479 -0.3459 -0.4381
  158SAPE  H15X17695   5.877   4.897   8.077 -1.3214  1.0843 -1.2000
  158SAPE  H15Y17696   5.937   5.066   8.069  0.1837 -0.1790 -1.2392
  158SAPE  C31617697   6.052   4.926   8.178 -0.3296 -0.3965  0.4331
  158SAPE  H16X17698   6.005   4.947   8.277  2.2673  0.8234  1.4789
  158SAPE  H16Y17699   6.143   4.988   8.189 -0.4256 -0.4599  1.7810
  158SAPE  C31717700   6.092   4.774   8.189 -0.6174  1.0224  0.1872
  158SAPE  H17X17701   6.147   4.738   8.100 -0.2454 -0.2750  0.9191
  158SAPE  H17Y17702   5.999   4.716   8.207 -0.6608  0.6326 -1.1999
  158SAPE  C31817703   6.184   4.749   8.310 -0.7556 -0.4608 -0.2108
  158SAPE  H18X17704   6.142   4.762   8.412  0.1996  0.2299  0.1086
  158SAPE  H18Y17705   6.273   4.814   8.299 -0.7282 -0.1363  1.6464
  158SAPE  H18Z17706   6.231   4.648   8.305 -1.1120 -0.5696 -2.0554
  159SAPE     N17707   4.739   2.746   6.196 -0.0304 -0.5768  0.0821
  159SAPE   HN117708   4.753   2.656   6.146  0.2340  0.8044 -2.5013
  159SAPE   HN217709   4.694   2.815   6.133  1.2175  0.0621 -0.1383
  159SAPE   HN317710   4.829   2.796   6.214 -1.6463  1.7526  2.3733
  159SAPE   C1217711   4.652   2.739   6.316  0.1674  0.3988 -0.3643
  159SAPE  H12A17712   4.681   2.826   6.379  1.0959 -0.4587  0.4438
  159SAPE  H12B17713   4.663   2.645   6.373  1.1764 -0.1671 -1.4424
  159SAPE   C1117714   4.511   2.769   6.272 -0.7131  0.3840 -0.0442
  159SAPE  H11A17715   4.449   2.790   6.362 -1.4168  2.0079 -0.8560
  159SAPE  H11B17716   4.469   2.683   6.217 -0.8098  1.9957 -2.6843
  159SAPE     P17717   4.384   2.937   6.131  0.2341  0.1512  0.3796
  159SAPE   O1317718   4.405   3.012   6.005  0.4517 -0.2580 -0.1242
  159SAPE   O1417719   4.291   2.825   6.131 -0.3343 -0.7327  0.2837
  159SAPE   O1217720   4.517   2.880   6.183  0.1837  0.8072 -0.0972
  159SAPE   O1117721   4.331   3.044   6.232  0.4020 -0.0215  0.2130
  159SAPE    C117722   4.424   3.137   6.308 -0.0673  1.1729 -0.0489
  159SAPE    HA17723   4.520   3.090   6.337 -0.5887  0.5225  0.6512
  159SAPE    HB17724   4.447   3.226   6.244 -1.2358  1.1045 -0.5988
  159SAPE    C217725   4.355   3.190   6.438 -0.1426  0.2006  0.5906
  159SAPE    HS17726   4.257   3.231   6.406 -0.2270 -0.3822  0.0839
  159SAPE   O2117727   4.447   3.280   6.499  0.1532 -0.2518 -0.0483
  159SAPE   C2117728   4.386   3.378   6.567 -0.5414  0.0182  0.0780
  159SAPE   O2217729   4.267   3.384   6.592  0.0267 -0.3348 -0.6253
  159SAPE   C2217730   4.491   3.466   6.636 -0.3229 -0.0561  0.2405
  159SAPE   H2R17731   4.454   3.490   6.738  1.8654 -0.4563  1.1996
  159SAPE   H2S17732   4.579   3.398   6.638 -0.1539  0.1741  0.7196
  159SAPE    C317733   4.342   3.065   6.534  0.0962 -0.7260 -0.5582
  159SAPE    HX17734   4.439   3.011   6.527  0.4821 -0.2618  0.8454
  159SAPE    HY17735   4.263   2.995   6.501 -0.6247 -0.0855 -0.2271
  159SAPE   O3117736   4.329   3.111   6.674  0.1796  0.7029 -0.1247
  159SAPE   C3117737   4.349   3.005   6.752 -0.4083 -0.1050  1.2396
  159SAPE   O3217738   4.362   2.889   6.708 -0.3548 -0.4292  0.0414
  159SAPE   C3217739   4.325   3.039   6.890  0.4009 -0.3603  0.0102
  159SAPE   H2X17740   4.231   3.097   6.899 -0.7025 -1.7355 -1.8891
  159SAPE   H2Y17741   4.406   3.107   6.925  0.5616 -0.9795  0.8921
  159SAPE   C2317742   4.517   3.594   6.557  0.8906 -0.6905 -0.3183
  159SAPE   H3R17743   4.420   3.626   6.512 -0.4705 -2.0688  1.4973
  159SAPE   H3S17744   4.595   3.567   6.483  2.6059 -0.9247  1.4871
  159SAPE   C2417745   4.565   3.712   6.643  0.1068  0.5012 -0.2608
  159SAPE   H4R17746   4.488   3.741   6.718  2.0370  0.2690  1.9224
  159SAPE   H4S17747   4.576   3.804   6.583 -0.5306  0.4824 -0.4125
  159SAPE   C2517748   4.702   3.697   6.712  0.5997 -0.7622  0.3535
  159SAPE   H5R17749   4.788   3.683   6.645  1.1822 -0.5367  1.0348
  159SAPE   C2617750   4.736   3.724   6.841  0.4177  0.1803  0.9748
  159SAPE   H6R17751   4.840   3.706   6.872  0.5438 -0.5233  0.1854
  159SAPE   C2717752   4.636   3.760   6.951 -0.0615  0.5066  0.5325
  159SAPE   H7R17753   4.633   3.695   7.041  0.9708  1.2000  1.0829
  159SAPE   H7S17754   4.533   3.761   6.910  0.6824  0.4277 -1.4263
  159SAPE   C2817755   4.662   3.903   6.985 -0.5674  0.2403  0.1797
  159SAPE   H8R17756   4.669   3.968   6.897 -1.1952  0.6485  0.4259
  159SAPE   C2917757   4.683   3.953   7.109  0.6377 -0.9650 -0.0302
  159SAPE   H9R17758   4.704   4.060   7.121  1.0687 -1.0225 -0.2729
  159SAPE  C21017759   4.683   3.877   7.239  0.4316  0.0749 -0.0235
  159SAPE  H10R17760   4.705   3.768   7.237  0.2093 -0.0620  2.1039
  159SAPE  H10S17761   4.586   3.888   7.291  1.2785  0.1901  1.6197
  159SAPE  C21117762   4.798   3.937   7.321 -0.1579 -0.0102 -0.2605
  159SAPE  H11R17763   4.871   4.001   7.269  2.5039 -1.0168  1.9368
  159SAPE  C21217764   4.817   3.927   7.455  0.1723  0.7629  0.2928
  159SAPE  H12R17765   4.907   3.968   7.502 -0.3693  2.8586 -0.3879
  159SAPE  C21317766   4.727   3.843   7.543  0.7591  0.2179  0.1903
  159SAPE  H13R17767   4.786   3.796   7.624  1.7619  2.5667  0.9277
  159SAPE  H13S17768   4.680   3.765   7.479  0.4634 -0.3263  1.0645
  159SAPE  C21417769   4.610   3.916   7.599 -0.0710 -0.0124  0.3618
  159SAPE  H14R17770   4.536   3.946   7.523 -0.0564 -2.5504 -0.7377
  159SAPE  C21517771   4.580   3.939   7.726  0.4333 -0.2696  0.2546
  159SAPE  H15R17772   4.488   3.998   7.738 -0.0957 -0.1652 -3.2419
  159SAPE  C21617773   4.654   3.903   7.850  0.2158 -0.2770  0.3092
  159SAPE  H16R17774   4.750   3.854   7.825  0.5923  0.7808 -0.3916
  159SAPE  H16S17775   4.595   3.835   7.915 -0.5822 -1.2405 -1.3558
  159SAPE  C21717776   4.687   4.019   7.947 -0.0651 -0.4852  0.3833
  159SAPE  H17R17777   4.756   3.985   8.027  2.4965  0.8621 -1.1531
  159SAPE  H17S17778   4.595   4.061   7.994 -0.2958  0.6236 -0.9942
  159SAPE  C21817779   4.762   4.128   7.875 -0.3371 -0.2456  0.1716
  159SAPE  H18R17780   4.758   4.215   7.944  0.8404 -1.3311  1.6888
  159SAPE  H18S17781   4.717   4.158   7.778 -0.0292  1.0136  0.4019
  159SAPE  C21917782   4.916   4.108   7.865  0.0079  0.2343 -0.0896
  159SAPE  H19R17783   4.933   4.047   7.774  3.1985  1.3320 -0.3293
  159SAPE  H19S17784   4.955   4.041   7.945 -0.5151 -1.5961 -1.3041
  159SAPE  C22017785   5.009   4.232   7.855 -0.8839  0.2634  0.0166
  159SAPE  H20R17786   5.018   4.272   7.959  0.3247  0.5050 -0.1661
  159SAPE  H20S17787   4.972   4.313   7.788 -1.4647 -0.8765 -1.0806
  159SAPE  H20T17788   5.111   4.202   7.824 -0.7986 -0.4910  0.9752
  159SAPE   C3317789   4.322   2.917   6.990 -0.6108 -0.1529  0.3756
  159SAPE   H3X17790   4.418   2.865   6.968 -0.4063  0.5370 -0.4088
  159SAPE   H3Y17791   4.241   2.849   6.955  0.8810 -1.6977 -0.2434
  159SAPE   C3417792   4.310   2.958   7.137  0.7820 -0.3130 -0.1900
  159SAPE   H4X17793   4.233   3.038   7.142  0.1502 -0.9630  1.2186
  159SAPE   H4Y17794   4.409   2.996   7.170 -0.3798  2.1125  0.7847
  159SAPE   C3517795   4.252   2.839   7.219  0.5474  0.5374 -0.3774
  159SAPE   H5X17796   4.322   2.753   7.226 -1.2974 -0.9279  1.1480
  159SAPE   H5Y17797   4.162   2.811   7.161  1.6965 -1.2825 -1.3974
  159SAPE   C3617798   4.242   2.890   7.360  0.0338 -0.2249 -0.2211
  159SAPE   H6X17799   4.172   2.976   7.366 -1.0145 -0.9666 -1.3058
  159SAPE   H6Y17800   4.339   2.933   7.394  0.0725  1.1727 -1.9253
  159SAPE   C3717801   4.202   2.782   7.470  0.1327  0.8846 -0.4937
  159SAPE   H7X17802   4.293   2.717   7.468  0.4783  1.2755  1.1598
  159SAPE   H7Y17803   4.109   2.730   7.441  0.7784 -1.9832  2.0037
  159SAPE   C3817804   4.186   2.829   7.613 -0.2693  0.5913 -0.2022
  159SAPE   H8X17805   4.136   2.753   7.677  0.4409  0.8061  0.6234
  159SAPE   H8Y17806   4.107   2.907   7.611 -0.9826 -0.1314 -0.9627
  159SAPE   C3917807   4.315   2.880   7.684  0.9320 -0.2952 -0.0969
  159SAPE   H9X17808   4.373   2.943   7.613  2.1481  0.0987  1.1925
  159SAPE   H9Y17809   4.384   2.798   7.712  0.8463  0.3235  2.2175
  159SAPE  C31017810   4.277   2.968   7.806  1.0433  0.0172 -0.0838
  159SAPE  H10X17811   4.201   2.909   7.861  0.3321  0.6488 -0.3813
  159SAPE  H10Y17812   4.235   3.063   7.766  0.2453  0.1802  1.0973
  159SAPE  C31117813   4.394   3.010   7.890 -0.4456 -0.3458  0.2366
  159SAPE  H11X17814   4.472   3.052   7.823 -0.2276 -0.9402  0.1067
  159SAPE  H11Y17815   4.444   2.920   7.933  0.8347  0.3809  0.3069
  159SAPE  C31217816   4.357   3.101   8.002 -0.0088  0.1883  0.2119
  159SAPE  H12X17817   4.289   3.183   7.973 -1.0710 -0.3406  1.1425
  159SAPE  H12Y17818   4.452   3.144   8.041  1.9684 -2.5689 -1.2577
  159SAPE  C31317819   4.300   3.024   8.122  0.2229 -0.1491 -0.1569
  159SAPE  H13X17820   4.332   2.920   8.144  1.8730  0.9564  3.6237
  159SAPE  H13Y17821   4.189   3.019   8.113  0.3737 -2.8837 -1.3653
  159SAPE  C31417822   4.329   3.121   8.240 -0.1625 -0.5070  0.2694
  159SAPE  H14X17823   4.299   3.225   8.212 -0.7160 -0.6076  0.4608
  159SAPE  H14Y17824   4.431   3.118   8.282  0.3040 -0.2537 -0.8102
  159SAPE  C31517825   4.239   3.081   8.365  0.0034 -0.4554  0.6479
  159SAPE  H15X17826   4.267   2.985   8.414 -2.2210 -0.7258  1.5460
  159SAPE  H15Y17827   4.140   3.066   8.316 -0.0638  0.3262  0.5323
  159SAPE  C31617828   4.223   3.192   8.472 -0.6817 -0.0120  0.5272
  159SAPE  H16X17829   4.150   3.139   8.537  0.9709 -0.3482  2.2032
  159SAPE  H16Y17830   4.178   3.285   8.432  1.0148  0.2083 -1.0173
  159SAPE  C31717831   4.351   3.224   8.551 -0.2580  0.2104 -0.0979
  159SAPE  H17X17832   4.439   3.265   8.497  0.6024  0.6931  1.5890
  159SAPE  H17Y17833   4.395   3.128   8.586  0.0410  0.7204  0.9595
  159SAPE  C31817834   4.331   3.311   8.672  0.2906  0.0079 -0.4345
  159SAPE  H18X17835   4.342   3.420   8.655 -0.1110  0.4168  1.6563
  159SAPE  H18Y17836   4.412   3.300   8.747  0.2131  0.0713 -0.3408
  159SAPE  H18Z17837   4.234   3.283   8.720  1.0565 -0.6567  0.7614
  160SAPE     N17838   5.986   1.514   6.328  0.2699 -0.7666  0.3955
  160SAPE   HN117839   6.005   1.583   6.252 -2.1047 -0.2738  0.1730
  160SAPE   HN217840   6.060   1.516   6.402  0.9237 -2.3827 -0.1597
  160SAPE   HN317841   5.998   1.422   6.282  2.8916 -0.2365 -0.1290
  160SAPE   C1217842   5.848   1.531   6.377 -0.5011 -0.6414 -0.1744
  160SAPE  H12A17843   5.813   1.452   6.447 -1.9688  1.1154  1.1948
  160SAPE  H12B17844   5.778   1.529   6.291 -2.3773  0.8193  1.2403
  160SAPE   C1117845   5.837   1.666   6.447 -0.2709  0.4185 -0.4730
  160SAPE  H11A17846   5.918   1.670   6.522 -1.4011 -1.9775  0.9965
  160SAPE  H11B17847   5.749   1.659   6.514  1.0946 -2.4995  1.2197
  160SAPE     P17848   5.709   1.828   6.290 -0.2380  0.0657 -0.3090
  160SAPE   O1317849   5.737   1.955   6.221  0.3299  0.2415  1.0364
  160SAPE   O1417850   5.647   1.714   6.221 -0.1245 -0.7756  0.1874
  160SAPE   O1217851   5.841   1.781   6.367  0.6163 -1.0265  0.2358
  160SAPE   O1117852   5.608   1.865   6.399 -0.3073 -0.2646 -0.0040
  160SAPE    C117853   5.619   1.971   6.492  0.4397  0.5456  0.0511
  160SAPE    HA17854   5.718   2.020   6.486  1.7409 -1.7841  0.9359
  160SAPE    HB17855   5.544   2.051   6.475  0.5207  0.3946 -1.1291
  160SAPE    C217856   5.598   1.934   6.641  0.2655 -0.6512  0.2376
  160SAPE    HS17857   5.582   2.029   6.695  1.8154 -0.8456  1.1014
  160SAPE   O2117858   5.711   1.856   6.684  0.3974  0.2202 -0.1024
  160SAPE   C2117859   5.801   1.927   6.752  0.5960 -0.3208  0.2440
  160SAPE   O2217860   5.800   2.050   6.759  0.2988 -0.8081  0.0714
  160SAPE   C2217861   5.891   1.826   6.816 -0.4603 -0.5736 -0.0217
  160SAPE   H2R17862   5.838   1.787   6.905  0.6971 -2.5866 -0.1384
  160SAPE   H2S17863   5.909   1.742   6.745  0.8912 -0.4754  0.1848
  160SAPE    C317864   5.465   1.852   6.669  0.4967  0.2211  0.1201
  160SAPE    HX17865   5.448   1.772   6.595  1.0798  0.3105 -0.1084
  160SAPE    HY17866   5.398   1.939   6.649  3.7848  2.5546 -1.7748
  160SAPE   O3117867   5.463   1.819   6.810  0.2150  0.1138 -0.3058
  160SAPE   C3117868   5.446   1.698   6.841 -0.3277  0.9795  0.2301
  160SAPE   O3217869   5.471   1.599   6.776  0.2441 -0.2381 -0.1799
  160SAPE   C3217870   5.410   1.683   6.986 -0.7130 -0.8345  0.6331
  160SAPE   H2X17871   5.487   1.730   7.051  0.6314 -1.0844 -0.7286
  160SAPE   H2Y17872   5.439   1.578   7.011  0.8165 -0.5265  0.2087
  160SAPE   C2317873   6.027   1.885   6.865  0.4835  0.7158 -0.3677
  160SAPE   H3R17874   6.080   1.922   6.776  1.7437 -2.6555 -1.1691
  160SAPE   H3S17875   6.088   1.798   6.895 -0.2262 -0.4623 -2.1621
  160SAPE   C2417876   6.013   1.979   6.983 -0.1872  0.5112  0.2145
  160SAPE   H4R17877   5.961   1.918   7.060  0.2303 -2.6528 -1.8121
  160SAPE   H4S17878   5.957   2.071   6.956 -0.4814  0.0372 -0.8386
  160SAPE   C2517879   6.146   2.019   7.033  0.5101 -0.5272 -0.2266
  160SAPE   H5R17880   6.205   2.080   6.963  0.1069  0.3204  0.1636
  160SAPE   C2617881   6.196   1.991   7.153  0.2086  0.8367  0.5633
  160SAPE   H6R17882   6.298   2.025   7.173 -0.0700 -0.2193  4.9655
  160SAPE   C2717883   6.138   1.917   7.277  0.3525  0.1940  0.3182
  160SAPE   H7R17884   6.053   1.857   7.237 -1.3644  1.0654  2.4540
  160SAPE   H7S17885   6.089   1.987   7.348  0.2815 -0.2444  0.7001
  160SAPE   C2817886   6.242   1.826   7.353  0.2866  0.0973 -0.1325
  160SAPE   H8R17887   6.270   1.732   7.304  4.8266  0.0105  2.0938
  160SAPE   C2917888   6.296   1.853   7.475  0.2867 -0.0632 -0.0868
  160SAPE   H9R17889   6.373   1.781   7.505  1.4470 -0.7773 -4.1168
  160SAPE  C21017890   6.286   1.986   7.546 -0.6655  0.2262 -0.8180
  160SAPE  H10R17891   6.207   1.979   7.624 -1.0881  0.1574 -1.2492
  160SAPE  H10S17892   6.249   2.061   7.473 -0.8010  0.6466 -0.3242
  160SAPE  C21117893   6.413   2.040   7.612 -0.0417  0.1306  0.5590
  160SAPE  H11R17894   6.471   2.116   7.559  2.2427 -1.6956  0.3041
  160SAPE  C21217895   6.463   2.002   7.732 -0.5359 -0.3318 -0.5124
  160SAPE  H12R17896   6.550   2.052   7.778 -1.5434  1.4812 -0.4879
  160SAPE  C21317897   6.384   1.919   7.831 -0.5639  0.1422  0.2513
  160SAPE  H13R17898   6.454   1.857   7.890  0.6807 -0.4364 -1.7151
  160SAPE  H13S17899   6.314   1.849   7.781 -1.4050 -1.3246  3.2520
  160SAPE  C21417900   6.298   2.011   7.919 -0.0753  0.0382  0.0323
  160SAPE  H14R17901   6.242   2.082   7.855  1.9488  0.5337 -1.2876
  160SAPE  C21517902   6.278   2.011   8.053  0.4973  0.3552 -0.4660
  160SAPE  H15R17903   6.208   2.084   8.095  0.9291  0.2623  0.4278
  160SAPE  C21617904   6.343   1.909   8.154  0.0178  0.0592  0.4245
  160SAPE  H16R17905   6.396   1.952   8.242 -0.1997 -0.5665  0.8667
  160SAPE  H16S17906   6.423   1.851   8.105 -0.5311 -0.9107  0.6487
  160SAPE  C21717907   6.234   1.812   8.208 -0.0780 -1.0812  0.1457
  160SAPE  H17R17908   6.176   1.762   8.128 -1.2379 -0.9206  0.8673
  160SAPE  H17S17909   6.175   1.873   8.280 -0.1751 -0.2458 -0.6134
  160SAPE  C21817910   6.324   1.719   8.288  0.5408  0.0535  0.9280
  160SAPE  H18R17911   6.365   1.785   8.367  3.7169  1.0153 -1.3114
  160SAPE  H18S17912   6.415   1.676   8.241 -0.5008 -1.8394  0.5342
  160SAPE  C21917913   6.242   1.597   8.337 -0.4625 -0.3152  1.1356
  160SAPE  H19R17914   6.191   1.557   8.247  1.8282 -2.7585  0.8118
  160SAPE  H19S17915   6.160   1.635   8.401 -1.4274 -2.1003  1.0232
  160SAPE  C22017916   6.334   1.494   8.406  0.5620 -0.2814 -0.0369
  160SAPE  H20R17917   6.267   1.416   8.448 -1.3646 -0.0814 -2.4802
  160SAPE  H20S17918   6.394   1.543   8.486 -0.9460  2.2486 -0.3254
  160SAPE  H20T17919   6.409   1.449   8.337  1.0060 -0.5292  0.5958
  160SAPE   C3317920   5.268   1.733   7.017 -0.7279 -0.2388  0.7551
  160SAPE   H3X17921   5.204   1.671   6.951 -2.3400  2.6080 -0.5083
  160SAPE   H3Y17922   5.258   1.837   6.981  1.8493 -0.1255  0.1562
  160SAPE   C3417923   5.226   1.726   7.164  0.2018 -0.0124 -0.2934
  160SAPE   H4X17924   5.254   1.627   7.206  2.2450  0.6507 -0.0162
  160SAPE   H4Y17925   5.119   1.752   7.176  0.6200  1.3903  0.4820
  160SAPE   C3517926   5.302   1.825   7.252  0.3627 -0.0834 -0.0121
  160SAPE   H5X17927   5.291   1.929   7.213 -0.0926 -0.6465 -1.4590
  160SAPE   H5Y17928   5.409   1.797   7.263  0.3566  0.0222  0.3284
  160SAPE   C3617929   5.244   1.837   7.396  0.2889  0.3392 -0.2817
  160SAPE   H6X17930   5.249   1.731   7.430 -0.6148  0.7057  1.0441
  160SAPE   H6Y17931   5.146   1.887   7.408  0.8633  1.4472 -0.1396
  160SAPE   C3717932   5.332   1.909   7.496 -0.5784  0.6576  0.3015
  160SAPE   H7X17933   5.356   2.009   7.456  0.3914 -0.3093 -1.7161
  160SAPE   H7Y17934   5.429   1.858   7.514 -0.0768  1.3249 -0.4555
  160SAPE   C3817935   5.261   1.932   7.629 -0.0243  0.1396  0.0549
  160SAPE   H8X17936   5.160   1.973   7.609  0.1442  0.6316  0.1998
  160SAPE   H8Y17937   5.310   2.017   7.681  0.3264 -0.6623  1.0632
  160SAPE   C3917938   5.255   1.804   7.719  0.2885 -0.2573  0.3652
  160SAPE   H9X17939   5.205   1.728   7.655 -1.0422  1.7170 -1.0477
  160SAPE   H9Y17940   5.182   1.827   7.799 -0.2163 -1.7509  0.3501
  160SAPE  C31017941   5.392   1.785   7.781 -0.4880  0.3505  0.1059
  160SAPE  H10X17942   5.442   1.884   7.767 -1.5247  0.7678 -0.7364
  160SAPE  H10Y17943   5.445   1.704   7.726  0.6101  0.1179  1.4544
  160SAPE  C31117944   5.383   1.748   7.924 -0.8697 -0.1265 -0.2922
  160SAPE  H11X17945   5.317   1.660   7.935 -0.5217 -0.0700  3.2692
  160SAPE  H11Y17946   5.332   1.827   7.983 -1.7501 -2.0534  1.6490
  160SAPE  C31217947   5.523   1.717   7.982  0.2297 -0.5965  0.3254
  160SAPE  H12X17948   5.594   1.799   7.963  0.6626 -1.1717 -0.6127
  160SAPE  H12Y17949   5.546   1.625   7.923  0.7642  0.0431 -0.4823
  160SAPE  C31317950   5.514   1.683   8.129 -0.5866  0.3456  0.6510
  160SAPE  H13X17951   5.433   1.608   8.139 -0.8765  0.2399 -1.8539
  160SAPE  H13Y17952   5.488   1.776   8.184 -0.4725 -0.0739  1.4253
  160SAPE  C31417953   5.635   1.624   8.197 -0.2743  0.5143  0.7129
  160SAPE  H14X17954   5.729   1.680   8.176  1.0108 -1.8695 -0.3212
  160SAPE  H14Y17955   5.656   1.523   8.156 -0.0068  0.3417  1.2650
  160SAPE  C31517956   5.608   1.617   8.351 -0.2388  0.2394  0.0369
  160SAPE  H15X17957   5.671   1.544   8.405 -1.2494 -0.8116 -0.1566
  160SAPE  H15Y17958   5.506   1.573   8.359 -0.8687  1.3427 -1.3804
  160SAPE  C31617959   5.628   1.755   8.416  0.3080 -0.1773 -1.0680
  160SAPE  H16X17960   5.550   1.765   8.496 -0.4353 -0.0282 -1.7933
  160SAPE  H16Y17961   5.593   1.835   8.347 -3.0146 -1.3619 -0.9756
  160SAPE  C31717962   5.771   1.774   8.456  0.6398 -0.1286  0.1934
  160SAPE  H17X17963   5.843   1.747   8.376 -1.2290  0.4470 -1.7624
  160SAPE  H17Y17964   5.795   1.707   8.542  1.7769 -0.4161 -0.3310
  160SAPE  C31817965   5.798   1.916   8.502  0.7614  0.3167 -0.8331
  160SAPE  H18X17966   5.818   1.982   8.415 -0.5627  0.0243 -1.3827
  160SAPE  H18Y17967   5.886   1.910   8.569  0.5422 -0.0002 -0.5744
  160SAPE  H18Z17968   5.720   1.959   8.568  1.0074 -1.6732  0.8275
  161SOPE     N17969   3.067   4.698  10.664 -0.3040  0.2729  0.1193
  161SOPE   HN117970   3.073   4.618  10.597  3.1993  1.1126 -0.7531
  161SOPE   HN217971   3.014   4.784  10.638 -0.6792  1.1160  3.3184
  161SOPE   HN317972   3.168   4.713  10.683  0.3011 -2.3197 -0.5276
  161SOPE   C1217973   2.998   4.645  10.791 -0.3688 -0.5740 -0.2268
  161SOPE  H12A17974   2.888   4.648  10.775 -0.7506 -1.5891  1.8114
  161SOPE  H12B17975   3.013   4.712  10.878 -0.5902 -0.5672 -0.1927
  161SOPE   C1117976   3.042   4.509  10.839 -0.2809  0.1526 -0.9530
  161SOPE  H11A17977   2.990   4.511  10.937  2.2955  0.0004  0.4950
  161SOPE  H11B17978   3.152   4.504  10.856 -0.3405  3.8373  1.5756
  161SOPE     P17979   2.955   4.278  10.783 -0.3448 -0.3845 -0.1473
  161SOPE   O1317980   2.816   4.273  10.822  0.4445 -0.2231 -0.6797
  161SOPE   O1417981   3.056   4.244  10.888 -0.0440  0.2968  0.4709
  161SOPE   O1217982   2.989   4.426  10.740  0.1171  0.2135  0.0720
  161SOPE   O1117983   2.977   4.198  10.646 -0.0531 -0.3421  0.1278
  161SOPE    C117984   2.940   4.253  10.523  0.3612  0.2985 -0.6026
  161SOPE    HA17985   3.027   4.266  10.455 -0.2482 -0.9596 -1.6675
  161SOPE    HB17986   2.893   4.354  10.524  1.6759  1.0534 -3.5708
  161SOPE    C217987   2.846   4.157  10.447 -0.2805 -0.0971 -0.0850
  161SOPE    HS17988   2.779   4.123  10.529  1.8185 -4.1466  0.1842
  161SOPE   O2117989   2.916   4.034  10.404 -0.0298 -0.0723  0.3826
  161SOPE   C2117990   2.829   3.937  10.357  0.0990 -0.4468  0.3022
  161SOPE   O2217991   2.711   3.939  10.381 -0.3520 -0.1883 -0.5742
  161SOPE   C2217992   2.906   3.824  10.284 -0.5576 -0.6125  0.8498
  161SOPE   H2R17993   2.911   3.732  10.346 -1.3105 -1.0859  0.2437
  161SOPE   H2S17994   3.005   3.866  10.256  0.1513 -2.8793 -0.3824
  161SOPE    C317995   2.770   4.229  10.326  0.2824  0.4818  0.0870
  161SOPE    HX17996   2.740   4.330  10.361  0.5397  0.6857 -0.2703
  161SOPE    HY17997   2.674   4.179  10.303  1.0373 -0.7985 -0.4322
  161SOPE   O3117998   2.850   4.230  10.205  0.2612  0.4300  0.1072
  161SOPE   C3117999   2.925   4.331  10.171 -0.6555  0.7263  0.3415
  161SOPE   O3218000   2.933   4.437  10.228 -0.1752  0.2914 -0.1785
  161SOPE   C3218001   2.992   4.292  10.042  0.1353 -0.2875 -0.2633
  161SOPE   H2X18002   2.917   4.308   9.962  0.1524  2.3512  0.1293
  161SOPE   H2Y18003   3.022   4.186  10.056  2.9878  0.5720  0.7729
  161SOPE   C2318004   2.828   3.789  10.159  0.5527  0.1503 -0.2531
  161SOPE   H3R18005   2.819   3.873  10.087  1.3228 -0.2711 -0.8608
  161SOPE   H3S18006   2.732   3.752  10.201  2.1212 -2.3906  1.4287
  161SOPE   C2418007   2.886   3.667  10.079 -0.1650  0.5952 -0.5351
  161SOPE   H4R18008   2.910   3.588  10.153 -1.5680 -0.7183 -1.4387
  161SOPE   H4S18009   2.816   3.628  10.003  0.7150 -1.0333 -0.5622
  161SOPE   C2518010   3.022   3.699  10.014  0.4196 -0.4219  0.6933
  161SOPE   H5R18011   2.995   3.784   9.948 -2.4881 -0.5297  1.6163
  161SOPE   H5S18012   3.088   3.736  10.095  1.1377 -1.3046  0.5264
  161SOPE   C2618013   3.085   3.583   9.932 -0.7218 -0.4255  0.4167
  161SOPE   H6R18014   3.184   3.625   9.904 -0.3925  0.3352  2.5201
  161SOPE   H6S18015   3.109   3.500  10.001 -0.9059  0.8782  2.1132
  161SOPE   C2718016   3.004   3.540   9.810  0.4887  0.1100  0.8742
  161SOPE   H7R18017   2.900   3.501   9.819  0.2776 -0.2041 -1.9673
  161SOPE   H7S18018   2.989   3.635   9.756  0.7829  1.0433  2.3861
  161SOPE   C2818019   3.082   3.445   9.715  0.3573 -0.2584 -0.1002
  161SOPE   H8R18020   3.175   3.501   9.688  0.3800 -0.0134  0.4739
  161SOPE   H8S18021   3.128   3.363   9.773 -0.8333 -2.6075 -2.2713
  161SOPE   C2918022   3.006   3.394   9.599  0.0466 -0.1592  0.5896
  161SOPE   H9118023   2.913   3.341   9.623 -0.3805 -0.3493 -1.2767
  161SOPE  C21018024   3.034   3.395   9.469 -0.8034 -0.2069 -0.2842
  161SOPE  H10118025   2.962   3.335   9.411 -0.4396 -2.1104  1.1315
  161SOPE  C21118026   3.156   3.447   9.394 -0.0786 -0.0942  0.3186
  161SOPE  H11R18027   3.242   3.460   9.463 -1.1715 -1.2632  1.9739
  161SOPE  H11S18028   3.134   3.552   9.365 -1.7755 -0.3089  0.6839
  161SOPE  C21218029   3.200   3.368   9.273  0.1972 -0.4458  0.4661
  161SOPE  H12R18030   3.232   3.267   9.306 -1.7318 -0.4261  2.6279
  161SOPE  H12S18031   3.280   3.428   9.225 -0.1585 -0.7060 -0.4854
  161SOPE  C21318032   3.092   3.355   9.159  0.4671 -0.1870  0.7066
  161SOPE  H13R18033   3.034   3.450   9.150  0.0940 -0.4597  0.1759
  161SOPE  H13S18034   3.021   3.275   9.187 -1.2974  1.2360  0.5036
  161SOPE  C21418035   3.151   3.328   9.024 -0.0688 -0.5157 -0.2730
  161SOPE  H14R18036   3.176   3.221   9.012 -1.3650 -1.2361  2.6827
  161SOPE  H14S18037   3.243   3.386   9.001 -0.8951  1.1027  0.3665
  161SOPE  C21518038   3.054   3.372   8.917 -0.2153 -0.1139  0.0675
  161SOPE  H15R18039   3.036   3.481   8.920 -2.2339 -0.4114  1.2865
  161SOPE  H15S18040   2.962   3.311   8.933  0.1080 -0.9968 -1.2700
  161SOPE  C21618041   3.109   3.342   8.776  0.3060  0.1606 -0.7663
  161SOPE  H16R18042   3.137   3.235   8.773  0.4542  0.0015  2.6305
  161SOPE  H16S18043   3.202   3.403   8.769  0.8264 -0.5811 -0.4706
  161SOPE  C21718044   3.021   3.377   8.660  0.2175  0.2346 -0.0020
  161SOPE  H17R18045   2.941   3.301   8.669  1.4543 -1.0720  0.3576
  161SOPE  H17S18046   3.070   3.354   8.563 -0.6947 -0.8809 -0.2171
  161SOPE  C21818047   2.966   3.518   8.658  0.4962  0.5623 -0.0538
  161SOPE  H18R18048   2.907   3.528   8.752  2.2915  0.3786  1.1279
  161SOPE  H18S18049   2.895   3.534   8.573 -2.2900  1.0311  2.2204
  161SOPE  H18T18050   3.047   3.593   8.659  2.1154 -1.1236  0.0805
  161SOPE   C3318051   3.121   4.377  10.019 -0.4609  0.2826  0.1107
  161SOPE   H3X18052   3.198   4.349  10.094 -0.3318  0.3347 -0.0016
  161SOPE   H3Y18053   3.107   4.487  10.018  2.8188  0.8220  0.0970
  161SOPE   C3418054   3.180   4.358   9.878  0.4054 -0.3566  0.2092
  161SOPE   H4X18055   3.089   4.373   9.815 -1.4904 -4.7320  1.4757
  161SOPE   H4Y18056   3.217   4.256   9.854  0.0493 -0.8038  1.4742
  161SOPE   C3518057   3.284   4.465   9.838  0.2058 -0.3150 -0.3131
  161SOPE   H5X18058   3.371   4.452   9.905 -0.0327 -1.9076 -0.2854
  161SOPE   H5Y18059   3.240   4.565   9.859  0.1670 -0.2919 -0.4991
  161SOPE   C3618060   3.328   4.468   9.692 -0.0971  0.1717 -0.9322
  161SOPE   H6X18061   3.237   4.467   9.629 -0.8888  1.1219  0.1469
  161SOPE   H6Y18062   3.387   4.378   9.666 -2.0617 -0.3110 -4.3144
  161SOPE   C3718063   3.411   4.589   9.657 -0.0930  0.5726  0.0013
  161SOPE   H7X18064   3.500   4.597   9.722 -1.5054  0.6443  2.0457
  161SOPE   H7Y18065   3.359   4.682   9.688 -0.2261  0.6178 -0.3482
  161SOPE   C3818066   3.439   4.580   9.508  0.6363 -0.2896 -0.0187
  161SOPE   H8X18067   3.491   4.493   9.463 -1.5862 -0.1137 -3.2754
  161SOPE   H8Y18068   3.520   4.654   9.489  2.6035 -2.4614 -0.5493
  161SOPE   C3918069   3.318   4.620   9.425  0.0396 -0.2100 -0.3297
  161SOPE   H9X18070   3.252   4.684   9.488 -0.1477 -0.8096  0.0839
  161SOPE   H9Y18071   3.260   4.532   9.391 -1.0459 -0.6313  2.3891
  161SOPE  C31018072   3.352   4.710   9.301  0.8941 -0.3043 -0.1070
  161SOPE  H10X18073   3.380   4.814   9.326  2.9140 -1.0452  0.9092
  161SOPE  H10Y18074   3.262   4.705   9.235  0.0888 -1.0466  1.0186
  161SOPE  C31118075   3.467   4.653   9.223 -0.1531  0.1270  0.0508
  161SOPE  H11X18076   3.454   4.544   9.208  0.6027 -0.2883  2.1120
  161SOPE  H11Y18077   3.565   4.676   9.271  0.7683  1.4494 -2.2813
  161SOPE  C31218078   3.475   4.709   9.078  1.2043  0.3640  0.4752
  161SOPE  H12X18079   3.480   4.820   9.083 -0.8978  0.4895  0.5561
  161SOPE  H12Y18080   3.376   4.686   9.035  0.6274 -1.0604  2.4021
  161SOPE  C31318081   3.581   4.646   8.994 -0.2354 -0.3121 -0.2914
  161SOPE  H13X18082   3.582   4.535   8.996  1.6479 -0.3064  2.0740
  161SOPE  H13Y18083   3.674   4.675   9.046 -1.8572  0.5586  2.3129
  161SOPE  C31418084   3.574   4.713   8.855 -0.3965  0.2506  0.6893
  161SOPE  H14X18085   3.539   4.818   8.863 -0.4865  0.1420  2.1135
  161SOPE  H14Y18086   3.500   4.662   8.790  1.5300 -0.3040 -1.1707
  161SOPE  C31518087   3.701   4.695   8.778  0.2562 -0.6628 -0.2108
  161SOPE  H15X18088   3.706   4.587   8.749 -1.7310 -0.3495 -1.9337
  161SOPE  H15Y18089   3.792   4.715   8.838  1.0831  2.2293 -2.2338
  161SOPE  C31618090   3.716   4.782   8.657 -0.5580  1.1135  0.6003
  161SOPE  H16X18091   3.734   4.883   8.698 -3.6036  2.6648 -1.5037
  161SOPE  H16Y18092   3.625   4.779   8.592 -1.8685  2.0153  2.3015
  161SOPE  C31718093   3.848   4.758   8.574  0.0928  0.3602 -0.7244
  161SOPE  H17X18094   3.934   4.733   8.639  0.5316  1.0388 -1.0310
  161SOPE  H17Y18095   3.888   4.850   8.526  2.2955 -0.9928 -1.6706
  161SOPE  C31818096   3.857   4.639   8.476  0.3831 -0.1362 -0.9520
  161SOPE  H18X18097   3.803   4.658   8.381 -0.1662 -0.4921 -0.7195
  161SOPE  H18Y18098   3.816   4.558   8.540  1.4904  0.7436  0.9498
  161SOPE  H18Z18099   3.962   4.621   8.445  0.9976  1.2396  0.2493
  162SOPE     N18100   2.434   3.740  10.689  0.2299 -0.2875 -0.1824
  162SOPE   HN118101   2.369   3.755  10.769  1.5217  0.8135  0.7078
  162SOPE   HN218102   2.378   3.745  10.602 -0.2163  1.6545  0.1632
  162SOPE   HN318103   2.479   3.647  10.703  2.4634  0.7690  0.0720
  162SOPE   C1218104   2.546   3.849  10.683 -0.2258 -0.1227  0.3444
  162SOPE  H12A18105   2.530   3.911  10.593  0.5846  1.7797  1.4525
  162SOPE  H12B18106   2.644   3.799  10.691  0.1477  0.6010  0.3616
  162SOPE   C1118107   2.514   3.950  10.794  0.5072 -0.2270 -0.0256
  162SOPE  H11A18108   2.589   4.033  10.797  1.3904 -1.0415  1.8747
  162SOPE  H11B18109   2.535   3.896  10.889  1.8553 -3.6639 -2.0744
  162SOPE     P18110   2.324   4.100  10.897 -0.4179 -0.1924  0.3733
  162SOPE   O1318111   2.419   4.216  10.907  0.0088  0.5836  0.1399
  162SOPE   O1418112   2.290   4.027  11.018  0.0616  0.2140 -0.0073
  162SOPE   O1218113   2.376   3.997  10.784 -0.7646 -0.0701 -0.1370
  162SOPE   O1118114   2.184   4.156  10.840  0.2901 -0.4782 -0.4708
  162SOPE    C118115   2.087   4.077  10.767 -0.6021  0.4468  0.3121
  162SOPE    HA18116   1.997   4.141  10.776 -1.5010 -0.7997  0.3602
  162SOPE    HB18117   2.070   3.982  10.821 -1.3149 -0.2981 -1.1686
  162SOPE    C218118   2.117   4.043  10.619 -0.2941 -0.2023 -0.4047
  162SOPE    HS18119   2.209   3.982  10.609  1.6686  2.7240 -1.5494
  162SOPE   O2118120   2.133   4.171  10.549 -0.4551 -0.1414  0.0658
  162SOPE   C2118121   2.240   4.183  10.472  0.4677 -0.2186  0.0627
  162SOPE   O2218122   2.316   4.093  10.447  0.0656 -0.1439 -0.2320
  162SOPE   C2218123   2.255   4.329  10.443  0.5108 -0.4365  0.4013
  162SOPE   H2R18124   2.228   4.390  10.533  0.5755 -0.0471  0.1579
  162SOPE   H2S18125   2.178   4.357  10.368  1.0940  1.2478  0.3713
  162SOPE    C318126   2.005   3.964  10.547 -0.4258  0.3061  0.2269
  162SOPE    HX18127   1.918   4.033  10.534 -0.7400 -0.0343  0.4855
  162SOPE    HY18128   1.977   3.886  10.621  0.6742 -2.8383 -2.4904
  162SOPE   O3118129   2.058   3.897  10.434  0.1690  0.3329 -0.1414
  162SOPE   C3118130   2.023   3.959  10.316 -0.2520  0.0422 -0.4691
  162SOPE   O3218131   1.954   4.061  10.308 -0.1074 -0.2825 -0.0571
  162SOPE   C3218132   2.061   3.878  10.192  0.2802 -0.9367  0.1668
  162SOPE   H2X18133   1.971   3.813  10.184 -1.3448  1.1997  0.2749
  162SOPE   H2Y18134   2.147   3.809  10.206  0.3252 -0.8284  0.4332
  162SOPE   C2318135   2.386   4.375  10.388 -0.5887  0.0042 -0.0295
  162SOPE   H3R18136   2.470   4.367  10.460  0.3313  2.1202 -0.7767
  162SOPE   H3S18137   2.390   4.485  10.372 -2.7135  0.2017  0.4814
  162SOPE   C2418138   2.427   4.311  10.252  0.1154 -0.0016  0.2560
  162SOPE   H4R18139   2.534   4.330  10.230  0.2391  0.6944  1.3982
  162SOPE   H4S18140   2.429   4.200  10.260 -0.3114  0.1239  2.7570
  162SOPE   C2518141   2.333   4.335  10.134  0.2288 -0.5083  0.2822
  162SOPE   H5R18142   2.258   4.254  10.131  0.1406 -0.5201  2.1802
  162SOPE   H5S18143   2.278   4.427  10.162  1.1471 -0.6519  2.8502
  162SOPE   C2618144   2.417   4.366  10.008  0.1384 -0.4062 -0.5091
  162SOPE   H6R18145   2.349   4.424   9.943  0.9986 -0.0763 -1.1400
  162SOPE   H6S18146   2.508   4.429  10.020 -0.3096  0.3326 -0.8947
  162SOPE   C2718147   2.464   4.233   9.943 -0.0375  0.4418  0.1911
  162SOPE   H7R18148   2.542   4.183  10.004  0.7027  1.0395 -0.2597
  162SOPE   H7S18149   2.376   4.165   9.939 -0.4994  1.1064 -1.3476
  162SOPE   C2818150   2.529   4.242   9.803  0.0557 -0.2953  0.2918
  162SOPE   H8R18151   2.554   4.140   9.765  2.1510  0.3444 -0.1773
  162SOPE   H8S18152   2.447   4.284   9.740  1.4210 -0.1770 -1.4866
  162SOPE   C2918153   2.649   4.332   9.809  0.7529  0.0650 -0.4899
  162SOPE   H9118154   2.737   4.278   9.846 -0.0907 -0.6224  0.6000
  162SOPE  C21018155   2.665   4.462   9.770  0.4958 -0.4475  0.1465
  162SOPE  H10118156   2.771   4.488   9.770  0.9948 -2.2259 -1.8063
  162SOPE  C21118157   2.564   4.564   9.720 -0.2107 -0.0234 -0.0647
  162SOPE  H11R18158   2.531   4.638   9.796  1.8950 -0.1470  1.0207
  162SOPE  H11S18159   2.470   4.520   9.678 -0.7541  0.8113  0.2530
  162SOPE  C21218160   2.623   4.651   9.605  0.0857 -0.3861 -0.7514
  162SOPE  H12R18161   2.731   4.673   9.614  0.0088 -0.3279  0.0855
  162SOPE  H12S18162   2.568   4.747   9.613  0.7028 -0.0857 -0.0307
  162SOPE  C21318163   2.590   4.599   9.466 -0.2766 -0.1344  0.5980
  162SOPE  H13R18164   2.482   4.585   9.444 -0.9075  2.2331  1.8496
  162SOPE  H13S18165   2.643   4.505   9.443 -1.4059 -0.6622  0.0624
  162SOPE  C21418166   2.633   4.702   9.358  0.3646  0.8014 -0.2129
  162SOPE  H14R18167   2.738   4.726   9.382  1.2243 -2.9170  0.4951
  162SOPE  H14S18168   2.569   4.792   9.371 -1.7325 -0.6428  0.0219
  162SOPE  C21518169   2.619   4.648   9.217  0.3822 -0.5407  0.1546
  162SOPE  H15R18170   2.519   4.603   9.197 -0.3854  1.4621 -0.6985
  162SOPE  H15S18171   2.699   4.570   9.211  1.5509  0.5234  1.2509
  162SOPE  C21618172   2.654   4.743   9.104  0.2556  0.8634 -0.6279
  162SOPE  H16R18173   2.763   4.736   9.087  0.1796 -2.6680 -0.3809
  162SOPE  H16S18174   2.632   4.850   9.124 -2.5152  0.7894 -2.6876
  162SOPE  C21718175   2.591   4.719   8.969 -0.1379 -0.1256 -0.0654
  162SOPE  H17R18176   2.484   4.747   8.974  0.7791  3.6462  2.2037
  162SOPE  H17S18177   2.604   4.610   8.950 -0.8413 -0.3346  0.5840
  162SOPE  C21818178   2.661   4.791   8.852  0.0835  0.6108  0.2804
  162SOPE  H18R18179   2.618   4.894   8.847 -2.3105 -0.3078  0.3412
  162SOPE  H18S18180   2.634   4.745   8.755 -2.3875 -0.3597  1.3319
  162SOPE  H18T18181   2.770   4.809   8.857 -0.1059  2.3665 -0.9051
  162SOPE   C3318182   2.094   3.959  10.062  1.1256  1.3579  0.1758
  162SOPE   H3X18183   2.195   4.006  10.055  1.1051  1.3902  0.0894
  162SOPE   H3Y18184   2.014   4.035  10.050 -1.7291 -1.1065  2.1356
  162SOPE   C3418185   2.081   3.863   9.944 -0.4455  0.8811  0.5081
  162SOPE   H4X18186   1.983   3.810   9.936 -0.3418  0.9925 -3.0398
  162SOPE   H4Y18187   2.145   3.775   9.965  0.3445  1.3001 -0.0826
  162SOPE   C3518188   2.133   3.930   9.812  0.1903  0.1911 -0.4058
  162SOPE   H5X18189   2.221   3.991   9.842 -0.4179  0.7186  0.3502
  162SOPE   H5Y18190   2.057   4.006   9.783  0.9721  1.4577  0.7223
  162SOPE   C3618191   2.165   3.836   9.696  0.3652  0.5961 -0.0259
  162SOPE   H6X18192   2.069   3.791   9.665  0.0997  3.2722 -3.7767
  162SOPE   H6Y18193   2.239   3.760   9.729  0.2916  0.8007  0.6322
  162SOPE   C3718194   2.223   3.897   9.563 -0.2817 -0.3221 -0.1762
  162SOPE   H7X18195   2.162   3.978   9.517  1.6146  3.0269  2.6942
  162SOPE   H7Y18196   2.241   3.815   9.489 -0.3457  0.3481 -0.9549
  162SOPE   C3818197   2.354   3.966   9.585 -1.0418  0.1258  0.5928
  162SOPE   H8X18198   2.430   3.895   9.623 -1.3076  0.7017  2.3076
  162SOPE   H8Y18199   2.335   4.034   9.670  0.0214  1.2609 -0.0366
  162SOPE   C3918200   2.406   4.050   9.466 -0.0806  0.0824 -0.2746
  162SOPE   H9X18201   2.477   4.128   9.500  0.5520 -0.2080 -0.9035
  162SOPE   H9Y18202   2.311   4.097   9.431 -2.3857 -4.1340 -0.3192
  162SOPE  C31018203   2.472   3.965   9.353 -0.1646  0.1755  0.6584
  162SOPE  H10X18204   2.397   3.893   9.312  1.0218 -0.9294  0.3644
  162SOPE  H10Y18205   2.557   3.918   9.406  1.5640  1.8316 -0.5381
  162SOPE  C31118206   2.526   4.051   9.238 -0.3380  0.3524 -0.3220
  162SOPE  H11X18207   2.585   4.003   9.157  0.9075 -0.3373  0.9465
  162SOPE  H11Y18208   2.596   4.125   9.281  0.9406 -1.1484  0.2575
  162SOPE  C31218209   2.421   4.136   9.166 -0.4318 -0.1279  0.4106
  162SOPE  H12X18210   2.359   4.188   9.242  0.6080  0.7803  0.6600
  162SOPE  H12Y18211   2.354   4.067   9.110  0.9405 -0.9315 -0.2956
  162SOPE  C31318212   2.478   4.238   9.068 -0.0034  0.3975 -0.4121
  162SOPE  H13X18213   2.513   4.325   9.128 -1.6641  0.4498  0.5558
  162SOPE  H13Y18214   2.386   4.261   9.010 -0.3148  0.4373  0.0891
  162SOPE  C31418215   2.579   4.181   8.975 -0.2916 -0.2546  0.7243
  162SOPE  H14X18216   2.536   4.086   8.936  1.0059 -1.4670  2.1022
  162SOPE  H14Y18217   2.672   4.153   9.029 -1.8690 -2.1035  2.6921
  162SOPE  C31518218   2.600   4.283   8.855 -0.0209  0.5083 -0.5827
  162SOPE  H15X18219   2.644   4.379   8.887  1.7730  1.0161 -4.0651
  162SOPE  H15Y18220   2.503   4.292   8.802 -0.3336 -0.8207 -0.2889
  162SOPE  C31618221   2.686   4.230   8.740 -0.2520  0.8077  0.1383
  162SOPE  H16X18222   2.794   4.219   8.766 -0.1773 -1.7161 -1.0252
  162SOPE  H16Y18223   2.686   4.298   8.652 -1.7568  0.4265 -0.1768
  162SOPE  C31718224   2.638   4.095   8.679 -0.6359 -0.6243  0.5996
  162SOPE  H17X18225   2.627   4.022   8.761 -0.6561 -0.6728  0.5536
  162SOPE  H17Y18226   2.724   4.070   8.614  0.1158 -0.8474  1.6568
  162SOPE  C31818227   2.516   4.095   8.583 -0.1774 -0.6460  0.2658
  162SOPE  H18X18228   2.537   4.166   8.500  0.9158  0.0941  1.1427
  162SOPE  H18Y18229   2.422   4.122   8.636 -0.6356 -0.2090 -0.7540
  162SOPE  H18Z18230   2.512   3.993   8.540  1.2316 -2.4844  4.0376
  163SOPE     N18231   0.755   1.326  10.358 -0.8709 -0.9010 -0.9824
  163SOPE   HN118232   0.738   1.374  10.449 -1.6268 -1.8468 -0.6135
  163SOPE   HN218233   0.711   1.377  10.279  1.4027  0.1044 -1.6947
  163SOPE   HN318234   0.705   1.235  10.353  0.6645 -1.6918 -2.8815
  163SOPE   C1218235   0.906   1.319  10.329  0.5294  0.7863  0.0776
  163SOPE  H12A18236   0.926   1.265  10.234  0.2234 -0.2516  0.5840
  163SOPE  H12B18237   0.943   1.243  10.401  1.1192 -1.4826 -2.4790
  163SOPE   C1118238   0.983   1.444  10.347  0.9302 -0.1382  0.2759
  163SOPE  H11A18239   0.955   1.515  10.266 -1.5815 -1.5632 -0.1938
  163SOPE  H11B18240   1.094   1.442  10.333  1.1050  2.2075  0.8755
  163SOPE     P18241   1.050   1.520  10.585  0.4339  0.3021 -0.0799
  163SOPE   O1318242   1.164   1.425  10.574  0.5586 -0.6210 -0.1714
  163SOPE   O1418243   0.970   1.526  10.717 -0.3881 -0.4502 -0.0787
  163SOPE   O1218244   0.946   1.501  10.473  0.2240  0.2001  0.7602
  163SOPE   O1118245   1.106   1.660  10.547  0.7074 -0.1794 -0.1383
  163SOPE    C118246   1.031   1.783  10.558 -0.4012  0.1852 -0.6606
  163SOPE    HA18247   1.091   1.859  10.612  0.5702  0.8516 -2.6002
  163SOPE    HB18248   0.941   1.764  10.621  0.1589  2.6626  1.0335
  163SOPE    C218249   1.000   1.846  10.418  0.2995 -0.2871 -0.4555
  163SOPE    HS18250   1.021   1.955  10.422 -0.7616 -0.1083  0.7611
  163SOPE   O2118251   0.860   1.829  10.374 -0.0776 -0.4532 -0.1245
  163SOPE   C2118252   0.782   1.900  10.444  0.0009 -0.2477 -0.2007
  163SOPE   O2218253   0.814   1.973  10.540  0.2750  0.1079  0.0665
  163SOPE   C2218254   0.638   1.878  10.400  0.5461 -0.3127  0.1178
  163SOPE   H2R18255   0.559   1.901  10.475 -0.6369  0.9861 -1.4420
  163SOPE   H2S18256   0.626   1.770  10.376 -2.3070  0.2166 -1.2450
  163SOPE    C318257   1.093   1.792  10.307 -0.5810 -0.3567  0.2929
  163SOPE    HX18258   1.063   1.686  10.297 -2.1544  0.2464 -2.3916
  163SOPE    HY18259   1.203   1.792  10.320 -0.3372  0.9208 -1.4330
  163SOPE   O3118260   1.069   1.862  10.184  0.4853  0.4534 -0.2708
  163SOPE   C3118261   1.107   1.798  10.077  0.1030  0.3177 -0.1575
  163SOPE   O3218262   1.178   1.696  10.082 -0.0981 -0.1770  0.5099
  163SOPE   C3218263   1.033   1.856   9.958  0.3948  0.6087  0.0401
  163SOPE   H2X18264   1.024   1.967   9.960  0.0940  0.6336 -1.4121
  163SOPE   H2Y18265   0.934   1.807   9.941  1.2700 -0.8894 -0.9718
  163SOPE   C2318266   0.596   1.972  10.281  0.3126  0.3842 -0.1727
  163SOPE   H3R18267   0.624   2.076  10.309  0.3542 -0.3662  2.9900
  163SOPE   H3S18268   0.485   1.971  10.273  0.1537  0.0694  1.5345
  163SOPE   C2418269   0.670   1.919  10.165 -0.8461  0.6349 -0.4920
  163SOPE   H4R18270   0.768   1.968  10.147 -0.3760 -0.6063 -1.5134
  163SOPE   H4S18271   0.673   1.809  10.155  0.4570  0.6408 -0.4099
  163SOPE   C2518272   0.585   1.967  10.040 -0.6354  0.2984  0.4251
  163SOPE   H5R18273   0.490   1.911  10.049 -0.4053  0.1236  2.0856
  163SOPE   H5S18274   0.556   2.073  10.058 -1.9058 -0.1496  1.0980
  163SOPE   C2618275   0.656   1.928   9.903 -0.2412  0.2335 -0.5897
  163SOPE   H6R18276   0.762   1.961   9.897 -0.1485 -0.2783 -4.5664
  163SOPE   H6S18277   0.644   1.818   9.896  2.9074 -0.2182 -0.4744
  163SOPE   C2718278   0.577   1.992   9.786 -0.2667 -0.0425  0.4713
  163SOPE   H7R18279   0.474   1.966   9.819  0.2457 -1.5983  0.9067
  163SOPE   H7S18280   0.593   2.102   9.782 -0.7978  0.0270 -2.6891
  163SOPE   C2818281   0.598   1.943   9.646  0.0227  0.0485  0.2399
  163SOPE   H8R18282   0.706   1.952   9.624  0.6937 -0.9646  2.7706
  163SOPE   H8S18283   0.572   1.836   9.629  2.8641 -0.6295 -0.3099
  163SOPE   C2918284   0.521   2.028   9.545  0.0120 -0.3087 -0.1534
  163SOPE   H9118285   0.424   2.058   9.587  0.0972 -0.6662  0.2950
  163SOPE  C21018286   0.548   2.059   9.416 -0.4292 -0.4639 -0.4743
  163SOPE  H10118287   0.473   2.124   9.369 -1.8378  1.4039  3.8410
  163SOPE  C21118288   0.668   2.004   9.335  0.5395 -0.4881 -0.1637
  163SOPE  H11R18289   0.732   1.949   9.407 -0.6895  1.8236  2.9075
  163SOPE  H11S18290   0.723   2.088   9.289  1.9014 -0.8194  0.7982
  163SOPE  C21218291   0.632   1.915   9.220  0.5669 -0.4235 -0.5046
  163SOPE  H12R18292   0.577   1.827   9.260  0.9370 -2.3497 -3.8838
  163SOPE  H12S18293   0.727   1.875   9.178 -0.8066 -3.2692 -1.1411
  163SOPE  C21318294   0.550   1.981   9.108 -0.9144  0.3936  0.4587
  163SOPE  H13R18295   0.601   2.069   9.064 -1.5902  0.3991 -0.3228
  163SOPE  H13S18296   0.464   2.034   9.153 -2.5797 -0.5937 -1.4433
  163SOPE  C21418297   0.507   1.881   8.999  0.2173 -0.5937  0.0456
  163SOPE  H14R18298   0.484   1.788   9.054 -3.4869  0.5694  0.7854
  163SOPE  H14S18299   0.587   1.872   8.923 -2.5937 -0.3554 -3.2312
  163SOPE  C21518300   0.382   1.930   8.924  0.0555  0.2149  0.0338
  163SOPE  H15R18301   0.312   1.980   8.994  0.0958 -2.8347  2.4756
  163SOPE  H15S18302   0.334   1.838   8.885  0.7000  0.2952 -0.9893
  163SOPE  C21618303   0.407   2.011   8.801 -0.0206 -0.2922  0.0562
  163SOPE  H16R18304   0.324   2.011   8.726  0.1565 -0.1811 -0.1411
  163SOPE  H16S18305   0.498   1.981   8.745  0.5786  0.2162  0.7582
  163SOPE  C21718306   0.416   2.161   8.836  0.4284  0.2175 -0.3743
  163SOPE  H17R18307   0.512   2.176   8.890 -0.2240 -2.0868  1.6182
  163SOPE  H17S18308   0.337   2.195   8.906  1.4106  1.3731  0.2220
  163SOPE  C21818309   0.407   2.257   8.717  0.1825  0.5310 -0.0267
  163SOPE  H18R18310   0.304   2.277   8.682  0.1113  0.9541  0.4241
  163SOPE  H18S18311   0.459   2.218   8.626 -0.2573  0.8631 -0.4279
  163SOPE  H18T18312   0.450   2.355   8.746 -2.5700  2.9448 -3.1762
  163SOPE   C3318313   1.105   1.826   9.823 -0.8432  0.4922 -0.2928
  163SOPE   H3X18314   1.101   1.717   9.801  0.0147  0.3198  0.3421
  163SOPE   H3Y18315   1.209   1.866   9.826 -1.5017  2.7353 -3.3776
  163SOPE   C3418316   1.054   1.903   9.695 -0.9702 -0.1247 -0.1752
  163SOPE   H4X18317   1.059   2.014   9.702  0.2087 -0.2306  1.1597
  163SOPE   H4Y18318   0.950   1.883   9.664 -0.2549  1.1642 -3.8636
  163SOPE   C3518319   1.134   1.857   9.573 -0.6948 -0.5205 -0.7686
  163SOPE   H5X18320   1.159   1.749   9.584  1.0819  0.0346  1.6385
  163SOPE   H5Y18321   1.230   1.912   9.568 -1.2345  0.3996 -1.2509
  163SOPE   C3618322   1.052   1.877   9.443 -0.2236  0.2177 -1.0381
  163SOPE   H6X18323   1.031   1.986   9.439 -0.7358  0.1462 -0.4476
  163SOPE   H6Y18324   0.958   1.819   9.455  0.3432 -0.3996  0.7441
  163SOPE   C3718325   1.113   1.812   9.313 -0.2179 -0.3202  0.0032
  163SOPE   H7X18326   1.021   1.804   9.251 -0.0657 -0.7516 -0.1731
  163SOPE   H7Y18327   1.158   1.715   9.344 -2.3333 -0.6739  2.2720
  163SOPE   C3818328   1.215   1.895   9.227  0.6198 -0.2117  0.3457
  163SOPE   H8X18329   1.245   1.818   9.154  0.5972 -3.4881  3.5210
  163SOPE   H8Y18330   1.305   1.919   9.287  1.1209  1.9185 -1.1449
  163SOPE   C3918331   1.158   2.029   9.178 -0.8469  0.5699  0.2204
  163SOPE   H9X18332   1.246   2.089   9.148  0.4169 -0.4983  1.6950
  163SOPE   H9Y18333   1.116   2.084   9.266  1.5636  1.4840  0.8661
  163SOPE  C31018334   1.074   2.014   9.055 -0.0967  0.0435  0.2829
  163SOPE  H10X18335   0.974   1.967   9.069  0.8488 -1.4216  2.8486
  163SOPE  H10Y18336   1.130   1.947   8.986  2.7141  2.0653  0.4484
  163SOPE  C31118337   1.060   2.145   8.977 -0.6373 -0.2425 -0.4131
  163SOPE  H11X18338   1.161   2.187   8.957  0.3561 -1.3298  2.0233
  163SOPE  H11Y18339   1.011   2.214   9.049 -1.1927 -0.6802 -0.3666
  163SOPE  C31218340   0.987   2.106   8.856  1.1644 -0.3936  0.1610
  163SOPE  H12X18341   0.877   2.107   8.875  1.2964  0.7695  0.9502
  163SOPE  H12Y18342   1.019   2.011   8.808  3.6650  0.9343 -0.9939
  163SOPE  C31318343   1.005   2.220   8.752  0.5294 -0.5269 -0.1546
  163SOPE  H13X18344   1.110   2.209   8.719  0.3368  0.5504 -1.2119
  163SOPE  H13Y18345   0.996   2.313   8.812 -1.2298 -1.9120  1.8351
  163SOPE  C31418346   0.916   2.213   8.619 -0.2875 -0.6149 -0.4709
  163SOPE  H14X18347   0.952   2.287   8.544  5.1234 -1.0055  1.2593
  163SOPE  H14Y18348   0.808   2.232   8.637 -0.4597 -1.6898 -0.2746
  163SOPE  C31518349   0.913   2.070   8.552  0.8518  0.1243 -0.2474
  163SOPE  H15X18350   0.861   2.002   8.624  1.5373 -0.7120 -0.5207
  163SOPE  H15Y18351   1.016   2.029   8.561 -0.4028 -3.5451 -0.5456
  163SOPE  C31618352   0.862   2.077   8.407 -0.9344  0.0891  0.0674
  163SOPE  H16X18353   0.909   2.161   8.351 -0.8133 -2.7223 -4.5524
  163SOPE  H16Y18354   0.751   2.082   8.402 -0.9218  0.6058  0.1910
  163SOPE  C31718355   0.912   1.950   8.337 -0.6386 -0.0154  0.2672
  163SOPE  H17X18356   1.023   1.953   8.347 -0.5017  0.7187 -1.1581
  163SOPE  H17Y18357   0.900   1.954   8.226  2.5139  0.8234 -0.1479
  163SOPE  C31818358   0.839   1.822   8.388  0.9417  0.7254 -0.5364
  163SOPE  H18X18359   0.843   1.739   8.314  2.8504  1.8766 -1.7902
  163SOPE  H18Y18360   0.731   1.849   8.399  0.7400 -0.9184  2.7836
  163SOPE  H18Z18361   0.866   1.780   8.487 -1.7882  0.1179  0.0439
  164SOPE     N18362   5.283   6.523  10.471 -0.2116 -0.1497  0.3829
  164SOPE   HN118363   5.194   6.498  10.519  0.3748  1.1612  2.2953
  164SOPE   HN218364   5.286   6.464  10.386  1.8930 -0.1037  0.3698
  164SOPE   HN318365   5.365   6.492  10.528  0.3859 -1.0536 -0.9229
  164SOPE   C1218366   5.295   6.669  10.439 -0.3627 -0.8822 -0.1216
  164SOPE  H12A18367   5.369   6.681  10.357  0.1255 -1.5185  0.2177
  164SOPE  H12B18368   5.337   6.709  10.535  1.7413  0.0751 -1.3543
  164SOPE   C1118369   5.160   6.737  10.412 -0.1306 -0.5009  1.1630
  164SOPE  H11A18370   5.109   6.703  10.319 -2.5425  1.2730  1.7315
  164SOPE  H11B18371   5.188   6.842  10.389 -0.5898 -0.3317  1.3816
  164SOPE     P18372   5.081   6.813  10.644 -0.2011  0.1021 -0.1287
  164SOPE   O1318373   5.195   6.763  10.719  0.6086 -0.2646  0.2602
  164SOPE   O1418374   4.954   6.812  10.712  0.1567 -0.1124  0.8015
  164SOPE   O1218375   5.063   6.722  10.514  0.1899 -0.2462 -0.0949
  164SOPE   O1118376   5.124   6.948  10.578  0.1914 -0.2901  0.2927
  164SOPE    C118377   5.015   7.033  10.538 -0.4326 -0.7418  0.3789
  164SOPE    HA18378   4.974   7.090  10.624 -1.6364 -2.4902  1.0321
  164SOPE    HB18379   4.926   6.977  10.501 -0.8715 -0.8764  1.5842
  164SOPE    C218380   5.069   7.128  10.418  0.9907  0.4420 -0.7975
  164SOPE    HS18381   5.015   7.225  10.421 -0.7311 -0.3970 -2.2781
  164SOPE   O2118382   5.047   7.072  10.286 -0.4339 -0.5311 -0.3449
  164SOPE   C2118383   4.917   7.071  10.244 -0.7443  0.1957  0.1179
  164SOPE   O2218384   4.819   7.124  10.296 -0.2586  0.0239 -0.0810
  164SOPE   C2218385   4.922   6.997  10.111  0.0632  0.0584  0.5770
  164SOPE   H2R18386   4.898   6.890  10.129 -2.1070  0.2954 -0.5524
  164SOPE   H2S18387   5.024   6.994  10.068  0.7911 -0.7687  2.2626
  164SOPE    C318388   5.223   7.155  10.438 -0.3112 -0.5050 -0.2369
  164SOPE    HX18389   5.264   7.053  10.424 -0.8854 -1.4119  3.5943
  164SOPE    HY18390   5.254   7.184  10.541 -0.1704 -1.3080 -0.0458
  164SOPE   O3118391   5.255   7.261  10.337 -0.0121  0.8570 -0.1315
  164SOPE   C3118392   5.386   7.293  10.338  0.6033 -0.8906  0.3886
  164SOPE   O3218393   5.468   7.250  10.416 -0.3271  0.1644  0.2503
  164SOPE   C3218394   5.417   7.404  10.232 -0.2409 -0.2061  0.5818
  164SOPE   H2X18395   5.500   7.456  10.284  0.1977 -1.8636  1.6391
  164SOPE   H2Y18396   5.326   7.467  10.225  0.6352  0.9767 -0.4987
  164SOPE   C2318397   4.829   7.052  10.000  0.2350  0.0575  0.2011
  164SOPE   H3R18398   4.815   7.162   9.995  0.0064 -0.0012 -0.8685
  164SOPE   H3S18399   4.727   7.008  10.011  0.6264 -0.7576  0.6461
  164SOPE   C2418400   4.865   7.015   9.853  0.2684  1.0065  0.5473
  164SOPE   H4R18401   4.972   7.034   9.829  1.0371 -3.7965 -1.0660
  164SOPE   H4S18402   4.833   6.910   9.834 -1.9226  1.5867  0.7928
  164SOPE   C2518403   4.777   7.089   9.753  0.1555  0.1601 -0.3544
  164SOPE   H5R18404   4.675   7.044   9.752  0.1861  0.0878 -0.2266
  164SOPE   H5S18405   4.762   7.197   9.773 -1.1364  0.2245 -1.4972
  164SOPE   C2618406   4.824   7.073   9.613 -0.2119  0.0849 -0.3181
  164SOPE   H6R18407   4.913   7.138   9.602 -0.7759  0.7117 -1.2777
  164SOPE   H6S18408   4.846   6.966   9.591  0.3635  0.2872 -0.7296
  164SOPE   C2718409   4.714   7.120   9.521 -0.9666  0.1486 -0.0326
  164SOPE   H7R18410   4.626   7.055   9.539 -0.4882  0.1388  2.6810
  164SOPE   H7S18411   4.685   7.227   9.537 -2.4225  0.0869 -1.9092
  164SOPE   C2818412   4.753   7.113   9.370 -0.6129 -0.0140  0.0333
  164SOPE   H8R18413   4.701   7.190   9.309 -1.7868 -0.5261  0.3426
  164SOPE   H8S18414   4.860   7.140   9.365 -0.4398 -0.9340 -1.5855
  164SOPE   C2918415   4.738   6.980   9.320  0.1234  0.1392  0.7701
  164SOPE   H9118416   4.760   6.900   9.392 -0.9629 -1.1565 -0.2622
  164SOPE  C21018417   4.725   6.950   9.189  0.4796  0.1770 -0.4479
  164SOPE  H10118418   4.732   6.845   9.159  0.5440  0.3475 -1.0333
  164SOPE  C21118419   4.709   7.054   9.082  0.1545 -0.1878 -0.0752
  164SOPE  H11R18420   4.709   7.160   9.115  1.0209  0.2625 -1.4227
  164SOPE  H11S18421   4.604   7.044   9.048  0.1138  1.1547 -0.3931
  164SOPE  C21218422   4.809   7.036   8.973 -0.0040 -0.0961 -0.9562
  164SOPE  H12R18423   4.908   7.059   9.018  0.0649 -0.6706 -0.8014
  164SOPE  H12S18424   4.788   7.115   8.898 -3.4627  0.7624  0.7128
  164SOPE  C21318425   4.805   6.897   8.900 -0.5048  0.4990 -1.3800
  164SOPE  H13R18426   4.698   6.868   8.897 -0.3412 -0.3454 -0.0246
  164SOPE  H13S18427   4.851   6.817   8.962 -0.7540 -0.5049 -2.4551
  164SOPE  C21418428   4.869   6.895   8.761  0.3522 -0.4173  0.4614
  164SOPE  H14R18429   4.963   6.954   8.767 -0.9426  1.6027  3.0262
  164SOPE  H14S18430   4.793   6.952   8.702  1.3419  0.8060  0.3360
  164SOPE  C21518431   4.889   6.755   8.700 -0.0357 -0.5035  0.1330
  164SOPE  H15R18432   4.790   6.706   8.686 -0.8042  1.0357 -0.0173
  164SOPE  H15S18433   4.942   6.685   8.768  0.7194  0.2943  0.3863
  164SOPE  C21618434   4.965   6.760   8.562  0.4476 -0.2000 -0.7091
  164SOPE  H16R18435   5.074   6.779   8.573  0.7896 -1.4727 -1.6486
  164SOPE  H16S18436   4.935   6.847   8.501  0.3644  0.2472 -0.0457
  164SOPE  C21718437   4.936   6.638   8.474  0.0055 -0.7155 -0.2405
  164SOPE  H17R18438   4.825   6.639   8.475 -0.0449  2.1359 -0.5905
  164SOPE  H17S18439   4.959   6.543   8.526  0.8430  0.1713  1.0759
  164SOPE  C21818440   4.985   6.655   8.330 -0.8027 -0.6194 -1.0292
  164SOPE  H18R18441   4.961   6.754   8.285  3.2630  0.8797 -0.3451
  164SOPE  H18S18442   4.950   6.572   8.266 -0.3279 -0.7484 -1.1269
  164SOPE  H18T18443   5.096   6.658   8.333 -0.7848  0.0175 -1.8121
  164SOPE   C3318444   5.468   7.350  10.097 -0.6715 -0.3475  0.5033
  164SOPE   H3X18445   5.383   7.287  10.062 -2.3706  0.7624  2.4033
  164SOPE   H3Y18446   5.559   7.287  10.108  0.3052  0.2501 -3.0667
  164SOPE   C3418447   5.503   7.452   9.989  0.1487  0.0379  0.3565
  164SOPE   H4X18448   5.538   7.403   9.896 -1.9836 -0.3290 -0.3111
  164SOPE   H4Y18449   5.576   7.531  10.017  0.9869  0.6419 -3.1403
  164SOPE   C3518450   5.386   7.543   9.958  0.0097 -0.1804 -0.0627
  164SOPE   H5X18451   5.360   7.611  10.042 -2.4945 -1.0737 -0.0645
  164SOPE   H5Y18452   5.293   7.487   9.936  0.9220 -1.8567  0.1693
  164SOPE   C3618453   5.393   7.632   9.834  0.3118  0.1036 -0.1899
  164SOPE   H6X18454   5.460   7.577   9.764 -1.5563 -0.8196 -1.3352
  164SOPE   H6Y18455   5.451   7.723   9.857 -0.3854  0.4807  0.1107
  164SOPE   C3718456   5.262   7.666   9.771  0.2798  0.5798 -0.6346
  164SOPE   H7X18457   5.215   7.733   9.847  0.2553  0.2800 -0.3858
  164SOPE   H7Y18458   5.212   7.571   9.741  2.4044 -0.6820 -0.3314
  164SOPE   C3818459   5.282   7.735   9.640  0.7333 -0.1130 -0.2033
  164SOPE   H8X18460   5.313   7.662   9.562  3.2529  1.3247 -0.6545
  164SOPE   H8Y18461   5.361   7.812   9.632  0.7940 -0.0370  1.0408
  164SOPE   C3918462   5.150   7.791   9.590 -0.0943 -1.0483  0.5390
  164SOPE   H9X18463   5.127   7.884   9.648 -0.1260  0.9862 -2.4779
  164SOPE   H9Y18464   5.073   7.712   9.607 -2.2296  0.9387  0.7098
  164SOPE  C31018465   5.182   7.832   9.448 -0.3726 -0.5848 -0.3514
  164SOPE  H10X18466   5.210   7.745   9.385 -0.4564 -0.7383 -0.1738
  164SOPE  H10Y18467   5.275   7.894   9.444  0.0276 -1.2281 -1.4960
  164SOPE  C31118468   5.055   7.889   9.388  0.5624 -0.2267 -0.2839
  164SOPE  H11X18469   5.013   7.971   9.450 -0.5838  0.4487 -1.8778
  164SOPE  H11Y18470   4.979   7.809   9.399  0.3192 -0.7279 -4.1202
  164SOPE  C31218471   5.067   7.945   9.241 -1.0306  1.1427 -0.4413
  164SOPE  H12X18472   5.081   7.857   9.176 -0.1198  1.9590 -1.3861
  164SOPE  H12Y18473   5.157   8.010   9.232 -2.0172  2.7120  0.4300
  164SOPE  C31318474   4.943   8.025   9.202  0.1287  0.0002 -0.9621
  164SOPE  H13X18475   4.958   8.131   9.233 -0.2334 -0.3466  0.5031
  164SOPE  H13Y18476   4.848   7.998   9.254  0.2686  1.1121 -0.0647
  164SOPE  C31418477   4.907   8.007   9.053 -0.5533  0.6967 -0.0115
  164SOPE  H14X18478   4.808   8.051   9.030 -2.5794 -2.1435  2.4369
  164SOPE  H14Y18479   4.902   7.904   9.011  0.6997  1.6027 -2.5892
  164SOPE  C31518480   5.011   8.078   8.963  0.3659 -0.8907 -0.1200
  164SOPE  H15X18481   5.112   8.034   8.977 -0.1377 -1.5581  1.6743
  164SOPE  H15Y18482   5.020   8.181   9.005 -1.2532 -1.2339  1.1774
  164SOPE  C31618483   4.961   8.091   8.811 -0.2150  0.7359 -0.0326
  164SOPE  H16X18484   4.851   8.097   8.818 -0.1774  0.9759  0.3617
  164SOPE  H16Y18485   4.962   7.998   8.750 -2.1599  1.1458 -0.7523
  164SOPE  C31718486   5.022   8.202   8.721 -0.2239 -0.1795  0.0468
  164SOPE  H17X18487   5.024   8.294   8.783 -2.0427 -1.0354  1.4849
  164SOPE  H17Y18488   4.964   8.215   8.628 -0.7112  0.1986  0.4004
  164SOPE  C31818489   5.171   8.184   8.685  0.3153 -0.3554  0.2781
  164SOPE  H18X18490   5.197   8.101   8.616 -0.4161 -1.3718  1.1990
  164SOPE  H18Y18491   5.239   8.177   8.773  0.5746  0.0873  0.1188
  164SOPE  H18Z18492   5.203   8.278   8.634  0.9076 -1.7467 -2.0533
  165SOPE     N18493   3.299   0.953  10.550 -0.2288  0.4856  0.0869
  165SOPE   HN118494   3.256   1.046  10.572  0.8606  1.0229 -0.0207
  165SOPE   HN218495   3.231   0.882  10.516 -0.2074  0.8566 -0.7592
  165SOPE   HN318496   3.338   0.912  10.637 -3.4192  0.7588  1.8273
  165SOPE   C1218497   3.410   0.965  10.446  0.6727  0.1125  0.0586
  165SOPE  H12A18498   3.374   1.042  10.374 -0.1831  2.6653  2.9984
  165SOPE  H12B18499   3.419   0.863  10.402  1.5184 -0.2448  1.0170
  165SOPE   C1118500   3.539   1.025  10.498 -0.6345 -0.2783 -0.1616
  165SOPE  H11A18501   3.513   1.132  10.513 -0.6798 -0.3142  0.0104
  165SOPE  H11B18502   3.615   1.021  10.417  0.8358 -0.3051  1.1870
  165SOPE     P18503   3.698   0.885  10.653 -0.3762 -0.0124 -0.0031
  165SOPE   O1318504   3.664   0.792  10.759  0.2629  0.0510  0.3461
  165SOPE   O1418505   3.807   0.980  10.686 -0.8106 -0.0553 -0.0265
  165SOPE   O1218506   3.571   0.971  10.625 -0.1681  0.4626  0.4141
  165SOPE   O1118507   3.727   0.808  10.520  0.1862  0.3550 -0.1838
  165SOPE    C118508   3.847   0.729  10.506  0.5946  0.0789 -0.2369
  165SOPE    HA18509   3.809   0.642  10.448 -1.8677  0.9054  0.0045
  165SOPE    HB18510   3.893   0.697  10.601 -0.3929 -0.0830  0.2011
  165SOPE    C218511   3.953   0.807  10.427 -0.5963  0.2303  0.0653
  165SOPE    HS18512   4.008   0.878  10.493 -0.3389 -0.1894  0.2995
  165SOPE   O2118513   3.873   0.878  10.331  0.0056 -0.2104 -0.0345
  165SOPE   C2118514   3.928   0.996  10.270 -0.3056  0.3796 -0.6447
  165SOPE   O2218515   4.012   1.059  10.329 -0.5777  0.2712  0.1164
  165SOPE   C2218516   3.835   1.032  10.153 -0.6509 -0.0384  0.5341
  165SOPE   H2R18517   3.743   1.067  10.206  0.2362  0.3487  1.8942
  165SOPE   H2S18518   3.800   0.944  10.096 -0.8371 -0.6951  1.6393
  165SOPE    C318519   4.061   0.711  10.378 -0.1546  0.6290  0.6388
  165SOPE    HX18520   4.098   0.661  10.470 -1.2182 -0.5306  0.4566
  165SOPE    HY18521   4.148   0.766  10.335  0.2375 -0.7568 -0.4170
  165SOPE   O3118522   4.006   0.598  10.295  0.7122 -0.5182  0.5884
  165SOPE   C3118523   3.972   0.628  10.161  0.5523 -0.0164  0.0012
  165SOPE   O3218524   3.993   0.736  10.115  0.1101 -0.2825  0.5387
  165SOPE   C3218525   3.924   0.504  10.096 -0.0093  0.4482 -0.8625
  165SOPE   H2X18526   3.820   0.519  10.058 -0.0637 -0.8305 -1.2636
  165SOPE   H2Y18527   3.935   0.425  10.173  4.4140 -0.3690 -2.0240
  165SOPE   C2318528   3.895   1.147  10.064 -0.2864  0.3115 -0.4007
  165SOPE   H3R18529   3.933   1.211  10.146 -0.2122 -2.5405  1.9914
  165SOPE   H3S18530   3.804   1.196  10.024 -0.5181 -0.1984 -0.5150
  165SOPE   C2418531   3.993   1.101   9.960  0.2352 -0.5085  0.6127
  165SOPE   H4R18532   4.033   1.196   9.918  0.4264 -1.8104 -2.4495
  165SOPE   H4S18533   4.078   1.046  10.005  2.8715  2.4849 -0.2994
  165SOPE   C2518534   3.933   1.004   9.859 -0.1117 -0.4816 -0.2440
  165SOPE   H5R18535   3.880   0.919   9.907  2.0423 -1.1891  0.9905
  165SOPE   H5S18536   3.846   1.063   9.822 -1.6798 -1.7609  1.2026
  165SOPE   C2618537   4.008   0.962   9.737 -0.4278 -0.6775  0.1344
  165SOPE   H6R18538   4.091   0.894   9.762 -0.1142  0.0120  1.0026
  165SOPE   H6S18539   3.939   0.894   9.681 -0.7866 -1.5808  1.6149
  165SOPE   C2718540   4.056   1.077   9.649  0.4003  0.7733 -0.0291
  165SOPE   H7R18541   3.978   1.155   9.663 -0.0634  0.1647  0.9343
  165SOPE   H7S18542   4.152   1.117   9.688  1.0754 -1.0970  0.3661
  165SOPE   C2818543   4.070   1.032   9.502  0.3410 -0.2814  0.4646
  165SOPE   H8R18544   4.142   0.950   9.484 -0.9862 -1.0425 -1.8830
  165SOPE   H8S18545   3.974   0.984   9.471 -0.1307  0.4511  0.7589
  165SOPE   C2918546   4.095   1.145   9.407 -0.0792 -0.2870 -0.6668
  165SOPE   H9118547   4.154   1.229   9.447  0.0810 -0.1144 -1.2572
  165SOPE  C21018548   4.054   1.158   9.281  0.0027 -0.0086 -0.3034
  165SOPE  H10118549   4.084   1.243   9.218 -1.1595  0.5478 -0.1423
  165SOPE  C21118550   3.966   1.078   9.198  0.2022 -0.2893 -0.3571
  165SOPE  H11R18551   3.862   1.117   9.202  0.6241  0.7908  0.7932
  165SOPE  H11S18552   3.971   0.975   9.241 -0.9912 -0.0758  0.3277
  165SOPE  C21218553   3.998   1.078   9.051 -0.8546 -0.5505  0.0331
  165SOPE  H12R18554   4.100   1.036   9.038 -0.1057  0.6430  1.6358
  165SOPE  H12S18555   4.005   1.182   9.013  2.1106 -0.7426 -0.1447
  165SOPE  C21318556   3.907   1.010   8.950  0.3589  0.3868 -0.7221
  165SOPE  H13R18557   3.803   1.021   8.986  0.5318  3.5471 -0.9236
  165SOPE  H13S18558   3.922   0.900   8.953 -0.8983  0.2279  0.3365
  165SOPE  C21418559   3.935   1.051   8.800 -0.5928  0.4495 -0.3495
  165SOPE  H14R18560   3.927   1.162   8.798  0.8523  0.5929  0.6053
  165SOPE  H14S18561   3.860   0.998   8.737 -0.6249 -0.5223  0.4771
  165SOPE  C21518562   4.073   1.006   8.752 -0.1281  0.4007 -0.1562
  165SOPE  H15R18563   4.071   0.896   8.764 -2.6718  0.4449  0.4171
  165SOPE  H15S18564   4.154   1.039   8.821  0.0369 -0.5998  0.1493
  165SOPE  C21618565   4.101   1.044   8.608  0.5520 -0.3439 -0.3686
  165SOPE  H16R18566   4.139   1.148   8.612 -4.6278  1.8220  0.8939
  165SOPE  H16S18567   4.008   1.041   8.547 -1.8813 -1.5168  3.1332
  165SOPE  C21718568   4.213   0.960   8.545 -0.3000 -0.4161 -0.9357
  165SOPE  H17R18569   4.307   0.951   8.603 -1.3273  3.8868  1.9084
  165SOPE  H17S18570   4.250   1.020   8.459  1.3359  0.0343  0.0400
  165SOPE  C21818571   4.157   0.828   8.487  0.6081 -0.0073 -0.1819
  165SOPE  H18R18572   4.104   0.775   8.569  1.9035  1.2876  1.5556
  165SOPE  H18S18573   4.243   0.770   8.445  0.2345  0.6436 -1.9413
  165SOPE  H18T18574   4.091   0.856   8.402  1.2026  0.4343 -0.5118
  165SOPE   C3318575   4.033   0.460   9.985  0.1568  0.2462 -0.1959
  165SOPE   H3X18576   4.017   0.356   9.951  1.9422  0.5881 -2.3468
  165SOPE   H3Y18577   4.136   0.448  10.024  0.9773  0.1521 -2.2567
  165SOPE   C3418578   4.036   0.542   9.856 -0.2784 -0.1966 -0.6028
  165SOPE   H4X18579   4.123   0.501   9.801  0.0817 -1.1084  0.5962
  165SOPE   H4Y18580   4.048   0.650   9.880  2.0900 -0.6594  0.5387
  165SOPE   C3518581   3.901   0.530   9.780  0.4113 -0.3612 -0.0424
  165SOPE   H5X18582   3.819   0.578   9.836 -0.7658 -1.5783 -0.6825
  165SOPE   H5Y18583   3.867   0.425   9.766  1.0045 -0.5371 -0.2039
  165SOPE   C3618584   3.921   0.572   9.629  0.3696  0.1492 -0.4817
  165SOPE   H6X18585   4.014   0.513   9.611 -0.3628 -1.0662 -0.4217
  165SOPE   H6Y18586   3.951   0.678   9.617  2.3295 -0.2646  0.4089
  165SOPE   C3718587   3.807   0.526   9.545 -0.4709 -0.3986  0.8752
  165SOPE   H7X18588   3.712   0.565   9.587 -0.6693 -0.3752  0.4136
  165SOPE   H7Y18589   3.808   0.415   9.544  0.1501 -0.4115  1.7665
  165SOPE   C3818590   3.813   0.570   9.399 -0.0401  0.9145 -0.2851
  165SOPE   H8X18591   3.834   0.677   9.377  1.5069  0.4889 -1.0510
  165SOPE   H8Y18592   3.712   0.546   9.358  0.6777  0.4868 -1.8748
  165SOPE   C3918593   3.914   0.488   9.323  0.1437 -0.1534 -0.0786
  165SOPE   H9X18594   3.874   0.388   9.292 -0.9117 -0.6883  2.7097
  165SOPE   H9Y18595   3.987   0.456   9.400 -0.4601 -1.1645  0.0994
  165SOPE  C31018596   3.968   0.557   9.204 -0.2545 -0.3739  0.1260
  165SOPE  H10X18597   4.060   0.501   9.176  0.4524  1.6704 -1.9676
  165SOPE  H10Y18598   3.993   0.664   9.221 -0.5774 -0.0041 -1.5331
  165SOPE  C31118599   3.879   0.543   9.083  0.5245 -0.0084  0.1293
  165SOPE  H11X18600   3.801   0.621   9.091 -2.2080 -2.3541 -1.6457
  165SOPE  H11Y18601   3.826   0.446   9.089  0.2788  0.1982  2.1687
  165SOPE  C31218602   3.927   0.568   8.941 -0.2229  0.8380 -0.0148
  165SOPE  H12X18603   3.977   0.478   8.900  1.7783  1.1757  1.5553
  165SOPE  H12Y18604   4.010   0.641   8.945  1.1286 -0.6905  3.3072
  165SOPE  C31318605   3.819   0.612   8.832 -0.0759  0.3822 -0.5778
  165SOPE  H13X18606   3.786   0.714   8.863  1.0138 -0.1539  2.7011
  165SOPE  H13Y18607   3.727   0.552   8.850  0.6577 -1.2148 -1.8966
  165SOPE  C31418608   3.856   0.588   8.685  0.7163  0.1319  0.7169
  165SOPE  H14X18609   3.948   0.645   8.661 -0.1457  0.8576 -1.0626
  165SOPE  H14Y18610   3.772   0.624   8.622 -0.0308  2.1156  2.7396
  165SOPE  C31518611   3.866   0.439   8.652  0.0632  0.5653 -0.0289
  165SOPE  H15X18612   3.777   0.386   8.690  0.6924 -2.5752 -2.4796
  165SOPE  H15Y18613   3.951   0.391   8.705 -0.1112  1.3231  0.9645
  165SOPE  C31618614   3.883   0.415   8.501  0.0952 -0.1034  0.2052
  165SOPE  H16X18615   3.822   0.495   8.455  0.2718 -0.3740 -0.5172
  165SOPE  H16Y18616   3.847   0.312   8.478  0.9019 -0.6277  1.1713
  165SOPE  C31718617   4.031   0.430   8.467 -0.4631 -0.1425  0.2463
  165SOPE  H17X18618   4.094   0.342   8.492 -1.3492 -1.3163 -1.4528
  165SOPE  H17Y18619   4.080   0.506   8.532  0.3709  0.7126 -1.3295
  165SOPE  C31818620   4.071   0.464   8.324  0.1372  0.5325  0.6401
  165SOPE  H18X18621   4.001   0.540   8.282 -0.1782 -0.0324  0.1258
  165SOPE  H18Y18622   4.052   0.374   8.262 -3.1173  0.0190  2.1595
  165SOPE  H18Z18623   4.180   0.483   8.319 -0.1468  1.9300 -2.7068
  166SOPE     N18624   6.565   0.631  10.682 -0.0707  0.0101  0.2369
  166SOPE   HN118625   6.558   0.698  10.761  2.1550 -0.5261  0.9677
  166SOPE   HN218626   6.519   0.663  10.595 -2.1941 -2.1374  0.4404
  166SOPE   HN318627   6.517   0.546  10.718 -0.0179  0.3265  1.0742
  166SOPE   C1218628   6.706   0.584  10.655  0.4065  0.3098  0.4586
  166SOPE  H12A18629   6.739   0.526  10.744 -0.2890 -0.9708 -0.0779
  166SOPE  H12B18630   6.781   0.664  10.639  1.2585 -0.2171  1.6343
  166SOPE   C1118631   6.697   0.478  10.537 -0.4165 -0.2485 -0.2431
  166SOPE  H11A18632   6.805   0.454  10.526  0.4972  3.2464 -0.1447
  166SOPE  H11B18633   6.663   0.519  10.440  2.3725  0.5706 -0.9857
  166SOPE     P18634   6.669   0.213  10.555  0.2328 -0.4244 -0.1261
  166SOPE   O1318635   6.554   0.134  10.580  0.5056  0.1244 -0.0672
  166SOPE   O1418636   6.790   0.200  10.639  0.0483  0.4774 -0.0295
  166SOPE   O1218637   6.618   0.365  10.569  0.1333  0.0164 -0.5904
  166SOPE   O1118638   6.718   0.199  10.402 -0.1408  0.0455 -0.5739
  166SOPE    C118639   6.613   0.245  10.307  0.5988 -0.4377 -0.3172
  166SOPE    HA18640   6.670   0.302  10.231 -0.1711  2.1581  0.9234
  166SOPE    HB18641   6.536   0.319  10.340  1.6506  1.0202 -1.0114
  166SOPE    C218642   6.542   0.129  10.230  0.4117 -0.3649 -0.5493
  166SOPE    HS18643   6.483   0.072  10.305 -0.9732  1.0978 -0.4650
  166SOPE   O2118644   6.645   0.053  10.165  0.5766 -0.1163 -0.5353
  166SOPE   C2118645   6.602  -0.062  10.117  0.5354 -0.1249  0.5834
  166SOPE   O2218646   6.491  -0.113  10.141  0.2671 -0.6351  0.3558
  166SOPE   C2218647   6.720  -0.134  10.044 -0.8232  0.0742  0.1187
  166SOPE   H2R18648   6.799  -0.133  10.121 -0.3073  0.3278 -0.4033
  166SOPE   H2S18649   6.750  -0.072   9.956 -1.0132  1.2869  0.8854
  166SOPE    C318650   6.425   0.184  10.134  0.2599  0.6901 -0.5052
  166SOPE    HX18651   6.345   0.229  10.196 -0.5248 -1.0854 -0.1851
  166SOPE    HY18652   6.370   0.102  10.083 -0.2137 -0.2881  1.4907
  166SOPE   O3118653   6.480   0.274  10.043  0.1455 -0.8480  0.6514
  166SOPE   C3118654   6.464   0.406  10.047  0.1726  0.3358  0.7129
  166SOPE   O3218655   6.396   0.462  10.128  0.4276  0.0149 -0.1167
  166SOPE   C3218656   6.537   0.467   9.929 -0.4673  0.1595 -0.3105
  166SOPE   H2X18657   6.640   0.426   9.940  0.0166  0.9961 -1.5280
  166SOPE   H2Y18658   6.543   0.577   9.940 -0.5680  0.0842  0.6197
  166SOPE   C2318659   6.689  -0.276  10.003 -0.0982 -0.7827 -0.1970
  166SOPE   H3R18660   6.639  -0.331  10.085 -2.3240  1.2586 -0.0741
  166SOPE   H3S18661   6.790  -0.321  10.002  1.9712  3.3570  0.1793
  166SOPE   C2418662   6.621  -0.299   9.861 -0.3384  0.3204 -0.8246
  166SOPE   H4R18663   6.579  -0.401   9.859  0.3967  0.0156 -1.1909
  166SOPE   H4S18664   6.530  -0.236   9.851 -0.0393  1.2008  1.4418
  166SOPE   C2518665   6.723  -0.274   9.743  0.2630  0.6071  0.6425
  166SOPE   H5R18666   6.755  -0.169   9.734 -0.2805  0.6569 -0.8894
  166SOPE   H5S18667   6.816  -0.335   9.754  0.5466  0.8198 -0.4701
  166SOPE   C2618668   6.655  -0.297   9.602  0.2052 -0.2326 -0.0357
  166SOPE   H6R18669   6.612  -0.398   9.595 -1.4799  0.5468 -1.8666
  166SOPE   H6S18670   6.564  -0.234   9.590 -0.1419 -0.4902  1.2054
  166SOPE   C2718671   6.754  -0.274   9.486 -0.7609 -0.0357  0.2629
  166SOPE   H7R18672   6.785  -0.167   9.485 -0.3208 -0.1531  0.6773
  166SOPE   H7S18673   6.849  -0.326   9.514 -0.5846  0.4161  0.5150
  166SOPE   C2818674   6.697  -0.323   9.360  0.8076  0.0739  0.7913
  166SOPE   H8R18675   6.670  -0.431   9.364 -2.1124  0.6454 -0.5671
  166SOPE   H8S18676   6.595  -0.282   9.341  1.0166  0.6749  0.9541
  166SOPE   C2918677   6.788  -0.311   9.246 -0.7517 -0.5359  0.0084
  166SOPE   H9118678   6.763  -0.226   9.180 -0.1953 -0.9727 -0.7866
  166SOPE  C21018679   6.883  -0.396   9.207  0.8191  0.1050  0.6634
  166SOPE  H10118680   6.929  -0.385   9.108  0.8808 -0.2535  0.6511
  166SOPE  C21118681   6.920  -0.522   9.280 -0.5334 -0.5002  0.3247
  166SOPE  H11R18682   6.873  -0.518   9.381 -0.1405  0.2931  0.4826
  166SOPE  H11S18683   7.029  -0.532   9.296 -0.2495  2.5858  0.9498
  166SOPE  C21218684   6.850  -0.649   9.220  0.0596 -0.2072 -0.0316
  166SOPE  H12R18685   6.743  -0.619   9.208 -0.1703  0.5814  3.0160
  166SOPE  H12S18686   6.863  -0.733   9.292  0.4261  0.3780  0.6014
  166SOPE  C21318687   6.915  -0.697   9.092  0.2284  0.5485  0.0356
  166SOPE  H13R18688   7.022  -0.700   9.118  0.3315 -0.7375 -0.4790
  166SOPE  H13S18689   6.907  -0.611   9.021  2.0103  3.4920  3.0965
  166SOPE  C21418690   6.872  -0.837   9.049  0.4367 -0.4167  0.5324
  166SOPE  H14R18691   6.762  -0.824   9.039  0.7315  1.9012 -0.1620
  166SOPE  H14S18692   6.881  -0.904   9.137 -0.9864 -0.9434  0.3142
  166SOPE  C21518693   6.931  -0.891   8.918  0.1228 -0.2643  0.5529
  166SOPE  H15R18694   7.030  -0.931   8.951  0.2897 -0.1308  0.2154
  166SOPE  H15S18695   6.942  -0.815   8.837 -0.4392 -1.0530 -0.2810
  166SOPE  C21618696   6.847  -1.006   8.862  0.5085  0.4825  0.0080
  166SOPE  H16R18697   6.739  -0.984   8.853  0.8629  2.3935  0.1403
  166SOPE  H16S18698   6.847  -1.086   8.939  0.5040 -0.0195 -0.5060
  166SOPE  C21718699   6.901  -1.065   8.736 -0.5177  0.3030  0.9568
  166SOPE  H17R18700   7.011  -1.065   8.756 -0.6016 -0.9085  1.5573
  166SOPE  H17S18701   6.894  -0.986   8.659  0.7913  0.1213  0.6181
  166SOPE  C21818702   6.843  -1.203   8.698 -0.3912 -0.4873  0.4780
  166SOPE  H18R18703   6.900  -1.243   8.612  0.8306 -0.0512  1.0598
  166SOPE  H18S18704   6.737  -1.208   8.665 -0.2463  0.0360 -0.0919
  166SOPE  H18T18705   6.855  -1.267   8.788  0.5782  0.4272  1.0232
  166SOPE   C3318706   6.472   0.434   9.796 -0.2357 -0.8061 -0.5055
  166SOPE   H3X18707   6.364   0.461   9.796  0.1655  1.0489 -1.8112
  166SOPE   H3Y18708   6.473   0.328   9.766 -0.3727 -0.9003 -0.1868
  166SOPE   C3418709   6.532   0.522   9.687 -0.0745  0.2135  0.1423
  166SOPE   H4X18710   6.642   0.508   9.692  0.0236  0.6602 -0.5843
  166SOPE   H4Y18711   6.503   0.622   9.726  0.1402  0.5768 -0.6187
  166SOPE   C3518712   6.472   0.480   9.549  0.4984  0.1044  0.0077
  166SOPE   H5X18713   6.363   0.490   9.535  0.7510  2.8432 -0.4706
  166SOPE   H5Y18714   6.508   0.377   9.525 -0.0677  0.0251 -0.5247
  166SOPE   C3618715   6.523   0.572   9.440 -0.2776 -0.5264 -0.9656
  166SOPE   H6X18716   6.633   0.572   9.457 -0.5871 -1.4253  1.3089
  166SOPE   H6Y18717   6.492   0.675   9.466 -0.1793 -0.3343 -1.5851
  166SOPE   C3718718   6.474   0.528   9.305  0.5373  0.2649 -1.1165
  166SOPE   H7X18719   6.364   0.522   9.312  0.3240  3.3519  0.0489
  166SOPE   H7Y18720   6.512   0.428   9.276  0.8906 -0.0712  0.4199
  166SOPE   C3818721   6.511   0.642   9.205 -0.7846  0.6574  0.1312
  166SOPE   H8X18722   6.622   0.641   9.201 -0.8231  0.1796 -1.2679
  166SOPE   H8Y18723   6.480   0.744   9.238 -0.9021  0.9378 -0.8311
  166SOPE   C3918724   6.460   0.603   9.066 -0.2762  0.5549 -0.4918
  166SOPE   H9X18725   6.361   0.554   9.082 -0.3023  1.2760  2.0196
  166SOPE   H9Y18726   6.531   0.530   9.020  0.1478  1.3075 -1.0480
  166SOPE  C31018727   6.447   0.718   8.967 -0.1056 -0.3779 -0.3347
  166SOPE  H10X18728   6.549   0.765   8.970  0.8238 -2.3289  1.7147
  166SOPE  H10Y18729   6.369   0.782   9.014 -2.0969 -3.2504  0.4840
  166SOPE  C31118730   6.419   0.694   8.822 -0.2617  0.3310  0.3146
  166SOPE  H11X18731   6.429   0.793   8.772  2.0523 -0.4642 -0.9444
  166SOPE  H11Y18732   6.317   0.659   8.796 -0.5181  1.9265 -1.0785
  166SOPE  C31218733   6.512   0.597   8.751 -0.9817  0.1501  0.1945
  166SOPE  H12X18734   6.529   0.500   8.803 -0.7355 -0.4482 -0.9698
  166SOPE  H12Y18735   6.613   0.640   8.770 -1.7821  1.7301  1.0646
  166SOPE  C31318736   6.491   0.578   8.599  0.5336  0.4694 -0.2220
  166SOPE  H13X18737   6.561   0.516   8.539 -0.0830 -1.1168  0.6136
  166SOPE  H13Y18738   6.483   0.678   8.553 -2.0650 -0.5274 -2.2335
  166SOPE  C31418739   6.342   0.519   8.572  0.0716 -0.6938 -0.6407
  166SOPE  H14X18740   6.325   0.509   8.463  1.0815 -0.1290 -0.8707
  166SOPE  H14Y18741   6.264   0.592   8.605  1.2483  0.7344 -0.8879
  166SOPE  C31518742   6.302   0.386   8.654 -0.2318 -0.5029  0.1891
  166SOPE  H15X18743   6.191   0.380   8.651 -0.3033  0.8235 -0.7354
  166SOPE  H15Y18744   6.337   0.391   8.760  5.0727  0.3485 -1.3260
  166SOPE  C31618745   6.352   0.260   8.578 -0.4140  0.6654 -0.6331
  166SOPE  H16X18746   6.463   0.255   8.571 -0.1360 -0.5119  2.8536
  166SOPE  H16Y18747   6.291   0.269   8.485 -2.6332 -2.8883  0.2663
  166SOPE  C31718748   6.313   0.126   8.642  0.0422  0.0568 -0.3204
  166SOPE  H17X18749   6.212   0.137   8.688 -0.4780  1.2402 -1.6805
  166SOPE  H17Y18750   6.379   0.094   8.726 -2.2866 -3.1284  0.4769
  166SOPE  C31818751   6.314   0.021   8.536  0.4748  0.0338  0.3030
  166SOPE  H18X18752   6.232   0.036   8.464  1.4914 -1.8676 -1.3344
  166SOPE  H18Y18753   6.297  -0.077   8.586  1.8388 -1.6232 -2.2602
  166SOPE  H18Z18754   6.413   0.003   8.490 -0.6260 -1.0869 -1.7658
  167SOPE     N18755   2.418   5.981   5.815  0.0227  0.1814 -0.1739
  167SOPE   HN118756   2.483   5.973   5.734  1.6775 -0.8735  1.1908
  167SOPE   HN218757   2.319   5.963   5.788 -0.1506  0.4908  0.2421
  167SOPE   HN318758   2.434   6.073   5.860  1.0332 -0.7596  1.4667
  167SOPE   C1218759   2.460   5.874   5.915 -0.0880 -0.6517  0.8821
  167SOPE  H12A18760   2.570   5.876   5.932 -0.2150 -1.4275  1.8768
  167SOPE  H12B18761   2.441   5.776   5.866  0.7527 -0.8334  0.8914
  167SOPE   C1118762   2.405   5.895   6.052 -0.1673 -0.5964  0.0034
  167SOPE  H11A18763   2.418   6.001   6.082 -2.1353  0.0561 -1.1779
  167SOPE  H11B18764   2.461   5.830   6.121  1.3347  0.7356  0.0902
  167SOPE     P18765   2.191   5.772   6.140  0.5760  0.1747 -0.2762
  167SOPE   O1318766   2.250   5.640   6.128  0.3173  0.0906 -0.4465
  167SOPE   O1418767   2.049   5.784   6.097 -0.2103  0.2310 -0.3265
  167SOPE   O1218768   2.265   5.873   6.049 -0.5379  0.3508 -0.1986
  167SOPE   O1118769   2.203   5.813   6.289  0.0281 -0.4756 -0.2852
  167SOPE    C118770   2.307   5.783   6.377 -0.0927 -0.3787 -0.1817
  167SOPE    HA18771   2.350   5.880   6.410  0.5391 -0.6487 -0.1961
  167SOPE    HB18772   2.384   5.716   6.333 -1.4196 -0.2470 -2.8501
  167SOPE    C218773   2.237   5.694   6.488 -0.1153  0.0281  0.1721
  167SOPE    HS18774   2.188   5.609   6.436 -0.9514  0.0265  0.9253
  167SOPE   O2118775   2.137   5.775   6.540 -0.4717  0.5054 -0.0977
  167SOPE   C2118776   2.012   5.721   6.563  0.4485  0.1791 -0.2956
  167SOPE   O2218777   1.973   5.619   6.508 -0.4400  0.4083 -0.0084
  167SOPE   C2218778   1.926   5.812   6.656  0.0759  0.0285  0.4916
  167SOPE   H2R18779   1.842   5.856   6.598 -0.4158 -1.4336  0.0388
  167SOPE   H2S18780   1.993   5.892   6.693  0.6195 -0.9240  1.6073
  167SOPE    C318781   2.336   5.649   6.597  0.0126 -1.2178 -0.1569
  167SOPE    HX18782   2.393   5.739   6.628  1.6960 -2.4973  0.6069
  167SOPE    HY18783   2.411   5.586   6.544 -0.3718 -0.3815 -1.7503
  167SOPE   O3118784   2.282   5.582   6.717 -0.3361  0.7572  0.7871
  167SOPE   C3118785   2.289   5.448   6.721 -0.8833  0.1414 -0.5984
  167SOPE   O3218786   2.329   5.374   6.634  0.4261  0.4911  0.2710
  167SOPE   C3218787   2.240   5.396   6.855  0.0400  0.1052 -0.1438
  167SOPE   H2X18788   2.138   5.438   6.863 -0.4892 -1.0178 -0.7142
  167SOPE   H2Y18789   2.308   5.437   6.933 -0.4581 -0.6434  0.7120
  167SOPE   C2318790   1.870   5.733   6.777 -0.2998 -0.3640 -0.3358
  167SOPE   H3R18791   1.829   5.639   6.734 -0.0965 -0.3117 -0.6436
  167SOPE   H3S18792   1.786   5.792   6.821  0.0797 -0.2381  0.2246
  167SOPE   C2418793   1.984   5.709   6.886 -0.0010 -0.5348 -0.2830
  167SOPE   H4R18794   2.066   5.653   6.837 -0.7975 -0.5292 -1.7059
  167SOPE   H4S18795   2.025   5.811   6.903  0.5606 -0.7980 -0.0465
  167SOPE   C2518796   1.936   5.642   7.013  0.1453  0.9546 -0.3682
  167SOPE   H5R18797   1.840   5.683   7.050 -0.5471 -1.0885  0.2528
  167SOPE   H5S18798   1.907   5.537   6.992  1.4741  0.5253 -0.1492
  167SOPE   C2618799   2.045   5.638   7.128  0.0778 -0.1666 -0.3932
  167SOPE   H6R18800   2.143   5.605   7.086 -0.2512 -2.1026  0.2990
  167SOPE   H6S18801   2.055   5.741   7.170  2.1026  0.2112 -1.6230
  167SOPE   C2718802   2.006   5.546   7.246  0.1543  0.3880 -0.0984
  167SOPE   H7R18803   1.899   5.554   7.275 -0.1178  0.9284 -1.1823
  167SOPE   H7S18804   2.015   5.440   7.215 -1.2083  0.8700 -2.4268
  167SOPE   C2818805   2.102   5.564   7.363 -0.0351  0.5254 -0.8003
  167SOPE   H8R18806   2.076   5.479   7.430  0.0289  1.3748  0.3337
  167SOPE   H8S18807   2.205   5.559   7.322 -0.6480  0.8478 -2.4754
  167SOPE   C2918808   2.092   5.691   7.431 -0.2082  0.5600 -0.4634
  167SOPE   H9118809   2.104   5.776   7.362 -0.7882 -0.1087 -1.4047
  167SOPE  C21018810   2.083   5.722   7.563  0.0412  0.3884 -0.7861
  167SOPE  H10118811   2.098   5.826   7.594  0.6813  0.1337 -0.2101
  167SOPE  C21118812   2.092   5.614   7.671 -0.5717  0.1962  0.2416
  167SOPE  H11R18813   2.195   5.622   7.712 -0.8377  2.2475  0.6027
  167SOPE  H11S18814   2.076   5.509   7.639 -1.7545  0.2650  0.5409
  167SOPE  C21218815   1.997   5.621   7.792 -0.0644  0.9344 -0.5720
  167SOPE  H12R18816   2.014   5.525   7.846 -0.8643 -0.2079 -2.2597
  167SOPE  H12S18817   1.895   5.616   7.749 -0.7506 -1.8576  1.1161
  167SOPE  C21318818   2.030   5.746   7.880  0.5380  0.4376 -0.0988
  167SOPE  H13R18819   1.993   5.838   7.831  1.3707  1.3148  0.8743
  167SOPE  H13S18820   2.140   5.757   7.886  0.3743  1.8394  0.7238
  167SOPE  C21418821   1.994   5.728   8.028 -0.1480  0.2800 -0.2966
  167SOPE  H14R18822   1.883   5.716   8.029  0.0825 -2.3386 -1.1074
  167SOPE  H14S18823   2.020   5.818   8.088 -0.1457 -0.3063  0.6023
  167SOPE  C21518824   2.055   5.606   8.101 -0.6497 -0.1563 -0.7336
  167SOPE  H15R18825   2.166   5.600   8.091 -0.4894 -0.1606  0.8466
  167SOPE  H15S18826   2.009   5.515   8.056 -1.7678  1.5742 -3.3454
  167SOPE  C21618827   2.037   5.615   8.255  0.3731  0.2364 -0.1360
  167SOPE  H16R18828   2.068   5.516   8.296  0.7944  0.3276 -0.2337
  167SOPE  H16S18829   1.931   5.638   8.280  0.1177 -0.2134 -0.7529
  167SOPE  C21718830   2.122   5.723   8.323  0.0124  0.5855 -0.4451
  167SOPE  H17R18831   2.081   5.746   8.423 -0.6934 -0.1448 -0.5568
  167SOPE  H17S18832   2.116   5.820   8.268 -0.1345  1.3160  0.8281
  167SOPE  C21818833   2.263   5.685   8.356  0.5033 -0.1774 -0.3610
  167SOPE  H18R18834   2.300   5.744   8.443  0.7175 -1.2155  0.2641
  167SOPE  H18S18835   2.335   5.712   8.276  2.3358  0.2547  1.3538
  167SOPE  H18T18836   2.263   5.578   8.386 -1.7123 -0.2791 -0.5482
  167SOPE   C3318837   2.240   5.240   6.864  0.6047 -0.0637  0.0467
  167SOPE   H3X18838   2.347   5.208   6.865  0.3242 -1.1410 -1.2248
  167SOPE   H3Y18839   2.200   5.207   6.766 -0.8391  0.7821  0.3332
  167SOPE   C3418840   2.153   5.175   6.978  0.5341 -0.3027 -0.4191
  167SOPE   H4X18841   2.144   5.067   6.955 -0.0116 -0.7196  1.5620
  167SOPE   H4Y18842   2.053   5.223   6.987  0.6712  0.0098 -0.5362
  167SOPE   C3518843   2.222   5.194   7.117  0.0363  0.1404  0.1500
  167SOPE   H5X18844   2.238   5.303   7.134 -0.1892 -0.0115  1.4196
  167SOPE   H5Y18845   2.318   5.141   7.097 -0.6602 -0.9444 -0.4343
  167SOPE   C3618846   2.152   5.136   7.238  0.5655  0.0457 -0.2208
  167SOPE   H6X18847   2.139   5.027   7.221  0.0356  0.0940 -0.1575
  167SOPE   H6Y18848   2.051   5.183   7.240  0.4772 -0.1388 -0.2892
  167SOPE   C3718849   2.213   5.158   7.375 -0.0267 -0.0977  0.5039
  167SOPE   H7X18850   2.190   5.262   7.407 -0.1374 -0.6625  2.3434
  167SOPE   H7Y18851   2.319   5.125   7.364  0.1125 -0.1194  1.7918
  167SOPE   C3818852   2.160   5.070   7.493  0.6373  0.4714 -0.8628
  167SOPE   H8X18853   2.173   4.963   7.464 -1.5339 -0.5695  1.5594
  167SOPE   H8Y18854   2.053   5.089   7.512  0.8595  1.5827 -0.6624
  167SOPE   C3918855   2.236   5.095   7.622  0.6431 -0.3818 -0.2343
  167SOPE   H9X18856   2.233   5.201   7.655  2.9017 -0.3704  0.1298
  167SOPE   H9Y18857   2.346   5.089   7.602  0.9640 -0.2683  1.3797
  167SOPE  C31018858   2.197   5.005   7.740  0.3103 -0.1326  0.0394
  167SOPE  H10X18859   2.228   4.899   7.722 -1.4947 -0.4799 -1.3130
  167SOPE  H10Y18860   2.087   4.992   7.749  0.6442 -3.7425  0.6081
  167SOPE  C31118861   2.253   5.064   7.873 -0.2491  0.4881  0.5907
  167SOPE  H11X18862   2.225   5.170   7.887 -0.0428  0.5310  0.6819
  167SOPE  H11Y18863   2.361   5.038   7.865 -0.5191 -0.6016  0.3537
  167SOPE  C31218864   2.200   4.999   7.998 -0.3777  0.4033  0.4003
  167SOPE  H12X18865   2.218   4.889   7.993  1.0369  0.6753 -1.8202
  167SOPE  H12Y18866   2.091   5.021   8.000 -0.6803 -1.0127  1.4150
  167SOPE  C31318867   2.273   5.052   8.120  0.0342 -0.3964 -0.5931
  167SOPE  H13X18868   2.282   5.163   8.119  3.8724 -0.4595  2.4053
  167SOPE  H13Y18869   2.378   5.017   8.116  1.1829  2.3571  1.4787
  167SOPE  C31418870   2.202   5.006   8.255  0.1181 -0.3729  0.8662
  167SOPE  H14X18871   2.281   5.001   8.333 -0.8014  2.0896  2.0704
  167SOPE  H14Y18872   2.153   4.908   8.242 -1.8582  0.8342 -1.7324
  167SOPE  C31518873   2.102   5.107   8.302 -0.4969 -0.0891  0.4574
  167SOPE  H15X18874   2.023   5.125   8.226  1.0934 -0.4268 -1.3419
  167SOPE  H15Y18875   2.153   5.204   8.320 -0.4565 -0.0830  0.3094
  167SOPE  C31618876   2.048   5.043   8.434  0.4234  0.4138  0.2447
  167SOPE  H16X18877   2.041   5.123   8.510 -0.5172  0.7896 -0.2288
  167SOPE  H16Y18878   2.121   4.969   8.474  0.2662 -0.7212 -1.4444
  167SOPE  C31718879   1.924   4.959   8.406  0.3474 -0.1684 -0.7570
  167SOPE  H17X18880   1.946   4.885   8.326  1.2843 -0.5921 -0.1211
  167SOPE  H17Y18881   1.848   5.029   8.363 -2.1196 -2.5724 -0.5667
  167SOPE  C31818882   1.880   4.874   8.529 -0.5572 -0.7711  0.3693
  167SOPE  H18X18883   1.853   4.932   8.620 -0.7405 -0.0840 -0.1143
  167SOPE  H18Y18884   1.950   4.794   8.560  1.4003  0.8218  0.2923
  167SOPE  H18Z18885   1.785   4.825   8.496  1.0743 -1.8550 -3.1942
  168SOPE     N18886   3.019   2.340   6.233  0.1734 -0.1819 -0.3444
  168SOPE   HN118887   3.075   2.298   6.310  1.8968 -0.6770 -1.8208
  168SOPE   HN218888   2.941   2.398   6.272 -0.8143 -1.9168  0.4237
  168SOPE   HN318889   2.977   2.257   6.186  1.9210 -0.8299 -0.8058
  168SOPE   C1218890   3.110   2.412   6.136  0.0971 -0.0026 -0.9063
  168SOPE  H12A18891   3.142   2.507   6.185  0.5271  0.3253 -1.8012
  168SOPE  H12B18892   3.049   2.442   6.048  0.1769  0.2316 -0.8840
  168SOPE   C1118893   3.240   2.340   6.089 -0.0397  0.3976 -0.8269
  168SOPE  H11A18894   3.291   2.406   6.015  1.0262 -2.4979 -2.8458
  168SOPE  H11B18895   3.210   2.245   6.040 -3.4883  0.1097  1.4913
  168SOPE     P18896   3.352   2.175   6.269 -0.0554 -0.1367  0.3314
  168SOPE   O1318897   3.417   2.087   6.173  0.4203  1.1880  0.0706
  168SOPE   O1418898   3.220   2.124   6.314 -0.1463  0.5105 -0.0757
  168SOPE   O1218899   3.330   2.321   6.206  0.7734 -0.0853 -0.2039
  168SOPE   O1118900   3.446   2.215   6.384  0.3952 -0.3918 -0.4836
  168SOPE    C118901   3.404   2.281   6.498 -0.2732  0.2048 -0.7799
  168SOPE    HA18902   3.323   2.355   6.486 -2.0189 -1.4322  0.2915
  168SOPE    HB18903   3.487   2.330   6.554 -0.7443  0.2463 -0.1103
  168SOPE    C218904   3.359   2.165   6.607  0.5063 -0.4585 -0.6675
  168SOPE    HS18905   3.271   2.111   6.566 -1.6664  1.2020  1.4703
  168SOPE   O2118906   3.314   2.233   6.723 -0.0041 -0.2704  0.7871
  168SOPE   C2118907   3.224   2.155   6.793  0.6707 -0.1618  0.7163
  168SOPE   O2218908   3.161   2.060   6.748  0.0528 -0.2657  0.1903
  168SOPE   C2218909   3.198   2.217   6.937 -0.2573  0.5590 -0.8585
  168SOPE   H2R18910   3.122   2.299   6.935 -0.5783  0.2904  0.1672
  168SOPE   H2S18911   3.299   2.260   6.954 -1.4864  3.1383  0.4274
  168SOPE    C318912   3.458   2.059   6.632  0.9229  0.1303  0.2801
  168SOPE    HX18913   3.552   2.114   6.657 -0.4657  3.3717 -1.0936
  168SOPE    HY18914   3.475   2.004   6.537 -1.0792  2.3085 -1.4299
  168SOPE   O3118915   3.426   1.968   6.741  0.4404  0.3747 -0.5273
  168SOPE   C3118916   3.360   1.855   6.703 -0.0862 -0.4654 -0.0786
  168SOPE   O3218917   3.334   1.825   6.585 -0.2535 -0.0583  0.1643
  168SOPE   C3218918   3.321   1.774   6.827  0.6075  0.8323  0.1508
  168SOPE   H2X18919   3.210   1.786   6.832  0.4249 -0.7222  0.1380
  168SOPE   H2Y18920   3.382   1.813   6.911 -1.7103  2.6253  1.1385
  168SOPE   C2318921   3.161   2.121   7.043  0.2120  0.5195  0.6911
  168SOPE   H3R18922   3.078   2.052   7.015  0.1711  0.7013  0.3599
  168SOPE   H3S18923   3.121   2.179   7.130 -1.3310 -0.1171  0.4433
  168SOPE   C2418924   3.273   2.043   7.106 -0.0080  0.0659  0.1231
  168SOPE   H4R18925   3.328   1.994   7.022 -1.5097 -0.9013 -0.3381
  168SOPE   H4S18926   3.339   2.116   7.158 -0.8117  0.3018  0.8226
  168SOPE   C2518927   3.237   1.930   7.202  0.2558  0.8044 -0.0110
  168SOPE   H5R18928   3.158   1.969   7.270 -1.1660 -1.6909 -0.0989
  168SOPE   H5S18929   3.192   1.840   7.155  0.2971 -0.7674  2.7651
  168SOPE   C2618930   3.347   1.871   7.281  0.1115  0.4878 -0.1108
  168SOPE   H6R18931   3.415   1.805   7.223 -0.4921  0.3661 -0.6848
  168SOPE   H6S18932   3.393   1.960   7.330  2.2706  0.8626 -2.5551
  168SOPE   C2718933   3.305   1.783   7.391  0.0074  0.5727 -0.6328
  168SOPE   H7R18934   3.216   1.820   7.446 -0.7473  0.6909 -1.8889
  168SOPE   H7S18935   3.267   1.686   7.351 -0.3091 -0.0448  1.0635
  168SOPE   C2818936   3.409   1.762   7.502 -0.4545 -0.3007 -0.0354
  168SOPE   H8R18937   3.504   1.754   7.445 -0.6645 -0.0712 -0.4208
  168SOPE   H8S18938   3.411   1.844   7.576 -1.2916 -0.9291  0.7142
  168SOPE   C2918939   3.379   1.630   7.574 -0.1397  0.3395 -0.0848
  168SOPE   H9118940   3.352   1.546   7.509  0.7280 -0.4631  0.5626
  168SOPE  C21018941   3.387   1.595   7.707 -0.1699 -0.3936 -0.9008
  168SOPE  H10118942   3.343   1.498   7.736  0.2972 -0.2559  0.3250
  168SOPE  C21118943   3.434   1.692   7.819 -0.0671  0.3013 -0.2123
  168SOPE  H11R18944   3.497   1.776   7.782  0.0638  0.7863  1.0342
  168SOPE  H11S18945   3.513   1.641   7.879 -0.3339  0.1434  0.0047
  168SOPE  C21218946   3.314   1.729   7.902  0.0110  0.0161  0.3311
  168SOPE  H12R18947   3.230   1.767   7.840  1.1989  1.7878 -0.2626
  168SOPE  H12S18948   3.347   1.801   7.980 -2.6049  0.6974  0.9379
  168SOPE  C21318949   3.270   1.614   7.990  0.1530  0.2886 -0.7412
  168SOPE  H13R18950   3.348   1.593   8.066 -1.0832  0.1292  0.5176
  168SOPE  H13S18951   3.264   1.520   7.931 -1.0941  0.8102 -1.4838
  168SOPE  C21418952   3.133   1.641   8.048 -0.7975  0.7959 -0.2669
  168SOPE  H14R18953   3.061   1.638   7.963 -0.8109  2.6574 -0.3618
  168SOPE  H14S18954   3.126   1.746   8.082  2.3995  1.0300 -0.0807
  168SOPE  C21518955   3.097   1.541   8.162 -0.1243  0.9440  0.4424
  168SOPE  H15R18956   3.164   1.560   8.248  0.2735  0.2867  0.2911
  168SOPE  H15S18957   3.115   1.436   8.129  1.5342  0.7106  1.9095
  168SOPE  C21618958   2.955   1.554   8.221  0.0737  0.2837  0.3682
  168SOPE  H16R18959   2.927   1.658   8.249 -3.0413 -1.1729  3.4620
  168SOPE  H16S18960   2.942   1.492   8.313 -1.3570  0.5149  0.3522
  168SOPE  C21718961   2.855   1.502   8.117 -0.6762 -0.5312  0.5504
  168SOPE  H17R18962   2.888   1.407   8.070  0.3831  0.4664 -0.7937
  168SOPE  H17S18963   2.859   1.582   8.039  1.4062  1.0952  2.2218
  168SOPE  C21818964   2.716   1.507   8.183 -0.3437  0.2776 -0.0225
  168SOPE  H18R18965   2.649   1.434   8.133  0.2706 -1.6136  1.7929
  168SOPE  H18S18966   2.675   1.610   8.179 -1.6536 -0.2220 -0.1225
  168SOPE  H18T18967   2.713   1.472   8.288  0.7336 -1.9203 -0.6521
  168SOPE   C3318968   3.323   1.623   6.790  0.2374  0.4713  0.2655
  168SOPE   H3X18969   3.415   1.591   6.736  0.6637 -0.2152  1.3699
  168SOPE   H3Y18970   3.230   1.594   6.738 -0.4839  1.3278  1.0497
  168SOPE   C3418971   3.321   1.544   6.919  0.6201 -0.8619  0.4916
  168SOPE   H4X18972   3.298   1.438   6.893  0.1514 -0.3851 -1.1627
  168SOPE   H4Y18973   3.232   1.577   6.977 -0.1656 -3.4994  0.9696
  168SOPE   C3518974   3.450   1.541   7.004  0.7546 -0.1458  0.0801
  168SOPE   H5X18975   3.471   1.644   7.041 -1.7171  0.4743 -0.1020
  168SOPE   H5Y18976   3.531   1.518   6.931  0.6062  0.0253 -0.1415
  168SOPE   C3618977   3.440   1.448   7.124 -0.0153 -0.6845  0.1971
  168SOPE   H6X18978   3.410   1.347   7.089 -0.8366 -0.0858 -0.9113
  168SOPE   H6Y18979   3.357   1.494   7.183 -1.3361 -0.8972 -1.4202
  168SOPE   C3718980   3.562   1.429   7.211  0.0035  0.0296  0.2179
  168SOPE   H7X18981   3.586   1.529   7.255  1.1832 -1.2108  2.5937
  168SOPE   H7Y18982   3.645   1.398   7.144 -0.5341 -3.6135  1.0533
  168SOPE   C3818983   3.530   1.331   7.320 -0.7619  0.0841 -0.0825
  168SOPE   H8X18984   3.530   1.229   7.277  0.9963  0.5933 -1.3894
  168SOPE   H8Y18985   3.429   1.361   7.353  0.0297 -0.4114  3.1812
  168SOPE   C3918986   3.620   1.333   7.442  0.8366 -0.0359 -0.2462
  168SOPE   H9X18987   3.627   1.439   7.475 -1.3231  0.7348 -2.0499
  168SOPE   H9Y18988   3.726   1.310   7.415  1.0074 -0.7649  0.9847
  168SOPE  C31018989   3.576   1.253   7.562 -0.2091  0.4232 -0.2396
  168SOPE  H10X18990   3.563   1.148   7.528 -0.0196 -0.0032  0.9767
  168SOPE  H10Y18991   3.478   1.290   7.599  0.2354  1.1756  0.2129
  168SOPE  C31118992   3.687   1.257   7.670  0.5366 -0.2016 -0.2856
  168SOPE  H11X18993   3.743   1.352   7.684  0.3706  0.0323 -1.1534
  168SOPE  H11Y18994   3.764   1.186   7.635 -0.7680 -2.0599  0.4558
  168SOPE  C31218995   3.639   1.206   7.810  0.1851  0.2327 -0.2408
  168SOPE  H12X18996   3.551   1.263   7.847  1.3871  1.8014  0.2600
  168SOPE  H12Y18997   3.722   1.225   7.881  0.0379 -1.2501  0.3730
  168SOPE  C31318998   3.599   1.056   7.808 -0.0813 -0.6606 -0.0154
  168SOPE  H13X18999   3.688   1.002   7.770  2.0927  0.9436  2.4405
  168SOPE  H13Y19000   3.511   1.043   7.742  1.2276  0.7923 -2.1410
  168SOPE  C31419001   3.571   1.003   7.948  0.1833 -0.6115  0.3654
  168SOPE  H14X19002   3.498   0.920   7.932 -0.4206  0.3606 -2.6332
  168SOPE  H14Y19003   3.524   1.087   8.003  2.1540  0.7159  0.0980
  168SOPE  C31519004   3.697   0.963   8.016  0.4494  0.4382 -0.2298
  168SOPE  H15X19005   3.761   1.053   8.030 -0.6227  0.9693  1.4271
  168SOPE  H15Y19006   3.749   0.884   7.957 -2.1470 -2.3170  0.9182
  168SOPE  C31619007   3.666   0.899   8.153 -0.9546  0.6547 -0.2068
  168SOPE  H16X19008   3.596   0.814   8.142  0.2655 -0.6169  1.4253
  168SOPE  H16Y19009   3.619   0.970   8.223 -1.2044  0.9006 -0.6212
  168SOPE  C31719010   3.796   0.842   8.215  0.1293 -0.7213 -0.8640
  168SOPE  H17X19011   3.861   0.932   8.215  1.1809 -1.4195  1.1698
  168SOPE  H17Y19012   3.836   0.756   8.156 -2.1355 -1.9672 -0.7196
  168SOPE  C31819013   3.777   0.798   8.352 -0.2086 -0.0652 -0.3436
  168SOPE  H18X19014   3.859   0.734   8.393  1.0223  0.7388 -1.4839
  168SOPE  H18Y19015   3.690   0.731   8.366 -0.1307  0.2590  2.2241
  168SOPE  H18Z19016   3.754   0.885   8.418 -0.1533 -0.6903  0.5303
  169SOPE     N19017   5.684   3.107   6.196 -0.3041  0.5750  0.0162
  169SOPE   HN119018   5.783   3.119   6.165 -0.2711 -0.1238 -0.1521
  169SOPE   HN219019   5.623   3.070   6.120 -0.5397  2.4290 -0.7481
  169SOPE   HN319020   5.632   3.192   6.226 -4.1950 -0.5319 -2.8798
  169SOPE   C1219021   5.681   2.993   6.304 -0.6009  0.1793 -0.4484
  169SOPE  H12A19022   5.771   2.928   6.303 -0.5781  0.1040  1.5943
  169SOPE  H12B19023   5.589   2.931   6.298 -1.3688  1.3225 -0.9130
  169SOPE   C1119024   5.686   3.060   6.446  0.5391 -0.2018  0.0639
  169SOPE  H11A19025   5.774   3.128   6.453  1.5614 -1.4110 -0.6260
  169SOPE  H11B19026   5.708   2.994   6.533  0.2663  2.8907  2.6852
  169SOPE     P19027   5.549   3.279   6.464  0.1894 -0.4917  0.6229
  169SOPE   O1319028   5.414   3.321   6.495  0.4714 -0.2691 -0.2150
  169SOPE   O1419029   5.608   3.333   6.339 -0.0383 -0.0210 -0.3436
  169SOPE   O1219030   5.559   3.128   6.472 -0.2220  0.0544 -0.4108
  169SOPE   O1119031   5.636   3.316   6.580 -0.5395 -0.1135  0.1405
  169SOPE    C119032   5.596   3.278   6.712 -1.4813  1.1204  0.8860
  169SOPE    HA19033   5.617   3.170   6.728  0.8497  1.3044 -0.5087
  169SOPE    HB19034   5.487   3.297   6.727 -1.6209  0.3006  0.9404
  169SOPE    C219035   5.678   3.347   6.826  0.5138  0.2359 -0.2059
  169SOPE    HS19036   5.644   3.453   6.836 -2.3552 -0.5803 -0.5393
  169SOPE   O2119037   5.820   3.337   6.812 -0.9029 -0.0517  0.3635
  169SOPE   C2119038   5.897   3.444   6.844  0.4411 -0.2640 -0.6512
  169SOPE   O2219039   5.860   3.535   6.916 -0.1526 -0.3239 -0.3634
  169SOPE   C2219040   6.036   3.431   6.789 -0.1042 -0.3026  0.3330
  169SOPE   H2R19041   6.046   3.492   6.697 -0.0598  0.7828  1.0318
  169SOPE   H2S19042   6.049   3.327   6.753  2.3313  0.1805 -0.3654
  169SOPE    C319043   5.630   3.277   6.963  0.0205 -0.3870 -0.4281
  169SOPE    HX19044   5.645   3.169   6.941  0.7845 -0.1771 -1.0088
  169SOPE    HY19045   5.522   3.299   6.969  0.5245  2.1085  1.0396
  169SOPE   O3119046   5.696   3.312   7.087 -0.2665  0.2739 -0.6521
  169SOPE   C3119047   5.664   3.425   7.145 -0.1831 -0.0306  0.5846
  169SOPE   O3219048   5.559   3.485   7.128 -0.1945  0.6983 -0.5630
  169SOPE   C3219049   5.772   3.462   7.247  0.0544 -0.9030  0.0504
  169SOPE   H2X19050   5.855   3.503   7.185  0.6712 -0.3313  1.2147
  169SOPE   H2Y19051   5.798   3.369   7.303 -1.1930 -0.4230  1.4865
  169SOPE   C2319052   6.144   3.442   6.895  0.5231  0.6916 -0.4707
  169SOPE   H3R19053   6.142   3.544   6.937 -0.3275  0.1861  0.7705
  169SOPE   H3S19054   6.242   3.418   6.847 -0.2590  0.9783 -2.3159
  169SOPE   C2419055   6.123   3.342   7.007 -0.0763 -0.1371  0.6259
  169SOPE   H4R19056   6.019   3.347   7.047 -0.0861  1.9653  0.4287
  169SOPE   H4S19057   6.146   3.241   6.966 -1.9553  0.2132 -1.5529
  169SOPE   C2519058   6.236   3.368   7.112 -0.6504  0.8413 -0.2983
  169SOPE   H5R19059   6.328   3.362   7.049  1.0849  0.4888  2.1478
  169SOPE   H5S19060   6.228   3.470   7.153 -0.1508  1.1446 -0.9332
  169SOPE   C2619061   6.249   3.258   7.216 -0.0925  0.0946  0.0451
  169SOPE   H6R19062   6.255   3.158   7.167  0.9386  0.2977 -0.2726
  169SOPE   H6S19063   6.336   3.284   7.281  0.7086  0.1372 -1.0195
  169SOPE   C2719064   6.134   3.250   7.318  0.2694  0.4989 -1.0336
  169SOPE   H7R19065   6.093   3.352   7.330 -2.3670 -0.7877  2.7347
  169SOPE   H7S19066   6.052   3.197   7.265  1.9526 -0.3328 -2.9771
  169SOPE   C2819067   6.157   3.220   7.468  0.3932 -0.9443 -0.7081
  169SOPE   H8R19068   6.195   3.116   7.475  0.4743 -0.8586  0.2680
  169SOPE   H8S19069   6.237   3.288   7.505 -0.9738  0.1377  0.3859
  169SOPE   C2919070   6.027   3.238   7.551  0.5379  0.0425  0.0565
  169SOPE   H9119071   5.935   3.203   7.504  0.1287 -1.0734  1.5943
  169SOPE  C21019072   6.015   3.300   7.672 -0.4984 -1.0556 -0.6636
  169SOPE  H10119073   5.915   3.318   7.715 -0.1014  1.2575 -0.5975
  169SOPE  C21119074   6.124   3.367   7.756  0.4128  0.1166  0.1215
  169SOPE  H11R19075   6.104   3.474   7.778 -1.6808 -0.5937  2.1389
  169SOPE  H11S19076   6.222   3.352   7.706 -1.1429  0.9017 -3.4252
  169SOPE  C21219077   6.117   3.294   7.894 -0.2253 -0.1595 -0.2224
  169SOPE  H12R19078   6.206   3.328   7.952  0.6818 -0.9312 -1.0984
  169SOPE  H12S19079   6.133   3.184   7.890  1.8525  0.1184 -1.8501
  169SOPE  C21319080   5.987   3.319   7.981 -0.0855 -1.1870 -0.3941
  169SOPE  H13R19081   5.903   3.296   7.911 -1.5985  1.2812  0.4866
  169SOPE  H13S19082   5.979   3.428   7.999  0.4590 -1.3316  0.7437
  169SOPE  C21419083   5.969   3.229   8.094  0.0752  0.2815  0.9410
  169SOPE  H14R19084   5.983   3.122   8.068  2.0358 -0.8998  5.7551
  169SOPE  H14S19085   5.867   3.246   8.134  0.5989  3.1000  1.3182
  169SOPE  C21519086   6.080   3.256   8.198 -0.2575 -0.4271 -0.0761
  169SOPE  H15R19087   6.045   3.352   8.243 -1.3617 -0.9069  0.1206
  169SOPE  H15S19088   6.184   3.269   8.162  0.9201 -1.9557  2.5141
  169SOPE  C21619089   6.088   3.153   8.305  0.0343 -0.5531  0.0706
  169SOPE  H16R19090   6.118   3.058   8.256 -1.3790 -1.1135  0.2300
  169SOPE  H16S19091   5.995   3.136   8.364  0.0530  0.8089  0.5253
  169SOPE  C21719092   6.198   3.172   8.409  0.3267 -0.1464 -0.2649
  169SOPE  H17R19093   6.162   3.245   8.486  3.3808  0.6380  0.5740
  169SOPE  H17S19094   6.298   3.207   8.376  0.9252 -1.8481 -0.3379
  169SOPE  C21819095   6.226   3.034   8.477  0.1724 -0.2996 -0.3936
  169SOPE  H18R19096   6.282   3.058   8.570  0.6613 -1.9971 -0.2110
  169SOPE  H18S19097   6.266   2.957   8.407  2.8196 -0.8122  1.5279
  169SOPE  H18T19098   6.122   3.009   8.508  0.1643 -0.6373 -0.6792
  169SOPE   C3319099   5.726   3.575   7.347 -0.1154 -0.5279 -0.5879
  169SOPE   H3X19100   5.667   3.645   7.284 -1.1282 -1.1283 -0.3262
  169SOPE   H3Y19101   5.811   3.632   7.391 -1.3405  0.8692  0.0325
  169SOPE   C3419102   5.627   3.534   7.462  0.1744  0.0540 -0.3447
  169SOPE   H4X19103   5.683   3.474   7.537 -1.0215  2.1461  2.4407
  169SOPE   H4Y19104   5.551   3.462   7.424  1.0913 -0.2764 -1.6177
  169SOPE   C3519105   5.563   3.657   7.540  0.1462 -0.7373  0.1980
  169SOPE   H5X19106   5.514   3.721   7.464  1.8721  0.1078 -0.2431
  169SOPE   H5Y19107   5.641   3.730   7.570 -0.1718 -0.2542 -0.1424
  169SOPE   C3619108   5.489   3.624   7.669  0.5795 -0.2652  0.7084
  169SOPE   H6X19109   5.398   3.566   7.642 -0.8119  2.0112  0.2309
  169SOPE   H6Y19110   5.446   3.716   7.713 -0.3486  0.0229 -0.7289
  169SOPE   C3719111   5.582   3.581   7.776  0.2860  0.1457 -0.3471
  169SOPE   H7X19112   5.655   3.661   7.801  1.7050 -0.8199 -1.2692
  169SOPE   H7Y19113   5.632   3.483   7.760  1.5056  0.2931  2.1282
  169SOPE   C3819114   5.498   3.555   7.902 -0.1328  0.8008  0.0045
  169SOPE   H8X19115   5.453   3.655   7.921 -2.5580  0.4756 -3.1083
  169SOPE   H8Y19116   5.414   3.493   7.864 -0.1339  1.6883 -1.5493
  169SOPE   C3919117   5.579   3.486   8.013  0.7816  0.5375  0.0241
  169SOPE   H9X19118   5.587   3.378   7.986  0.6308  0.7766 -1.0341
  169SOPE   H9Y19119   5.513   3.496   8.101 -0.0967 -3.2585 -0.0207
  169SOPE  C31019120   5.721   3.543   8.033  0.0872 -0.0580 -0.4936
  169SOPE  H10X19121   5.776   3.546   7.937 -1.6945  0.2561 -1.5491
  169SOPE  H10Y19122   5.768   3.472   8.105 -0.0740  0.7917  0.4552
  169SOPE  C31119123   5.717   3.677   8.111  0.2269 -0.6071  0.1081
  169SOPE  H11X19124   5.651   3.671   8.199  0.8776  2.0291  0.8434
  169SOPE  H11Y19125   5.683   3.755   8.040 -1.9270 -0.7491  0.9280
  169SOPE  C31219126   5.858   3.726   8.150  0.3739 -0.1747  0.2218
  169SOPE  H12X19127   5.916   3.746   8.058  0.0428 -0.9932 -0.1766
  169SOPE  H12Y19128   5.912   3.639   8.195  2.3079  0.3528 -0.9518
  169SOPE  C31319129   5.854   3.851   8.243 -0.3481 -0.2300  0.9608
  169SOPE  H13X19130   5.923   3.827   8.327  0.2365  1.2729  0.9405
  169SOPE  H13Y19131   5.751   3.868   8.282 -1.4639  0.8517 -2.1904
  169SOPE  C31419132   5.883   3.987   8.172 -0.9664 -0.1092 -0.0113
  169SOPE  H14X19133   5.871   4.076   8.238 -0.9629  1.6994 -2.3166
  169SOPE  H14Y19134   5.808   3.990   8.090 -0.8323  0.6250 -0.1159
  169SOPE  C31519135   6.024   3.997   8.121  0.0228  0.9184 -0.3771
  169SOPE  H15X19136   6.046   3.924   8.040  1.1646 -1.5290  1.9917
  169SOPE  H15Y19137   6.091   3.969   8.205  0.0553 -0.2561 -0.7808
  169SOPE  C31619138   6.094   4.141   8.101 -0.5769  0.2074  0.0126
  169SOPE  H16X19139   6.024   4.190   8.030  1.1394  0.3751 -1.6562
  169SOPE  H16Y19140   6.186   4.124   8.041  0.9524  1.8641  1.7487
  169SOPE  C31719141   6.117   4.226   8.226 -0.4319  0.8908 -0.7896
  169SOPE  H17X19142   6.184   4.173   8.298  1.4483  1.0739 -2.3221
  169SOPE  H17Y19143   6.022   4.253   8.276 -1.4776 -0.5824 -1.9075
  169SOPE  C31819144   6.172   4.365   8.198 -0.0939  0.3151  0.3495
  169SOPE  H18X19145   6.261   4.367   8.133 -0.6082  1.1617 -0.3552
  169SOPE  H18Y19146   6.193   4.422   8.291  0.2904  1.1929 -0.2699
  169SOPE  H18Z19147   6.086   4.421   8.155  0.5138  0.0596 -1.2656
  170SOPE     N19148   4.758   1.830   6.033 -0.1132 -0.1184  0.0984
  170SOPE   HN119149   4.815   1.744   6.049 -0.7410 -0.9750 -2.0331
  170SOPE   HN219150   4.668   1.813   5.985  0.6192  3.5889 -3.0505
  170SOPE   HN319151   4.802   1.907   5.978  0.8377 -0.4919  0.3127
  170SOPE   C1219152   4.732   1.875   6.175  0.0636 -0.1234  0.0266
  170SOPE  H12A19153   4.718   1.789   6.244  0.1193  1.5892  2.2717
  170SOPE  H12B19154   4.641   1.939   6.175 -0.8675 -1.3937 -0.8476
  170SOPE   C1119155   4.852   1.951   6.236 -0.1820  0.6901 -0.5865
  170SOPE  H11A19156   4.947   1.892   6.234 -0.6718 -0.2364  1.0933
  170SOPE  H11B19157   4.820   1.975   6.340  0.0016  3.5374 -1.1196
  170SOPE     P19158   4.832   2.203   6.178  0.1641 -0.4001  0.5907
  170SOPE   O1319159   4.687   2.193   6.210  0.3520 -0.4668  0.2356
  170SOPE   O1419160   4.869   2.266   6.052 -0.0333 -0.1057  0.0249
  170SOPE   O1219161   4.894   2.064   6.172 -0.1334 -0.1488 -0.2566
  170SOPE   O1119162   4.902   2.277   6.303  0.1833  0.4387 -0.3642
  170SOPE    C119163   5.042   2.265   6.327 -0.4174 -0.0294 -0.0496
  170SOPE    HA19164   5.076   2.370   6.340  1.2160 -0.4771 -0.5008
  170SOPE    HB19165   5.093   2.206   6.247  0.9020 -0.8670  1.3509
  170SOPE    C219166   5.068   2.191   6.462  0.5487 -0.4450  0.1096
  170SOPE    HS19167   5.025   2.091   6.441  0.9597 -1.1063  2.1304
  170SOPE   O2119168   4.994   2.247   6.574  0.0001 -0.5119  0.2073
  170SOPE   C2119169   4.890   2.182   6.616  0.5766 -0.2888 -0.2898
  170SOPE   O2219170   4.840   2.086   6.561  0.0361  0.1575  0.0206
  170SOPE   C2219171   4.849   2.240   6.748  0.1929 -0.4353  0.2511
  170SOPE   H2R19172   4.825   2.348   6.742  0.3159 -0.4319 -0.2253
  170SOPE   H2S19173   4.931   2.219   6.820  1.2531 -1.5452 -1.2085
  170SOPE    C319174   5.222   2.179   6.505 -0.2492  0.0620  0.3302
  170SOPE    HX19175   5.262   2.283   6.502 -0.8499  0.2869 -1.5441
  170SOPE    HY19176   5.279   2.126   6.426  0.0356 -0.2109  0.7194
  170SOPE   O3119177   5.236   2.120   6.634  0.3546 -0.5696  0.6035
  170SOPE   C3119178   5.305   2.181   6.725 -0.0523 -0.1281 -0.0204
  170SOPE   O3219179   5.374   2.282   6.710  0.0042  0.5061 -0.1102
  170SOPE   C3219180   5.278   2.107   6.856  0.2505  0.3734  0.2276
  170SOPE   H2X19181   5.294   2.000   6.832  2.0228  1.2305 -3.0160
  170SOPE   H2Y19182   5.172   2.123   6.885  0.0584  0.6867 -0.6421
  170SOPE   C2319183   4.726   2.169   6.814  0.0048 -0.0535  0.3645
  170SOPE   H3R19184   4.753   2.062   6.807  0.9387  0.2380 -0.7472
  170SOPE   H3S19185   4.636   2.183   6.749  1.4214  2.6205 -1.2000
  170SOPE   C2419186   4.682   2.212   6.959 -0.0635  0.8167 -0.0177
  170SOPE   H4R19187   4.618   2.129   6.997 -1.8769  2.6946  1.2078
  170SOPE   H4S19188   4.777   2.214   7.017  1.5288 -0.9438 -2.3430
  170SOPE   C2519189   4.614   2.352   6.974 -0.5339  0.1476  0.3838
  170SOPE   H5R19190   4.663   2.426   6.906 -0.0665  1.4638  2.0641
  170SOPE   H5S19191   4.506   2.350   6.950 -0.3935  1.8624 -0.5658
  170SOPE   C2619192   4.631   2.393   7.124  0.1880  0.8750 -0.8121
  170SOPE   H6R19193   4.612   2.308   7.193 -0.8876  1.0536 -0.8817
  170SOPE   H6S19194   4.737   2.421   7.146  0.3264  0.3286 -0.7761
  170SOPE   C2719195   4.532   2.504   7.169 -0.3823  0.7550 -0.2750
  170SOPE   H7R19196   4.568   2.599   7.124  0.5095 -0.0438 -1.3412
  170SOPE   H7S19197   4.432   2.481   7.128 -0.9159 -0.2629  1.5038
  170SOPE   C2819198   4.524   2.520   7.331 -0.5092 -0.7979  0.1652
  170SOPE   H8R19199   4.630   2.511   7.360 -0.4150 -3.2241 -0.6698
  170SOPE   H8S19200   4.492   2.625   7.344 -0.4974 -0.7864  0.1011
  170SOPE   C2919201   4.453   2.425   7.408  0.0299  1.3501  0.0371
  170SOPE   H9119202   4.401   2.347   7.350  0.4957  1.4187 -0.4858
  170SOPE  C21019203   4.436   2.427   7.542  0.2211  0.0632 -0.4314
  170SOPE  H10119204   4.372   2.350   7.587  2.2561 -1.1042  0.6367
  170SOPE  C21119205   4.500   2.526   7.640 -0.2455 -0.2612 -0.2538
  170SOPE  H11R19206   4.452   2.621   7.610 -1.2375 -1.0226 -1.1721
  170SOPE  H11S19207   4.611   2.525   7.639 -0.2365 -0.1327  0.4016
  170SOPE  C21219208   4.461   2.484   7.785 -0.9661 -1.1506 -0.6144
  170SOPE  H12R19209   4.481   2.376   7.799  1.1237 -0.7278  0.0075
  170SOPE  H12S19210   4.352   2.499   7.801 -0.2875  3.3733  1.5344
  170SOPE  C21319211   4.538   2.569   7.889  0.4421  0.3752  0.7679
  170SOPE  H13R19212   4.504   2.672   7.865 -0.8998 -0.4749 -1.2794
  170SOPE  H13S19213   4.645   2.552   7.867  0.0145 -2.4117  0.4045
  170SOPE  C21419214   4.502   2.551   8.039  0.3511  0.2109  0.0464
  170SOPE  H14R19215   4.524   2.446   8.067 -0.4326 -0.6697 -2.3507
  170SOPE  H14S19216   4.392   2.557   8.053  0.2276 -0.6362 -0.4570
  170SOPE  C21519217   4.584   2.658   8.117 -0.0990  0.3543 -1.0156
  170SOPE  H15R19218   4.568   2.761   8.079 -0.9920  1.0088  0.9916
  170SOPE  H15S19219   4.687   2.626   8.089  0.5127  0.6194  0.8033
  170SOPE  C21619220   4.557   2.666   8.270 -0.4837  0.1307  0.0683
  170SOPE  H16R19221   4.482   2.747   8.283 -1.0071  0.0011 -1.8221
  170SOPE  H16S19222   4.653   2.700   8.313 -1.3301  1.5271  0.9213
  170SOPE  C21719223   4.510   2.547   8.344  0.4277  0.2028  0.6676
  170SOPE  H17R19224   4.577   2.462   8.320 -0.3728 -0.2820  0.1228
  170SOPE  H17S19225   4.407   2.530   8.308  0.4024  1.1145  0.2750
  170SOPE  C21819226   4.508   2.558   8.502 -0.5028 -0.3782 -0.1064
  170SOPE  H18R19227   4.441   2.639   8.537  0.3923  1.4368 -2.3796
  170SOPE  H18S19228   4.605   2.543   8.553 -0.0553 -0.8601 -1.0764
  170SOPE  H18T19229   4.463   2.463   8.541  1.1155 -0.1696  2.4963
  170SOPE   C3319230   5.365   2.151   6.972  0.7649 -0.0264 -0.7792
  170SOPE   H3X19231   5.320   2.095   7.057  2.6896  2.8732  2.4004
  170SOPE   H3Y19232   5.347   2.257   7.000  0.4833 -0.1828 -0.3505
  170SOPE   C3419233   5.511   2.115   6.991  0.7452  0.3791  0.2263
  170SOPE   H4X19234   5.563   2.166   6.907  0.7161 -0.2921 -0.2083
  170SOPE   H4Y19235   5.524   2.006   6.973 -0.1523  0.6350 -2.4611
  170SOPE   C3519236   5.565   2.146   7.134 -0.0623  0.6185 -0.6141
  170SOPE   H5X19237   5.497   2.089   7.201 -1.2777  1.2095 -1.3139
  170SOPE   H5Y19238   5.538   2.249   7.167 -2.3298 -1.4374  5.5027
  170SOPE   C3619239   5.713   2.119   7.146 -0.2700 -0.1457 -0.4645
  170SOPE   H6X19240   5.769   2.180   7.072  1.5425 -1.2294 -0.0401
  170SOPE   H6Y19241   5.730   2.014   7.113  1.0592  0.8726 -3.3212
  170SOPE   C3719242   5.769   2.148   7.286  0.6400 -0.1182 -0.1573
  170SOPE   H7X19243   5.772   2.255   7.319  2.0700 -0.2085  0.0968
  170SOPE   H7Y19244   5.871   2.104   7.297 -0.4491 -2.7668 -0.1050
  170SOPE   C3819245   5.686   2.075   7.387 -0.0252 -0.5909 -0.4571
  170SOPE   H8X19246   5.659   1.972   7.352 -0.9914 -1.4714  2.5446
  170SOPE   H8Y19247   5.590   2.123   7.415  1.1064  1.4103  0.1220
  170SOPE   C3919248   5.756   2.061   7.520  0.2973 -0.1998 -0.4252
  170SOPE   H9X19249   5.779   2.163   7.555 -0.7678  0.0502 -0.4042
  170SOPE   H9Y19250   5.851   2.006   7.504 -0.0517 -2.3040  3.5958
  170SOPE  C31019251   5.691   1.979   7.631 -0.5762 -0.6971  0.2652
  170SOPE  H10X19252   5.682   1.873   7.599  1.5030 -1.1542  1.0298
  170SOPE  H10Y19253   5.593   2.021   7.662  0.1713  2.4690 -1.2887
  170SOPE  C31119254   5.782   1.967   7.762 -0.3419  1.0012  0.7399
  170SOPE  H11X19255   5.726   1.912   7.840  0.5415  0.1528  0.8024
  170SOPE  H11Y19256   5.806   2.063   7.812  0.7250  1.1506 -0.0188
  170SOPE  C31219257   5.912   1.890   7.737 -0.2820  0.1533  0.2969
  170SOPE  H12X19258   5.983   1.960   7.687  0.1398 -0.5670 -0.1262
  170SOPE  H12Y19259   5.888   1.812   7.661  1.2350  0.6602 -0.7741
  170SOPE  C31319260   5.964   1.801   7.851  0.1319 -0.5823 -1.3831
  170SOPE  H13X19261   5.962   1.859   7.945  2.9811 -1.3529 -0.7636
  170SOPE  H13Y19262   6.072   1.777   7.838  0.2521 -0.8559  0.0033
  170SOPE  C31419263   5.898   1.663   7.854  0.5362 -0.2019  0.2904
  170SOPE  H14X19264   5.906   1.624   7.750 -1.0679  0.7962 -0.2494
  170SOPE  H14Y19265   5.792   1.678   7.884  0.1141 -0.1939 -1.1084
  170SOPE  C31519266   5.969   1.579   7.962 -0.4454  0.1913 -0.1899
  170SOPE  H15X19267   5.950   1.630   8.060 -2.7539  2.8778 -1.8775
  170SOPE  H15Y19268   6.078   1.588   7.946 -0.1700  1.2880  1.8545
  170SOPE  C31619269   5.924   1.432   7.949 -0.6197  0.2976 -0.5176
  170SOPE  H16X19270   5.962   1.382   7.857  0.8181 -1.0005  0.7330
  170SOPE  H16Y19271   5.814   1.427   7.953 -0.6768 -0.2864 -2.0127
  170SOPE  C31719272   5.984   1.355   8.067 -0.1412 -0.6585  0.7285
  170SOPE  H17X19273   6.093   1.371   8.048 -1.0423  2.3527 -3.2273
  170SOPE  H17Y19274   5.963   1.248   8.050 -0.8933 -0.8292  2.4841
  170SOPE  C31819275   5.945   1.394   8.211 -0.4816 -0.7287 -0.9905
  170SOPE  H18X19276   5.835   1.388   8.221 -0.5272 -0.4229 -1.2742
  170SOPE  H18Y19277   5.971   1.501   8.224  2.2719 -1.2586 -1.4813
  170SOPE  H18Z19278   5.998   1.337   8.290 -2.5482 -2.2191 -0.6023
  171SOPE     N19279   6.850   5.259   6.258 -0.6661  0.0619  0.3870
  171SOPE   HN119280   6.796   5.251   6.170  0.8570  0.6207 -0.6343
  171SOPE   HN219281   6.870   5.360   6.274 -0.1524 -0.1194  0.9555
  171SOPE   HN319282   6.937   5.205   6.242  0.1159  1.2301  0.5718
  171SOPE   C1219283   6.786   5.196   6.376 -0.1927  0.2304  0.2525
  171SOPE  H12A19284   6.857   5.194   6.461  0.2519  1.2439 -0.0789
  171SOPE  H12B19285   6.750   5.095   6.347  0.3720 -0.1775  0.9257
  171SOPE   C1119286   6.666   5.275   6.437 -0.1851  0.5346  0.2629
  171SOPE  H11A19287   6.721   5.362   6.480 -0.1487  0.0555  1.2150
  171SOPE  H11B19288   6.632   5.203   6.515  0.1375  0.2545  0.1514
  171SOPE     P19289   6.450   5.229   6.320  0.2581 -0.0088  0.1733
  171SOPE   O1319290   6.486   5.086   6.304 -0.0521 -0.0783  0.0814
  171SOPE   O1419291   6.379   5.293   6.206 -0.2930 -0.6007  0.9452
  171SOPE   O1219292   6.579   5.309   6.335  0.3259 -0.1433 -0.0566
  171SOPE   O1119293   6.370   5.254   6.450  0.0744 -0.2409 -0.4040
  171SOPE    C119294   6.367   5.370   6.528 -0.1142  0.8621 -0.0012
  171SOPE    HA19295   6.265   5.413   6.519 -0.3736  0.3595  0.4413
  171SOPE    HB19296   6.432   5.455   6.498 -0.4835  0.9816 -0.4848
  171SOPE    C219297   6.405   5.342   6.678 -0.3208  0.6493 -0.8125
  171SOPE    HS19298   6.511   5.316   6.695 -0.8205 -1.0416 -0.0369
  171SOPE   O2119299   6.319   5.239   6.724 -0.3800 -0.1506 -0.5705
  171SOPE   C2119300   6.367   5.143   6.802  0.0126 -0.4554 -0.1013
  171SOPE   O2219301   6.485   5.134   6.835  0.2148 -0.5525 -0.2450
  171SOPE   C2219302   6.256   5.042   6.845 -0.1655  0.5544  0.5544
  171SOPE   H2R19303   6.209   4.984   6.763  2.2825 -0.5250 -0.1881
  171SOPE   H2S19304   6.175   5.105   6.886  0.2951  2.0728 -0.7815
  171SOPE    C319305   6.383   5.465   6.769 -0.3047 -0.0456 -0.7104
  171SOPE    HX19306   6.279   5.494   6.743 -0.6139 -0.4427  0.0483
  171SOPE    HY19307   6.451   5.550   6.743 -0.6473  0.0887 -1.1760
  171SOPE   O3119308   6.386   5.421   6.910 -0.1015 -0.2420  0.2893
  171SOPE   C3119309   6.505   5.447   6.975 -0.4017 -0.1409 -0.4228
  171SOPE   O3219310   6.601   5.499   6.921  0.2815  0.2241 -0.4254
  171SOPE   C3219311   6.498   5.412   7.120 -0.2547  0.2013  0.0226
  171SOPE   H2X19312   6.588   5.350   7.142  0.4924  0.6869 -1.5294
  171SOPE   H2Y19313   6.410   5.345   7.134  1.3612 -1.9443  0.6063
  171SOPE   C2319314   6.298   4.959   6.973  1.1165  0.0676  0.5878
  171SOPE   H3R19315   6.384   4.894   6.947  1.3757  1.2364 -1.8335
  171SOPE   H3S19316   6.224   4.882   7.003  0.5963 -0.3612 -1.6161
  171SOPE   C2419317   6.310   5.039   7.100 -0.6437  0.4376  0.1035
  171SOPE   H4R19318   6.406   5.089   7.079 -0.6228  0.0432 -0.7859
  171SOPE   H4S19319   6.230   5.116   7.096  0.4146  1.5399 -0.4113
  171SOPE   C2519320   6.321   4.968   7.240  0.5805  0.3065  0.4966
  171SOPE   H5R19321   6.218   4.934   7.267  1.0126  0.1203  1.9924
  171SOPE   H5S19322   6.392   4.883   7.234 -0.5968 -0.6272 -1.2667
  171SOPE   C2619323   6.355   5.068   7.347 -0.7849 -1.0254 -0.0401
  171SOPE   H6R19324   6.462   5.087   7.323 -0.5242 -2.7656 -0.3785
  171SOPE   H6S19325   6.283   5.153   7.348 -0.4353 -0.7008  1.8740
  171SOPE   C2719326   6.356   4.998   7.483  0.0740 -0.2653 -0.4894
  171SOPE   H7R19327   6.251   4.964   7.495 -0.0520  0.5091  0.7853
  171SOPE   H7S19328   6.423   4.909   7.480  1.8690  1.0289 -0.1507
  171SOPE   C2819329   6.378   5.081   7.608 -0.0366  0.4748 -0.1948
  171SOPE   H8R19330   6.305   5.165   7.604 -0.6446 -0.0052  0.4774
  171SOPE   H8S19331   6.357   5.015   7.695  1.0661  0.6949  0.2467
  171SOPE   C2919332   6.517   5.138   7.627  0.6479  0.3135  0.0943
  171SOPE   H9119333   6.547   5.202   7.543 -0.7518  0.1573 -0.5540
  171SOPE  C21019334   6.610   5.125   7.726  0.8162 -0.3528 -0.0324
  171SOPE  H10119335   6.710   5.168   7.712 -0.6870  2.6118 -2.7791
  171SOPE  C21119336   6.601   5.044   7.857 -0.3298 -0.3114 -0.4666
  171SOPE  H11R19337   6.689   4.977   7.865 -1.0385 -1.0917  1.4903
  171SOPE  H11S19338   6.514   4.974   7.865 -0.6827  0.2994  1.5153
  171SOPE  C21219339   6.582   5.146   7.963 -0.1153  0.3839  0.0093
  171SOPE  H12R19340   6.513   5.230   7.940  0.1827  0.2851 -1.2934
  171SOPE  H12S19341   6.682   5.190   7.982  0.1707 -0.5814  0.8304
  171SOPE  C21319342   6.544   5.069   8.092  0.1729 -0.2072 -0.0890
  171SOPE  H13R19343   6.626   4.995   8.107 -1.9722 -2.5706  0.6324
  171SOPE  H13S19344   6.451   5.012   8.074 -1.1480  2.1881 -1.1928
  171SOPE  C21419345   6.523   5.153   8.216 -0.7561 -0.1322  1.0220
  171SOPE  H14R19346   6.486   5.093   8.302 -2.1530 -2.4693 -1.0762
  171SOPE  H14S19347   6.453   5.236   8.190 -2.0080 -1.0013  1.5467
  171SOPE  C21519348   6.656   5.218   8.251  0.6619 -0.5960  0.3847
  171SOPE  H15R19349   6.696   5.282   8.169 -2.8080 -1.0069 -1.8134
  171SOPE  H15S19350   6.726   5.134   8.269 -1.9844 -2.5525  2.1675
  171SOPE  C21619351   6.660   5.302   8.382 -0.4987 -0.2400 -0.4326
  171SOPE  H16R19352   6.627   5.245   8.472  3.0158  1.7895  2.4570
  171SOPE  H16S19353   6.596   5.391   8.365 -0.3980  0.0350  0.5599
  171SOPE  C21719354   6.805   5.348   8.421  0.3963  0.6151  0.3018
  171SOPE  H17R19355   6.872   5.260   8.419 -2.3633 -1.6211 -0.5285
  171SOPE  H17S19356   6.801   5.389   8.524  3.6827  1.7567  0.0916
  171SOPE  C21819357   6.882   5.458   8.329  0.0001 -0.5249 -0.3478
  171SOPE  H18R19358   6.986   5.471   8.364 -0.5979 -1.1721  1.8587
  171SOPE  H18S19359   6.838   5.560   8.329  2.6387  0.8283  3.4559
  171SOPE  H18T19360   6.893   5.411   8.229  1.5905 -0.6150 -0.1461
  171SOPE   C3319361   6.488   5.530   7.213 -0.4150 -0.2119 -0.3155
  171SOPE   H3X19362   6.398   5.591   7.189 -1.0008 -1.0989 -0.4408
  171SOPE   H3Y19363   6.574   5.597   7.193 -0.7064  0.1501 -0.3815
  171SOPE   C3419364   6.485   5.490   7.356  0.3493  0.1360 -0.0742
  171SOPE   H4X19365   6.577   5.432   7.380 -2.3439 -3.6389  2.1945
  171SOPE   H4Y19366   6.399   5.423   7.375  0.6207 -0.4105 -0.6992
  171SOPE   C3519367   6.467   5.612   7.453 -0.2088 -0.1668  0.1262
  171SOPE   H5X19368   6.368   5.655   7.427 -0.8252 -0.9141  1.1898
  171SOPE   H5Y19369   6.549   5.686   7.442 -0.4529  0.5394  2.6039
  171SOPE   C3619370   6.457   5.559   7.600  0.1570 -0.0450 -0.1162
  171SOPE   H6X19371   6.551   5.506   7.628 -1.5952 -3.2543  0.2305
  171SOPE   H6Y19372   6.391   5.470   7.594  1.8420 -1.4219  0.8733
  171SOPE   C3719373   6.422   5.661   7.717  0.6835 -0.3024  0.0745
  171SOPE   H7X19374   6.317   5.694   7.699  0.6161 -0.8736 -0.6158
  171SOPE   H7Y19375   6.494   5.745   7.707 -0.1246  0.5869  1.4134
  171SOPE   C3819376   6.419   5.613   7.858 -0.6725 -0.4932 -0.3505
  171SOPE   H8X19377   6.364   5.517   7.870  0.7976 -1.5451 -1.6316
  171SOPE   H8Y19378   6.357   5.689   7.909 -2.5036 -1.3680 -1.1686
  171SOPE   C3919379   6.558   5.603   7.918 -0.0211 -0.5534 -0.1447
  171SOPE   H9X19380   6.614   5.698   7.904  0.6334 -1.0696 -1.2612
  171SOPE   H9Y19381   6.617   5.528   7.861  2.4869  1.1418  0.0594
  171SOPE  C31019382   6.559   5.551   8.062 -0.5196  0.1308  0.0415
  171SOPE  H10X19383   6.642   5.480   8.079 -0.8242 -0.4037 -0.6844
  171SOPE  H10Y19384   6.465   5.491   8.064 -1.1459  1.0947  0.7202
  171SOPE  C31119385   6.542   5.654   8.181  0.2444 -0.7338  0.0887
  171SOPE  H11X19386   6.557   5.606   8.280 -0.8314 -2.6904 -0.6500
  171SOPE  H11Y19387   6.438   5.691   8.182  0.3862 -0.3279  1.1874
  171SOPE  C31219388   6.643   5.767   8.188  0.0718 -0.3593  0.4151
  171SOPE  H12X19389   6.636   5.832   8.098  1.4100  1.1146  1.3337
  171SOPE  H12Y19390   6.748   5.731   8.197  0.2686  0.4826  1.6082
  171SOPE  C31319391   6.614   5.855   8.319 -0.0457 -0.1037  0.1503
  171SOPE  H13X19392   6.625   5.782   8.402 -2.3760 -0.8298 -0.1069
  171SOPE  H13Y19393   6.506   5.882   8.324  0.5547  2.5748  0.3096
  171SOPE  C31419394   6.706   5.979   8.324  0.2937  0.0373  0.2134
  171SOPE  H14X19395   6.667   6.039   8.240 -1.5829 -1.1799  0.1520
  171SOPE  H14Y19396   6.814   5.961   8.303 -0.2974 -2.0253 -1.4309
  171SOPE  C31519397   6.691   6.062   8.454  0.0817  0.1379 -0.1846
  171SOPE  H15X19398   6.752   6.154   8.457 -0.0503  0.2406 -0.6275
  171SOPE  H15Y19399   6.719   6.003   8.544  2.2258  2.3824  0.7161
  171SOPE  C31619400   6.553   6.115   8.496  0.0640 -0.1416 -0.5107
  171SOPE  H16X19401   6.480   6.033   8.513  0.4321 -1.1402 -3.2924
  171SOPE  H16Y19402   6.512   6.180   8.416  1.0230  0.9843 -0.1236
  171SOPE  C31719403   6.552   6.213   8.619  0.4481 -0.6354  0.1908
  171SOPE  H17X19404   6.450   6.253   8.636  0.2434 -0.8692 -0.4716
  171SOPE  H17Y19405   6.608   6.302   8.583  1.2082 -1.3331 -0.3901
  171SOPE  C31819406   6.615   6.163   8.743 -0.2819 -0.1173 -0.1631
  171SOPE  H18X19407   6.721   6.131   8.739  0.1995  1.3069  0.4456
  171SOPE  H18Y19408   6.559   6.074   8.778 -0.5699 -0.4592 -1.4714
  171SOPE  H18Z19409   6.602   6.229   8.832 -0.6704  0.2470 -0.4862
  172SOPE     N19410   5.558   1.139   6.220 -0.2716  0.3213  0.1793
  172SOPE   HN119411   5.486   1.197   6.173 -0.3266  1.8651  2.0645
  172SOPE   HN219412   5.653   1.182   6.220 -0.8635  1.7371  1.5407
  172SOPE   HN319413   5.560   1.045   6.175  1.2458  0.6325 -0.4838
  172SOPE   C1219414   5.513   1.125   6.364  0.0217 -0.4196  0.3256
  172SOPE  H12A19415   5.567   1.203   6.421 -0.5552  0.9054 -0.8921
  172SOPE  H12B19416   5.538   1.022   6.399  0.4130 -0.2914  0.4285
  172SOPE   C1119417   5.357   1.122   6.366  0.1319 -0.6342 -0.3312
  172SOPE  H11A19418   5.325   1.220   6.324  0.0743  0.3098  1.7743
  172SOPE  H11B19419   5.320   1.128   6.471  0.4990 -0.5809 -0.2022
  172SOPE     P19420   5.253   0.877   6.336  0.0899  0.1137 -0.0288
  172SOPE   O1319421   5.375   0.787   6.324  0.5824 -0.4054 -0.0998
  172SOPE   O1419422   5.139   0.832   6.251 -0.4343 -0.0536 -0.2807
  172SOPE   O1219423   5.301   1.020   6.283  0.4597 -0.1613 -0.5156
  172SOPE   O1119424   5.215   0.911   6.484 -0.0921  0.1940  0.3774
  172SOPE    C119425   5.299   0.866   6.593 -0.7819  0.1141 -0.8024
  172SOPE    HA19426   5.252   0.911   6.682 -0.0632 -0.6983  0.0113
  172SOPE    HB19427   5.407   0.895   6.589 -1.0506  1.3527  0.3395
  172SOPE    C219428   5.287   0.712   6.625  0.7309 -0.1798 -0.1698
  172SOPE    HS19429   5.329   0.652   6.542  0.5036 -2.0687  0.9962
  172SOPE   O2119430   5.148   0.680   6.646 -0.0307 -0.7278  0.0517
  172SOPE   C2119431   5.124   0.550   6.636 -0.1629 -0.7000 -0.4922
  172SOPE   O2219432   5.208   0.462   6.636 -0.0805 -0.6267 -0.0023
  172SOPE   C2219433   4.971   0.533   6.625  0.5561  0.2313 -0.0073
  172SOPE   H2R19434   4.950   0.495   6.523 -0.2115  0.1707  0.1674
  172SOPE   H2S19435   4.929   0.635   6.618  1.8555  0.7997  0.2631
  172SOPE    C319436   5.375   0.685   6.749 -0.3049  0.1849 -0.5975
  172SOPE    HX19437   5.482   0.707   6.730  0.3171  0.1413  2.3800
  172SOPE    HY19438   5.358   0.579   6.777 -3.1567  0.9611  0.9893
  172SOPE   O3119439   5.334   0.757   6.870 -0.3236  0.1315 -0.2831
  172SOPE   C3119440   5.386   0.726   6.984 -0.2033 -0.6077  0.2153
  172SOPE   O3219441   5.481   0.648   6.999 -0.1323 -0.6937 -0.1244
  172SOPE   C3219442   5.312   0.793   7.096 -0.2365 -0.0870  0.1613
  172SOPE   H2X19443   5.203   0.788   7.076  0.0707 -0.2498 -1.5870
  172SOPE   H2Y19444   5.339   0.901   7.098  1.1610 -0.3820 -1.1523
  172SOPE   C2319445   4.915   0.436   6.735 -0.2195  0.2073 -0.2339
  172SOPE   H3R19446   4.968   0.338   6.728 -0.5268  0.0176  0.0269
  172SOPE   H3S19447   4.807   0.416   6.722 -0.2314 -1.3173  1.5798
  172SOPE   C2419448   4.930   0.487   6.879  0.5985 -0.4414  0.0861
  172SOPE   H4R19449   4.904   0.404   6.948 -0.2997 -0.2877 -0.0489
  172SOPE   H4S19450   5.040   0.502   6.877  0.5109  0.7467  2.2341
  172SOPE   C2519451   4.863   0.621   6.912 -0.0129  1.0463  0.8148
  172SOPE   H5R19452   4.928   0.704   6.878  0.5417  0.4124  0.2924
  172SOPE   H5S19453   4.766   0.628   6.858 -0.2943 -0.0832  1.1437
  172SOPE   C2619454   4.840   0.626   7.064  0.8332  0.1991 -0.1996
  172SOPE   H6R19455   4.777   0.711   7.098  2.0883  0.5521  1.4243
  172SOPE   H6S19456   4.785   0.542   7.111 -1.3509  1.7000  0.0543
  172SOPE   C2719457   4.958   0.637   7.144  0.1305  0.4901 -0.0962
  172SOPE   H7R19458   5.050   0.580   7.117  0.4091  0.4702  0.8476
  172SOPE   H7S19459   4.995   0.738   7.114 -2.0788  0.5701 -2.9742
  172SOPE   C2819460   4.930   0.659   7.299  0.1821  0.3107 -0.6262
  172SOPE   H8R19461   5.020   0.705   7.345 -0.3105  0.2074  0.4562
  172SOPE   H8S19462   4.845   0.727   7.318  0.7735  0.5872  1.2123
  172SOPE   C2919463   4.897   0.525   7.362  0.6957  0.3475  0.2095
  172SOPE   H9119464   4.846   0.464   7.286 -1.0061 -0.3137  1.8103
  172SOPE  C21019465   4.927   0.475   7.486 -0.4498 -0.2975  1.1760
  172SOPE  H10119466   4.893   0.374   7.514 -0.3848 -1.0360 -1.1991
  172SOPE  C21119467   5.001   0.561   7.585  0.3259  0.4785 -0.2005
  172SOPE  H11R19468   5.008   0.668   7.554  0.0261  1.2667  2.2326
  172SOPE  H11S19469   5.104   0.525   7.604 -0.4920 -3.2473 -1.9867
  172SOPE  C21219470   4.937   0.552   7.725 -0.4452  0.5196  0.3313
  172SOPE  H12R19471   4.933   0.447   7.759  2.7137  0.1954  0.0343
  172SOPE  H12S19472   4.832   0.585   7.711  0.2554  2.1755 -1.5316
  172SOPE  C21319473   5.012   0.647   7.825  0.1605 -1.0426  0.1195
  172SOPE  H13R19474   5.013   0.750   7.783  0.6981 -1.8463 -2.0045
  172SOPE  H13S19475   5.119   0.618   7.833  0.2725 -0.0462  4.0670
  172SOPE  C21419476   4.951   0.644   7.965  0.5015 -0.5483 -0.4525
  172SOPE  H14R19477   4.977   0.549   8.017 -0.5461 -1.3012 -1.2568
  172SOPE  H14S19478   4.842   0.639   7.949  0.4539 -2.1427  0.2117
  172SOPE  C21519479   4.993   0.758   8.058  0.3109 -0.0655  1.0271
  172SOPE  H15R19480   4.996   0.855   8.004 -1.4929  1.5076  3.5173
  172SOPE  H15S19481   5.098   0.732   8.083 -0.0435 -2.9636 -0.1578
  172SOPE  C21619482   4.904   0.775   8.178  0.3867  0.0716  0.3828
  172SOPE  H16R19483   4.889   0.673   8.221  0.8923  0.8352  2.4776
  172SOPE  H16S19484   4.803   0.811   8.150 -0.0094  0.2903  1.9986
  172SOPE  C21719485   4.955   0.874   8.276 -0.0386  0.7033  0.8175
  172SOPE  H17R19486   5.042   0.826   8.326  0.1516  1.0744  0.8412
  172SOPE  H17S19487   4.872   0.883   8.350  0.5663  0.5215  1.5307
  172SOPE  C21819488   4.993   1.007   8.219  0.5863  0.1426  0.6051
  172SOPE  H18R19489   4.900   1.039   8.168 -0.2885 -3.9199 -0.6846
  172SOPE  H18S19490   5.066   0.994   8.136 -0.1158 -0.4849  0.0817
  172SOPE  H18T19491   5.029   1.081   8.294  1.4866 -1.9914  2.4122
  172SOPE   C3319492   5.335   0.727   7.228  0.1817  0.6029 -0.0690
  172SOPE   H3X19493   5.432   0.673   7.228  0.9523  1.8970 -1.7011
  172SOPE   H3Y19494   5.252   0.657   7.249  0.9967 -1.1364 -2.3064
  172SOPE   C3419495   5.341   0.837   7.335 -0.5416 -0.0473  0.1489
  172SOPE   H4X19496   5.253   0.901   7.312 -0.3970  0.5682  1.2292
  172SOPE   H4Y19497   5.437   0.884   7.309 -0.8865 -1.1268 -3.6639
  172SOPE   C3519498   5.355   0.766   7.465 -0.0885 -0.0001  0.4930
  172SOPE   H5X19499   5.431   0.685   7.454 -0.1600  0.2099 -2.0032
  172SOPE   H5Y19500   5.261   0.711   7.486  0.7079 -1.9514 -0.6924
  172SOPE   C3619501   5.387   0.869   7.575 -0.3313 -0.2907 -0.6792
  172SOPE   H6X19502   5.302   0.940   7.564  0.3032  0.6723  0.3216
  172SOPE   H6Y19503   5.482   0.924   7.555  0.2377 -0.8204  0.4210
  172SOPE   C3719504   5.370   0.817   7.716 -0.1054  0.1676 -0.2975
  172SOPE   H7X19505   5.271   0.767   7.713  0.0371 -0.0647 -2.3354
  172SOPE   H7Y19506   5.366   0.908   7.781 -2.2926  1.6713 -2.3542
  172SOPE   C3819507   5.473   0.711   7.756  0.2985 -0.4742 -0.4007
  172SOPE   H8X19508   5.572   0.758   7.773  0.6679 -1.6166  0.8596
  172SOPE   H8Y19509   5.477   0.641   7.670  0.3089 -0.2905 -0.5502
  172SOPE   C3919510   5.447   0.629   7.882 -0.2649  0.3900 -0.3852
  172SOPE   H9X19511   5.538   0.571   7.906 -0.5299  0.9530  2.4467
  172SOPE   H9Y19512   5.357   0.565   7.873  0.2257 -0.3961  0.1889
  172SOPE  C31019513   5.410   0.706   8.008  0.1932 -0.0822  0.2513
  172SOPE  H10X19514   5.319   0.765   7.987 -0.5449 -1.4661 -0.6017
  172SOPE  H10Y19515   5.493   0.779   8.021  0.8405 -0.6026 -0.7849
  172SOPE  C31119516   5.390   0.617   8.131 -0.0040 -0.8720  0.2151
  172SOPE  H11X19517   5.481   0.554   8.144  1.9434  1.3359 -1.5711
  172SOPE  H11Y19518   5.315   0.540   8.105  0.1214 -1.0268  0.3114
  172SOPE  C31219519   5.358   0.690   8.260  0.4166 -0.0107 -0.6075
  172SOPE  H12X19520   5.328   0.612   8.333  1.2539 -0.4558 -0.7240
  172SOPE  H12Y19521   5.277   0.765   8.250 -0.7079 -0.4874  3.2745
  172SOPE  C31319522   5.485   0.743   8.332 -0.6701 -0.3148 -0.0782
  172SOPE  H13X19523   5.439   0.819   8.398 -0.4192 -0.4852  0.2943
  172SOPE  H13Y19524   5.554   0.793   8.261  2.4433 -0.1486  2.8324
  172SOPE  C31419525   5.570   0.635   8.409  0.0320 -0.0753  0.1188
  172SOPE  H14X19526   5.593   0.553   8.338  1.4392  0.1283  0.3178
  172SOPE  H14Y19527   5.516   0.584   8.493 -0.7024  1.1182  0.4021
  172SOPE  C31519528   5.699   0.689   8.461  0.1258  0.6703 -0.0023
  172SOPE  H15X19529   5.668   0.760   8.541  0.2072  0.0629  0.5736
  172SOPE  H15Y19530   5.763   0.745   8.390  0.4364 -0.3027 -0.5176
  172SOPE  C31619531   5.793   0.586   8.521  0.1544 -0.1042  0.4632
  172SOPE  H16X19532   5.803   0.508   8.442 -2.4738  0.8100 -0.8800
  172SOPE  H16Y19533   5.748   0.543   8.613 -0.7366  0.2686  0.2075
  172SOPE  C31719534   5.936   0.632   8.556 -0.8385  0.2103  0.1373
  172SOPE  H17X19535   5.988   0.667   8.464  3.5111  0.1890  2.3230
  172SOPE  H17Y19536   6.003   0.551   8.593 -0.2083 -1.5785 -4.2707
  172SOPE  C31819537   5.934   0.746   8.658  0.5570  0.4272  0.0490
  172SOPE  H18X19538   5.876   0.836   8.626 -0.9058  0.5878  2.7827
  172SOPE  H18Y19539   6.035   0.784   8.684  0.1534  3.2925 -2.0354
  172SOPE  H18Z19540   5.884   0.701   8.747  0.7097  2.0306  1.0026
  173SAPI   C1219541   1.796   5.944  10.697 -0.1800 -0.8017  0.5290
  173SAPI    H219542   1.823   5.887  10.606 -0.2156 -0.3723  0.2454
  173SAPI    O219543   1.880   5.919  10.808  0.0419 -0.2584 -0.3517
  173SAPI   HO219544   1.900   5.826  10.821 -1.2751 -0.5199 -0.1106
  173SAPI   C1319545   1.798   6.095  10.655  0.5455  0.7830  0.9626
  173SAPI    H319546   1.718   6.105  10.579  0.5388 -1.9435  0.5383
  173SAPI    O319547   1.924   6.130  10.588 -0.4486  0.0660 -0.4338
  173SAPI   HO319548   1.909   6.137  10.494  0.0595  0.2677 -0.5004
  173SAPI   C1419549   1.755   6.186  10.776 -0.7778  0.6002 -0.4125
  173SAPI    H419550   1.826   6.166  10.859 -0.7044  1.2199 -0.3208
  173SAPI    O419551   1.774   6.327  10.751  0.2038 -0.1012 -0.2455
  173SAPI   HO419552   1.721   6.350  10.674 -1.2773  0.4310  0.8750
  173SAPI   C1519553   1.617   6.147  10.816 -0.3570 -0.4197  0.0287
  173SAPI    H519554   1.549   6.163  10.729  0.6288 -0.9147 -0.8611
  173SAPI    O519555   1.568   6.229  10.924  0.0665 -0.7695 -0.4007
  173SAPI   HO519556   1.478   6.199  10.939  0.9908 -3.7973 -0.3883
  173SAPI   C1619557   1.611   6.000  10.851  0.0700  0.3251 -0.8272
  173SAPI    H619558   1.683   5.975  10.933 -2.1717  0.9724  1.4827
  173SAPI    O619559   1.489   5.970  10.908  0.2260  0.2247  0.1432
  173SAPI   HO619560   1.439   5.910  10.852 -0.7301  0.2668  0.9432
  173SAPI   C1119561   1.649   5.915  10.739  1.6513  0.0522  0.5751
  173SAPI    H119562   1.590   5.945  10.650  0.3936  2.5518  2.1333
  173SAPI     P19563   1.506   5.684  10.722  0.2056 -0.1459 -0.0615
  173SAPI   O1319564   1.389   5.774  10.749  0.4473  0.3342  0.4824
  173SAPI   O1419565   1.499   5.557  10.789  0.1978 -0.3952  0.9006
  173SAPI   O1219566   1.639   5.771  10.769 -0.2028  0.0627 -0.2232
  173SAPI   O1119567   1.537   5.673  10.565 -0.0630 -0.2636 -0.2389
  173SAPI    C119568   1.649   5.587  10.529  0.5387 -0.3389 -0.4416
  173SAPI    HA19569   1.745   5.641  10.514  0.7694 -0.5283  0.2914
  173SAPI    HB19570   1.676   5.519  10.612  2.7102  2.0683  1.0137
  173SAPI    C219571   1.615   5.502  10.410  0.2318  0.1654  0.2806
  173SAPI    HS19572   1.702   5.436  10.390 -0.8991 -0.6192 -2.6339
  173SAPI   O2119573   1.585   5.590  10.301  0.0538 -0.3515 -0.3703
  173SAPI   C2119574   1.696   5.627  10.239 -0.4177  0.2294 -0.7414
  173SAPI   O2219575   1.809   5.591  10.268 -0.2140  0.2510 -0.1447
  173SAPI   C2219576   1.661   5.694  10.108 -0.2654  0.8696  0.1870
  173SAPI   H2R19577   1.553   5.671  10.098 -0.2305  0.9466 -0.3792
  173SAPI   H2S19578   1.683   5.801  10.125 -0.3846  0.8099  0.7189
  173SAPI    C319579   1.499   5.415  10.439 -0.1498  0.0955  0.7287
  173SAPI    HX19580   1.414   5.483  10.462 -0.2517  0.4582 -0.6606
  173SAPI    HY19581   1.502   5.364  10.538 -0.5089 -0.0854  0.6476
  173SAPI   O3119582   1.459   5.329  10.337  0.6036 -0.3253  0.7709
  173SAPI   C3119583   1.493   5.199  10.338 -0.3379 -0.2886 -0.1900
  173SAPI   O3219584   1.571   5.145  10.418 -0.2832  0.0934  0.4845
  173SAPI   C3219585   1.448   5.134  10.207 -0.5227 -0.4062 -0.1122
  173SAPI   H2X19586   1.342   5.161  10.188 -1.2529 -2.9441  0.0118
  173SAPI   H2Y19587   1.442   5.025  10.225  2.6411 -0.7481 -0.6276
  173SAPI   C2319588   1.745   5.651   9.991 -0.2970  0.6341 -0.0894
  173SAPI   H3R19589   1.853   5.639  10.016 -0.3829 -0.2743 -0.1112
  173SAPI   H3S19590   1.746   5.714   9.900  0.2369  1.4405  0.4621
  173SAPI   C2419591   1.714   5.508   9.945  0.7696  0.3832  0.2960
  173SAPI   H4R19592   1.717   5.435  10.029 -0.3813 -0.7499 -0.6018
  173SAPI   H4S19593   1.788   5.461   9.878 -1.3169 -0.5812 -1.4484
  173SAPI   C2519594   1.585   5.499   9.868 -0.2864  0.3893  0.1491
  173SAPI   H5R19595   1.500   5.472   9.933  0.2724 -0.8885  0.3838
  173SAPI   C2619596   1.569   5.485   9.736  0.0985  0.1141  0.1249
  173SAPI   H6R19597   1.469   5.478   9.689  0.8534 -0.7206 -1.4286
  173SAPI   C2719598   1.680   5.490   9.633  0.3082  0.0818  0.9684
  173SAPI   H7R19599   1.685   5.385   9.596 -1.2316  0.1610  0.4419
  173SAPI   H7S19600   1.775   5.506   9.688  0.1117 -1.6543  1.8844
  173SAPI   C2819601   1.639   5.607   9.539 -0.1487  0.1193  0.4246
  173SAPI   H8R19602   1.685   5.703   9.568  1.5073 -0.6189  0.3762
  173SAPI   C2919603   1.573   5.594   9.421  0.1543  0.9088 -0.0155
  173SAPI   H9R19604   1.540   5.684   9.368  0.5910  1.2723  0.3165
  173SAPI  C21019605   1.546   5.459   9.362 -0.4609  0.2856 -0.3847
  173SAPI  H10R19606   1.519   5.378   9.433 -0.6664 -0.0374 -0.8286
  173SAPI  H10S19607   1.649   5.438   9.327 -0.9059  0.4894 -1.8910
  173SAPI  C21119608   1.460   5.466   9.238 -0.3441 -0.2015  0.6590
  173SAPI  H11R19609   1.353   5.461   9.264 -0.6785  0.9329 -0.4088
  173SAPI  C21219610   1.505   5.494   9.116  0.1412  0.4150 -0.3890
  173SAPI  H12R19611   1.438   5.504   9.029  1.3238  0.8512 -1.2716
  173SAPI  C21319612   1.647   5.526   9.069 -0.2343 -0.5358  0.2651
  173SAPI  H13R19613   1.680   5.451   8.994 -1.3720  0.6730 -1.5335
  173SAPI  H13S19614   1.724   5.514   9.149  0.2032  1.4114  0.1858
  173SAPI  C21419615   1.677   5.663   9.016  0.2225 -0.5016 -0.0181
  173SAPI  H14R19616   1.755   5.720   9.068 -0.5489  2.0172 -1.4363
  173SAPI  C21519617   1.619   5.723   8.918  0.4461 -0.6346 -0.1873
  173SAPI  H15R19618   1.668   5.818   8.892  0.2795 -0.2150  0.9521
  173SAPI  C21619619   1.508   5.667   8.832 -0.6538  0.1967 -0.6376
  173SAPI  H16R19620   1.495   5.558   8.815 -0.7191  0.4134 -2.2027
  173SAPI  H16S19621   1.549   5.702   8.734 -1.3028  1.3912 -0.5026
  173SAPI  C21719622   1.371   5.724   8.854 -0.7808 -1.0416 -0.7555
  173SAPI  H17R19623   1.323   5.711   8.954 -1.7202 -1.4663 -1.2486
  173SAPI  H17S19624   1.296   5.675   8.789 -0.7065 -0.3628 -1.3659
  173SAPI  C21819625   1.358   5.871   8.817 -0.1848  0.4919 -0.6295
  173SAPI  H18R19626   1.416   5.932   8.889  1.1568  0.6241 -1.7719
  173SAPI  H18S19627   1.251   5.892   8.840  0.5246  1.5191  2.0829
  173SAPI  C21919628   1.383   5.921   8.669  0.3297 -0.6687 -0.8659
  173SAPI  H19R19629   1.329   5.858   8.595  0.3144  1.7499 -3.0709
  173SAPI  H19S19630   1.493   5.915   8.651  0.8942  0.2938  1.7913
  173SAPI  C22019631   1.327   6.063   8.652  0.7069  0.7220 -0.0547
  173SAPI  H20R19632   1.347   6.133   8.737 -0.0142  0.7258  0.1177
  173SAPI  H20S19633   1.217   6.050   8.646  0.0621  2.1688  4.5789
  173SAPI  H20T19634   1.379   6.107   8.564  1.6687  0.9054  0.5849
  173SAPI   C3319635   1.557   5.159  10.100 -0.3574 -0.1756  0.0197
  173SAPI   H3X19636   1.657   5.123  10.133 -0.3005  1.2396  1.5783
  173SAPI   H3Y19637   1.567   5.267  10.075  1.6650 -0.2231  0.4359
  173SAPI   C3419638   1.515   5.081   9.969 -0.4294 -0.3443 -0.4901
  173SAPI   H4X19639   1.531   4.974   9.995  2.6937 -0.6491 -3.0238
  173SAPI   H4Y19640   1.601   5.098   9.900  0.3194 -0.5380  0.3724
  173SAPI   C3519641   1.384   5.116   9.901  0.3216  0.2898 -0.0164
  173SAPI   H5X19642   1.367   5.223   9.874  1.1521 -0.8157 -6.3132
  173SAPI   H5Y19643   1.296   5.094   9.964  0.2136 -0.0275 -0.2760
  173SAPI   C3619644   1.371   5.049   9.765  0.2060  0.2192  0.3656
  173SAPI   H6X19645   1.471   5.041   9.717  0.3713  0.9496  0.5665
  173SAPI   H6Y19646   1.312   5.106   9.689  0.1966 -1.1187 -0.6624
  173SAPI   C3719647   1.321   4.905   9.769  0.5091  0.5817 -0.4634
  173SAPI   H7X19648   1.219   4.900   9.812  0.9332  0.7172  0.5931
  173SAPI   H7Y19649   1.378   4.840   9.839  0.2958 -0.4557 -1.2256
  173SAPI   C3819650   1.332   4.837   9.628  0.2122 -0.6306 -0.3281
  173SAPI   H8X19651   1.323   4.728   9.645  1.5038 -0.3416  3.0346
  173SAPI   H8Y19652   1.432   4.857   9.584  0.9529 -2.8190  0.2361
  173SAPI   C3919653   1.217   4.888   9.533  0.1274  0.0654 -0.6092
  173SAPI   H9X19654   1.247   4.991   9.504  2.0445 -0.2926  0.0024
  173SAPI   H9Y19655   1.127   4.892   9.598  1.1492 -1.0592  0.9263
  173SAPI  C31019656   1.188   4.784   9.420 -0.1445 -0.3794 -0.6817
  173SAPI  H10X19657   1.083   4.795   9.384  0.0922  1.4682 -0.9405
  173SAPI  H10Y19658   1.226   4.683   9.444 -1.5856 -0.7955 -0.0197
  173SAPI  C31119659   1.257   4.826   9.289  0.2891 -0.1097 -0.9620
  173SAPI  H11X19660   1.365   4.830   9.313  0.2253 -0.1687 -0.6542
  173SAPI  H11Y19661   1.221   4.930   9.272 -2.3334 -0.8708 -0.4655
  173SAPI  C31219662   1.216   4.744   9.165 -0.6026  0.1626  0.0524
  173SAPI  H12X19663   1.242   4.637   9.179  0.3384  0.2259 -1.0352
  173SAPI  H12Y19664   1.291   4.771   9.087  1.8440 -3.3245  0.9424
  173SAPI  C31319665   1.079   4.768   9.110  0.7553 -0.1410  0.4249
  173SAPI  H13X19666   1.070   4.878   9.108  1.2663 -0.0676 -2.1760
  173SAPI  H13Y19667   0.995   4.738   9.177 -1.7307  2.0956 -1.4601
  173SAPI  C31419668   1.043   4.701   8.976  0.0386 -0.1630  0.0174
  173SAPI  H14X19669   1.056   4.591   8.991  2.5553  0.1976  0.9938
  173SAPI  H14Y19670   1.112   4.722   8.892 -0.2579 -0.2719 -0.2579
  173SAPI  C31519671   0.904   4.733   8.933  0.1036  0.6040  0.0275
  173SAPI  H15X19672   0.886   4.842   8.927  2.0604  0.8925 -1.6557
  173SAPI  H15Y19673   0.832   4.681   8.999 -0.3704 -0.2863 -1.1632
  173SAPI  C31619674   0.874   4.687   8.789  0.2679 -0.3209 -0.2092
  173SAPI  H16X19675   0.948   4.740   8.725  2.0264  1.8096  3.2428
  173SAPI  H16Y19676   0.774   4.728   8.764  0.3666 -0.0631 -0.1892
  173SAPI  C31719677   0.871   4.544   8.771 -0.1393  0.7930  0.5540
  173SAPI  H17X19678   0.820   4.495   8.857 -0.6015 -0.1701 -0.2498
  173SAPI  H17Y19679   0.977   4.517   8.789  0.4331  0.2613 -3.0064
  173SAPI  C31819680   0.816   4.491   8.639  0.1844  0.6983 -0.3064
  173SAPI  H18X19681   0.854   4.542   8.548  0.4591 -2.1849 -1.9309
  173SAPI  H18Y19682   0.706   4.504   8.632 -0.1017 -1.3988 -0.3655
  173SAPI  H18Z19683   0.836   4.383   8.624  0.2718  0.7391 -0.4867
  174SAPI   C1219684   4.849   6.334  10.687  0.2238  0.0647  0.2158
  174SAPI    H219685   4.804   6.317  10.586  0.5444 -2.1525  0.3895
  174SAPI    O219686   4.858   6.202  10.745 -0.0396 -0.5910 -0.3805
  174SAPI   HO219687   4.801   6.149  10.689 -0.3408  1.6227 -2.3704
  174SAPI   C1319688   4.991   6.394  10.655  0.4171 -0.3695 -0.4317
  174SAPI    H319689   4.989   6.499  10.621  1.2794  0.1263  0.9343
  174SAPI    O319690   5.056   6.320  10.555 -0.1924 -0.0693  0.1358
  174SAPI   HO319691   5.061   6.228  10.582 -0.9417 -0.3240 -0.5254
  174SAPI   C1419692   5.076   6.397  10.787 -0.2538 -0.2435  0.0188
  174SAPI    H419693   5.085   6.293  10.825 -1.2696 -0.0602  0.7881
  174SAPI    O419694   5.208   6.442  10.766 -0.0097 -0.6362  0.2723
  174SAPI   HO419695   5.262   6.364  10.752 -1.4063 -1.6599  0.3656
  174SAPI   C1519696   5.005   6.492  10.881  0.1958 -0.3666 -0.0253
  174SAPI    H519697   4.999   6.591  10.830 -1.7646 -1.4305 -1.9971
  174SAPI    O519698   5.066   6.497  11.009 -0.8052  0.1559 -0.3679
  174SAPI   HO519699   5.061   6.407  11.042  0.8447  0.4601  0.8336
  174SAPI   C1619700   4.852   6.460  10.911  0.6390  0.5786  0.5272
  174SAPI    H619701   4.855   6.375  10.983  0.2450 -1.4374 -1.6834
  174SAPI    O619702   4.788   6.571  10.981  0.4818 -0.1673  0.1061
  174SAPI   HO619703   4.719   6.539  11.040  0.5333 -0.6249 -0.0762
  174SAPI   C1119704   4.777   6.429  10.777  0.1631 -0.5147  0.5924
  174SAPI    H119705   4.785   6.531  10.733  0.6309 -0.9793 -0.4168
  174SAPI     P19706   4.515   6.478  10.744  0.0607 -0.5253  0.2837
  174SAPI   O1319707   4.531   6.621  10.763  0.0675  0.0931  0.2558
  174SAPI   O1419708   4.400   6.419  10.805  0.2398 -0.1361  0.4157
  174SAPI   O1219709   4.644   6.393  10.799  0.0744 -0.0377 -0.0533
  174SAPI   O1119710   4.522   6.450  10.586  0.5143  0.6255  0.2079
  174SAPI    C119711   4.505   6.562  10.492 -0.1608  0.4430  0.0246
  174SAPI    HA19712   4.396   6.576  10.478  0.1280  1.9203 -0.9568
  174SAPI    HB19713   4.548   6.657  10.532 -0.3939 -0.8003  3.5842
  174SAPI    C219714   4.564   6.532  10.348 -0.8127 -0.5947  0.4208
  174SAPI    HS19715   4.510   6.438  10.325 -0.0420 -0.7813 -0.7481
  174SAPI   O2119716   4.708   6.508  10.353  0.3235  1.0884  0.1784
  174SAPI   C2119717   4.762   6.426  10.252  0.5146  0.5567 -0.2480
  174SAPI   O2219718   4.692   6.371  10.172 -0.2863 -0.0034  0.1842
  174SAPI   C2219719   4.916   6.433  10.256 -0.1491 -0.1981  0.7103
  174SAPI   H2R19720   4.950   6.535  10.282 -1.1470  0.3376 -0.0109
  174SAPI   H2S19721   4.960   6.358  10.324  1.7102 -0.1191 -0.3454
  174SAPI    C319722   4.530   6.646  10.244 -0.2055 -0.5856 -0.4300
  174SAPI    HX19723   4.571   6.739  10.287  0.9707 -0.1453 -2.3689
  174SAPI    HY19724   4.419   6.658  10.247 -0.2692 -1.2556  0.2105
  174SAPI   O3119725   4.578   6.628  10.112  0.2828 -0.1524  0.5147
  174SAPI   C3119726   4.503   6.543  10.034 -0.3563 -0.5954 -0.0418
  174SAPI   O3219727   4.414   6.472  10.079  0.1934 -0.5072  0.4120
  174SAPI   C3219728   4.562   6.542   9.892 -0.8283 -0.0306 -0.3986
  174SAPI   H2X19729   4.519   6.466   9.823 -1.1295  1.9376 -2.5101
  174SAPI   H2Y19730   4.664   6.498   9.903 -0.8619  0.3927  2.0950
  174SAPI   C2319731   4.980   6.391  10.117  0.6232 -0.6208 -0.5557
  174SAPI   H3R19732   4.924   6.302  10.083 -0.1843 -0.0862 -0.6677
  174SAPI   H3S19733   5.084   6.357  10.129  0.9434  0.7142  0.8378
  174SAPI   C2419734   4.966   6.487  10.001  1.2511  0.2834 -1.1663
  174SAPI   H4R19735   4.857   6.505   9.984  0.6905 -1.9392 -0.2802
  174SAPI   H4S19736   4.999   6.419   9.920  0.3877 -2.3177  0.5374
  174SAPI   C2519737   5.035   6.625  10.000  0.0901 -0.0501 -0.1321
  174SAPI   H5R19738   5.067   6.662  10.099 -0.6027  0.8735 -0.2439
  174SAPI   C2619739   5.066   6.697   9.891 -0.6791 -0.1306  1.2978
  174SAPI   H6R19740   5.119   6.794   9.889  1.9769 -1.4425 -2.2382
  174SAPI   C2719741   5.027   6.656   9.749  0.5228  0.2658  0.2378
  174SAPI   H7R19742   4.957   6.734   9.712 -0.3996  0.1293  1.6574
  174SAPI   H7S19743   4.970   6.561   9.751 -1.7263  1.3961 -2.6601
  174SAPI   C2819744   5.151   6.646   9.665 -0.1638 -1.2703 -0.9808
  174SAPI   H8R19745   5.237   6.615   9.726  1.3536  0.1240 -2.3276
  174SAPI   C2919746   5.172   6.680   9.538  0.3140  0.3336  0.1529
  174SAPI   H9R19747   5.275   6.660   9.505  1.2225  1.7501  1.9287
  174SAPI  C21019748   5.070   6.725   9.439 -0.5412 -0.3480 -0.3815
  174SAPI  H10R19749   5.081   6.835   9.431 -0.6366 -0.2469  0.7884
  174SAPI  H10S19750   4.969   6.731   9.486 -0.2793  1.0523  0.0460
  174SAPI  C21119751   5.068   6.659   9.305  0.0736  0.2010  0.2027
  174SAPI  H11R19752   5.027   6.557   9.319  0.2029  0.4131  2.3604
  174SAPI  C21219753   5.100   6.703   9.179  0.3810 -0.7506  0.0682
  174SAPI  H12R19754   5.102   6.637   9.091  0.0079  2.2021 -2.3247
  174SAPI  C21319755   5.140   6.845   9.149  0.3432  0.4067  0.1657
  174SAPI  H13R19756   5.238   6.866   9.196  0.7238  1.6734 -1.1012
  174SAPI  H13S19757   5.073   6.921   9.195 -1.3312  0.6871 -2.4898
  174SAPI  C21419758   5.148   6.880   9.003 -0.2665  0.0759  0.5946
  174SAPI  H14R19759   5.077   6.814   8.950  0.2726 -0.2299  0.2362
  174SAPI  C21519760   5.219   6.969   8.938 -0.8261  0.0595  0.3559
  174SAPI  H15R19761   5.215   6.974   8.828 -1.2464 -0.7687  0.3215
  174SAPI  C21619762   5.312   7.060   9.014  0.8139 -0.7856  0.8522
  174SAPI  H16R19763   5.342   7.020   9.112  0.5581 -0.7838  0.9322
  174SAPI  H16S19764   5.258   7.157   9.014  3.2225  0.6424  0.5598
  174SAPI  C21719765   5.441   7.070   8.922  0.2912  0.0423 -0.1996
  174SAPI  H17R19766   5.461   6.988   8.850  1.6504  1.0982 -1.0838
  174SAPI  H17S19767   5.527   7.060   8.990  0.7963 -0.0208 -0.8339
  174SAPI  C21819768   5.453   7.211   8.855  0.4849 -0.2726  0.0142
  174SAPI  H18R19769   5.467   7.293   8.929  0.8002 -1.0506  0.8314
  174SAPI  H18S19770   5.358   7.240   8.804  0.8316  1.1861  0.1674
  174SAPI  C21919771   5.571   7.222   8.751  0.7354  0.2117 -0.4963
  174SAPI  H19R19772   5.569   7.330   8.726 -1.7926  0.8076  1.8144
  174SAPI  H19S19773   5.540   7.162   8.663 -2.4915  0.0201  0.6358
  174SAPI  C22019774   5.710   7.177   8.809  0.5131 -0.1546  0.2372
  174SAPI  H20R19775   5.694   7.096   8.884 -0.8572  0.1827  0.3245
  174SAPI  H20S19776   5.750   7.263   8.868 -0.2844  0.5508 -0.2258
  174SAPI  H20T19777   5.780   7.141   8.731  1.7046 -2.6635  2.2752
  174SAPI   C3319778   4.557   6.683   9.825  0.5790 -0.1725  0.1814
  174SAPI   H3X19779   4.602   6.750   9.902  2.7046 -1.4069  0.0756
  174SAPI   H3Y19780   4.448   6.705   9.814  0.7843  0.1703 -1.3114
  174SAPI   C3419781   4.636   6.701   9.693  0.4251 -0.1485 -0.0888
  174SAPI   H4X19782   4.738   6.659   9.706  0.1804 -1.4922 -2.0883
  174SAPI   H4Y19783   4.642   6.807   9.660  0.1988 -0.8253 -2.5113
  174SAPI   C3519784   4.570   6.631   9.571 -0.1500  0.3262 -0.3911
  174SAPI   H5X19785   4.487   6.693   9.534 -0.1744  1.3335  1.2429
  174SAPI   H5Y19786   4.531   6.533   9.606 -1.3904  0.8111 -0.3736
  174SAPI   C3619787   4.681   6.606   9.464  0.1813 -0.2141 -0.5643
  174SAPI   H6X19788   4.756   6.534   9.505  0.0157  0.6149  1.2839
  174SAPI   H6Y19789   4.732   6.704   9.450 -2.1835  1.3863  1.3137
  174SAPI   C3719790   4.630   6.558   9.332 -0.0666 -0.1851 -0.7175
  174SAPI   H7X19791   4.546   6.620   9.295 -0.0214 -0.5480 -1.4579
  174SAPI   H7Y19792   4.586   6.459   9.359  0.1643  0.2894  1.5391
  174SAPI   C3819793   4.737   6.549   9.230  0.0880  0.3285  0.2433
  174SAPI   H8X19794   4.808   6.464   9.240  0.4110  0.5348 -0.2270
  174SAPI   H8Y19795   4.800   6.641   9.224  0.5008 -0.0127 -1.3685
  174SAPI   C3919796   4.671   6.510   9.095  0.0575  0.0376  0.1430
  174SAPI   H9X19797   4.605   6.594   9.063  0.9740 -0.1913 -2.6736
  174SAPI   H9Y19798   4.607   6.419   9.105 -0.6567  0.4185 -0.7307
  174SAPI  C31019799   4.760   6.496   8.967 -0.3254 -0.6468  0.0685
  174SAPI  H10X19800   4.827   6.408   8.978  0.8055 -0.1493 -2.1227
  174SAPI  H10Y19801   4.820   6.589   8.956 -0.5780 -0.6582 -1.9466
  174SAPI  C31119802   4.690   6.481   8.831  0.7443  0.2043 -0.5300
  174SAPI  H11X19803   4.766   6.493   8.751  0.5440  0.6174 -0.6602
  174SAPI  H11Y19804   4.617   6.563   8.822 -2.0288 -2.0492 -0.0322
  174SAPI  C31219805   4.612   6.356   8.813 -0.2787 -0.5519  0.0719
  174SAPI  H12X19806   4.545   6.340   8.900  0.8991 -0.1329  1.0829
  174SAPI  H12Y19807   4.691   6.279   8.803 -0.5662 -0.8163 -0.1746
  174SAPI  C31319808   4.522   6.337   8.684  0.4862 -0.5289  1.0463
  174SAPI  H13X19809   4.434   6.405   8.690  1.0852  0.6254 -1.6054
  174SAPI  H13Y19810   4.484   6.233   8.681 -0.1480 -0.2778 -0.3646
  174SAPI  C31419811   4.603   6.373   8.550 -0.0882 -0.1091 -0.6565
  174SAPI  H14X19812   4.693   6.309   8.549 -0.5005 -0.9462 -5.0200
  174SAPI  H14Y19813   4.623   6.482   8.557  0.2024 -0.2431  0.7214
  174SAPI  C31519814   4.525   6.342   8.421  0.5446  0.2650  0.4090
  174SAPI  H15X19815   4.453   6.426   8.407 -1.7331 -1.9467 -2.5075
  174SAPI  H15Y19816   4.475   6.245   8.441  1.3096 -0.0300  0.9000
  174SAPI  C31619817   4.611   6.343   8.288 -0.3740 -0.2479  0.2011
  174SAPI  H16X19818   4.681   6.430   8.284  1.0902 -1.4273 -1.0457
  174SAPI  H16Y19819   4.541   6.352   8.202  0.3127  0.1206 -0.3266
  174SAPI  C31719820   4.693   6.212   8.257  0.1801  0.1108  0.3809
  174SAPI  H17X19821   4.640   6.119   8.227  1.6278 -0.9125  0.9122
  174SAPI  H17Y19822   4.745   6.199   8.355 -0.1394  1.9722  0.8269
  174SAPI  C31819823   4.788   6.259   8.138  0.5302 -0.0830  0.3649
  174SAPI  H18X19824   4.830   6.360   8.155 -1.1239  0.7928 -0.4804
  174SAPI  H18Y19825   4.715   6.259   8.055  2.2214  1.6536 -1.2182
  174SAPI  H18Z19826   4.861   6.182   8.106 -0.8973 -0.9828 -0.8637
  175SAPI   C1219827   0.997   4.003   6.111  0.6477 -0.2506  0.3915
  175SAPI    H219828   0.968   3.897   6.128  3.9915 -1.0301  2.2579
  175SAPI    O219829   1.067   4.029   5.990 -0.5544  0.6358  0.1868
  175SAPI   HO219830   1.014   4.013   5.912  2.1970 -0.0851 -1.6919
  175SAPI   C1319831   0.862   4.089   6.119 -0.1751 -0.2901 -0.1438
  175SAPI    H319832   0.804   4.072   6.212 -0.6491  0.3599 -0.3172
  175SAPI    O319833   0.776   4.066   6.013 -0.1364  0.7538  0.2989
  175SAPI   HO319834   0.721   4.144   6.008 -1.1837  0.1271  1.4756
  175SAPI   C1419835   0.911   4.231   6.126  0.3452  0.3857 -0.6831
  175SAPI    H419836   0.970   4.256   6.035  1.1107  1.1167  0.0088
  175SAPI    O419837   0.797   4.313   6.102  0.5997  0.9776 -0.6472
  175SAPI   HO419838   0.737   4.299   6.176  2.1916  0.3101  0.5733
  175SAPI   C1519839   0.996   4.266   6.246  0.2204  0.3244  0.2056
  175SAPI    H519840   0.946   4.241   6.342 -1.3775  0.7999 -0.4671
  175SAPI    O519841   1.030   4.409   6.239  0.0282 -0.9648 -0.5706
  175SAPI   HO519842   1.070   4.439   6.321  1.2283  1.3660 -1.8897
  175SAPI   C1619843   1.120   4.173   6.237 -0.6958 -0.4945  0.6778
  175SAPI    H619844   1.175   4.204   6.146 -1.4287 -0.9145  0.0907
  175SAPI    O619845   1.208   4.203   6.345 -1.1877  0.3834 -0.1048
  175SAPI   HO619846   1.163   4.164   6.420  0.2355  0.4494  0.8145
  175SAPI   C1119847   1.084   4.026   6.231 -0.1625  0.2146 -0.2335
  175SAPI    H119848   1.019   4.014   6.321 -0.1353  0.2967 -0.2023
  175SAPI     P19849   1.199   3.804   6.306 -0.1336 -0.0534 -0.0398
  175SAPI   O1319850   1.326   3.738   6.260  0.3848 -0.0243  0.3277
  175SAPI   O1419851   1.069   3.732   6.277 -0.3411 -0.1148  0.4591
  175SAPI   O1219852   1.199   3.943   6.231 -0.1082 -0.2437 -0.0512
  175SAPI   O1119853   1.223   3.849   6.457 -0.6658  0.6406  0.1171
  175SAPI    C119854   1.127   3.866   6.564 -0.0309  0.2856  0.1879
  175SAPI    HA19855   1.115   3.972   6.592 -0.8986 -0.0277  1.0715
  175SAPI    HB19856   1.024   3.833   6.543 -0.6982  0.0865  3.2631
  175SAPI    C219857   1.169   3.772   6.679 -0.6393  0.6353  0.9029
  175SAPI    HS19858   1.194   3.670   6.643  1.3555  0.7702  1.7847
  175SAPI   O2119859   1.072   3.763   6.788  0.0235  0.2547  0.1736
  175SAPI   C2119860   0.963   3.693   6.768  0.4179 -1.0546 -0.3886
  175SAPI   O2219861   0.943   3.633   6.660  0.3935 -0.2678 -0.3526
  175SAPI   C2219862   0.883   3.684   6.895  0.4100 -0.3404 -0.0828
  175SAPI   H2R19863   0.920   3.756   6.970  2.1879 -2.4943  1.2225
  175SAPI   H2S19864   0.776   3.699   6.867  0.4105 -0.4642 -0.1553
  175SAPI    C319865   1.307   3.818   6.736 -0.6008 -0.0638 -0.6378
  175SAPI    HX19866   1.279   3.897   6.809  0.6089 -1.9880  2.0777
  175SAPI    HY19867   1.376   3.844   6.653 -1.7343 -1.9986 -2.2918
  175SAPI   O3119868   1.380   3.716   6.816  0.0093 -0.2486  0.0564
  175SAPI   C3119869   1.514   3.747   6.847 -0.4067 -0.1671 -0.0312
  175SAPI   O3219870   1.578   3.833   6.780 -0.0110  0.4108 -0.1666
  175SAPI   C3219871   1.564   3.673   6.970 -0.6169 -0.1880  0.2166
  175SAPI   H2X19872   1.488   3.594   6.991 -0.4918 -1.0595 -2.2542
  175SAPI   H2Y19873   1.562   3.750   7.050  1.7324  1.0683 -0.8423
  175SAPI   C2319874   0.893   3.545   6.946  0.2942  0.4839 -0.4568
  175SAPI   H3R19875   0.996   3.507   6.926  0.6342  0.3449  1.3579
  175SAPI   H3S19876   0.814   3.488   6.893  2.3189 -0.9401 -2.1367
  175SAPI   C2419877   0.882   3.539   7.100  0.0450  0.0155  0.7034
  175SAPI   H4R19878   0.942   3.623   7.142  0.7676 -0.1675  0.0574
  175SAPI   H4S19879   0.937   3.450   7.137  1.3510  0.2365 -0.6238
  175SAPI   C2519880   0.739   3.558   7.142 -0.2268  0.0157  0.7239
  175SAPI   H5R19881   0.661   3.566   7.064 -0.3093 -2.1273  0.5111
  175SAPI   C2619882   0.707   3.572   7.269 -0.3999 -0.2726  0.5331
  175SAPI   H6R19883   0.602   3.584   7.297 -0.2747 -2.4777  2.1768
  175SAPI   C2719884   0.803   3.575   7.389  0.0813 -0.0971  0.4128
  175SAPI   H7R19885   0.906   3.595   7.352 -0.6198 -0.0464 -1.5944
  175SAPI   H7S19886   0.806   3.473   7.434  1.2873 -0.1907  0.1448
  175SAPI   C2819887   0.762   3.686   7.480  0.2056  0.4648  0.8318
  175SAPI   H8R19888   0.667   3.737   7.461  0.9592  1.0260 -1.7636
  175SAPI   C2919889   0.832   3.715   7.596 -0.6196  0.0978 -0.2784
  175SAPI   H9R19890   0.797   3.794   7.664  1.8182  1.6661 -0.7198
  175SAPI  C21019891   0.960   3.649   7.638  0.1973 -0.2932 -0.4889
  175SAPI  H10R19892   1.039   3.647   7.559 -0.8275  0.3687 -1.5591
  175SAPI  H10S19893   0.940   3.540   7.644  1.6432 -0.6073 -0.8285
  175SAPI  C21119894   1.023   3.691   7.774  0.4904  0.5756  0.8796
  175SAPI  H11R19895   1.104   3.763   7.756  0.9561 -0.0971  0.2738
  175SAPI  C21219896   0.992   3.669   7.900  0.6454  0.5293  0.2183
  175SAPI  H12R19897   1.063   3.694   7.981 -0.0289 -0.3383  1.1043
  175SAPI  C21319898   0.865   3.596   7.938 -0.4621  0.0135  0.3932
  175SAPI  H13R19899   0.897   3.493   7.963  2.9371  0.7999 -0.2355
  175SAPI  H13S19900   0.795   3.584   7.853 -0.4137 -0.5856  0.4312
  175SAPI  C21419901   0.799   3.660   8.058  0.4110  0.2646 -0.2338
  175SAPI  H14R19902   0.806   3.770   8.063  1.9406  0.1322  1.5774
  175SAPI  C21519903   0.733   3.583   8.148 -0.6049 -1.0048 -0.4091
  175SAPI  H15R19904   0.688   3.634   8.234  1.5285 -1.4808  1.0896
  175SAPI  C21619905   0.725   3.432   8.150 -0.8285  0.4529 -0.1672
  175SAPI  H16R19906   0.823   3.391   8.182 -1.4228 -0.1773  0.8976
  175SAPI  H16S19907   0.706   3.389   8.049  3.5383 -0.6417 -0.7176
  175SAPI  C21719908   0.615   3.383   8.250 -0.4496  0.4956  0.1459
  175SAPI  H17R19909   0.513   3.417   8.221 -1.6070 -3.4710 -1.0652
  175SAPI  H17S19910   0.636   3.422   8.352  1.2563 -3.1487  1.3379
  175SAPI  C21819911   0.593   3.234   8.267  0.2387  0.8672 -0.2455
  175SAPI  H18R19912   0.686   3.191   8.310 -0.3317  0.7993  0.9686
  175SAPI  H18S19913   0.575   3.194   8.165  1.8528  0.1785 -0.2928
  175SAPI  C21919914   0.484   3.199   8.361  0.7732  0.4413  0.1916
  175SAPI  H19R19915   0.453   3.095   8.336  2.0594  0.1819 -0.4380
  175SAPI  H19S19916   0.395   3.262   8.338  1.2654  0.5283 -1.5680
  175SAPI  C22019917   0.521   3.213   8.505 -0.9019 -0.4344  0.0005
  175SAPI  H20R19918   0.439   3.193   8.577 -0.0067  0.3693  1.2790
  175SAPI  H20S19919   0.568   3.310   8.530  0.1195 -1.0818  0.6650
  175SAPI  H20T19920   0.608   3.146   8.520 -0.4110  0.2056  0.0380
  175SAPI   C3319921   1.715   3.622   6.961  0.8348  0.0302 -0.2165
  175SAPI   H3X19922   1.772   3.695   6.899  0.8379 -0.0907 -0.3574
  175SAPI   H3Y19923   1.724   3.524   6.909  1.2669 -0.7219  1.2360
  175SAPI   C3419924   1.779   3.614   7.095 -0.8770  0.6827 -0.9297
  175SAPI   H4X19925   1.776   3.713   7.144  0.4489  0.9440 -1.3411
  175SAPI   H4Y19926   1.887   3.591   7.086 -0.6023  0.7325  1.5250
  175SAPI   C3519927   1.712   3.505   7.182  0.0881  0.6790  0.7996
  175SAPI   H5X19928   1.772   3.411   7.177  1.6991  1.6782  0.8651
  175SAPI   H5Y19929   1.613   3.492   7.134 -0.4648  1.0482  1.8110
  175SAPI   C3619930   1.683   3.551   7.324 -0.1357  1.2229 -0.2344
  175SAPI   H6X19931   1.630   3.466   7.372  0.0315  0.6284 -1.0765
  175SAPI   H6Y19932   1.622   3.644   7.319 -0.7314  0.9400  1.2204
  175SAPI   C3719933   1.811   3.571   7.405  0.2978 -0.1627  0.0035
  175SAPI   H7X19934   1.881   3.640   7.355 -2.0606  2.8702  0.5881
  175SAPI   H7Y19935   1.860   3.471   7.407  1.8762  0.5153 -1.6611
  175SAPI   C3819936   1.793   3.626   7.550 -0.0771  0.6483 -0.4403
  175SAPI   H8X19937   1.727   3.715   7.550 -1.0476 -0.0449 -0.8191
  175SAPI   H8Y19938   1.894   3.649   7.589 -0.1945  0.4666 -0.0165
  175SAPI   C3919939   1.721   3.513   7.628 -0.1142  0.0391 -0.4430
  175SAPI   H9X19940   1.784   3.426   7.601  1.3414  1.1227 -0.7109
  175SAPI   H9Y19941   1.616   3.501   7.593  0.1007 -1.5193 -0.6225
  175SAPI  C31019942   1.722   3.522   7.779  0.7135  0.0343 -0.5049
  175SAPI  H10X19943   1.820   3.565   7.810 -0.2776  1.9707  0.1539
  175SAPI  H10Y19944   1.703   3.421   7.821  0.6088  0.6012  0.8879
  175SAPI  C31119945   1.604   3.616   7.819 -0.7191  0.1382  0.2213
  175SAPI  H11X19946   1.518   3.571   7.765  0.7792 -0.0138 -2.1852
  175SAPI  H11Y19947   1.634   3.713   7.773  1.0194 -0.9715 -1.1169
  175SAPI  C31219948   1.591   3.628   7.971 -0.4352  0.4814 -0.0174
  175SAPI  H12X19949   1.693   3.654   8.008 -0.2261  4.1298 -2.5187
  175SAPI  H12Y19950   1.559   3.530   8.011  0.7167  0.1161  0.0670
  175SAPI  C31319951   1.498   3.740   8.022  0.6469 -0.4375  0.5641
  175SAPI  H13X19952   1.406   3.732   7.960  1.0635 -0.2465 -0.0830
  175SAPI  H13Y19953   1.538   3.835   7.982  1.2505 -0.8275  0.2232
  175SAPI  C31419954   1.470   3.744   8.168  0.4090 -0.7009  0.4307
  175SAPI  H14X19955   1.557   3.776   8.230  1.7436 -3.0097 -0.1056
  175SAPI  H14Y19956   1.463   3.638   8.202 -0.2669 -1.4212 -1.8061
  175SAPI  C31519957   1.344   3.822   8.199 -0.4176  0.2708  0.5281
  175SAPI  H15X19958   1.265   3.775   8.136  0.2598 -1.4604  0.9046
  175SAPI  H15Y19959   1.352   3.926   8.160 -2.3088  0.8755  1.5873
  175SAPI  C31619960   1.297   3.820   8.346 -0.5351 -0.0976 -0.2994
  175SAPI  H16X19961   1.254   3.920   8.368 -3.0321 -0.8871 -1.2394
  175SAPI  H16Y19962   1.386   3.793   8.407 -0.1493 -2.3902 -1.7257
  175SAPI  C31719963   1.197   3.710   8.382 -0.4371 -0.3645 -0.3907
  175SAPI  H17X19964   1.171   3.716   8.490 -2.7685 -0.9790 -0.8710
  175SAPI  H17Y19965   1.244   3.612   8.361 -2.1516 -1.2812 -0.1250
  175SAPI  C31819966   1.067   3.715   8.309 -0.7268 -0.4879 -0.4686
  175SAPI  H18X19967   1.075   3.739   8.201 -2.6535  2.9987 -0.0010
  175SAPI  H18Y19968   1.007   3.797   8.354 -0.2688 -0.8665  0.8748
  175SAPI  H18Z19969   1.013   3.620   8.325 -0.6323 -0.3803  0.5461
  176SAPI   C1219970   6.543   1.313   6.508  0.5976  0.4728 -0.2517
  176SAPI    H219971   6.472   1.253   6.569  0.6906  0.2966 -0.3160
  176SAPI    O219972   6.603   1.408   6.594 -0.0491  0.2790  0.0407
  176SAPI   HO219973   6.531   1.445   6.645 -1.2134 -1.9730  0.1241
  176SAPI   C1319974   6.643   1.208   6.444  0.1147 -1.0291  0.2556
  176SAPI    H319975   6.579   1.134   6.392  1.5226 -3.7547  2.1485
  176SAPI    O319976   6.716   1.139   6.545  0.6037 -0.2998  0.0241
  176SAPI   HO319977   6.806   1.172   6.538  0.1440  1.3197  1.1228
  176SAPI   C1419978   6.731   1.280   6.344 -0.5112  0.5997 -0.1002
  176SAPI    H419979   6.775   1.367   6.397 -2.9627  2.8689 -1.5647
  176SAPI    O419980   6.834   1.194   6.293  0.0516  0.2585 -0.0317
  176SAPI   HO419981   6.907   1.242   6.253 -2.1669  1.2235 -3.3160
  176SAPI   C1519982   6.650   1.344   6.230 -0.0750 -0.2545 -0.3438
  176SAPI    H519983   6.600   1.263   6.173 -0.8619 -0.1373  0.1553
  176SAPI    O519984   6.735   1.417   6.136 -0.4903  0.4255  0.2172
  176SAPI   HO519985   6.689   1.429   6.053  0.4325  0.9421 -0.2387
  176SAPI   C1619986   6.542   1.437   6.291 -0.1942 -0.1051  0.1374
  176SAPI    H619987   6.604   1.520   6.331 -0.2830  0.1782 -0.3070
  176SAPI    O619988   6.455   1.473   6.179  0.0241 -0.0615  0.2543
  176SAPI   HO619989   6.384   1.516   6.227 -1.1523 -1.4263 -0.2108
  176SAPI   C1119990   6.454   1.368   6.394  0.1886 -0.1220 -0.4625
  176SAPI    H119991   6.407   1.275   6.356  0.4557 -1.4290  2.1303
  176SAPI     P19992   6.254   1.457   6.559 -0.3499  0.0011 -0.0743
  176SAPI   O1319993   6.201   1.319   6.566 -0.6275 -0.2966 -0.4848
  176SAPI   O1419994   6.156   1.566   6.541 -0.3501  0.1607 -0.3638
  176SAPI   O1219995   6.356   1.464   6.440 -0.3384 -0.2375  0.8114
  176SAPI   O1119996   6.347   1.483   6.684  0.6758 -0.0730  0.3118
  176SAPI    C119997   6.342   1.610   6.764  0.9415 -0.2645  0.0518
  176SAPI    HA19998   6.238   1.649   6.764  1.8351  2.3579  2.0577
  176SAPI    HB19999   6.384   1.592   6.865  2.7582 -1.2389 -0.8305
  176SAPI    C220000   6.428   1.719   6.705 -0.1726 -0.0479 -0.2482
  176SAPI    HS20001   6.409   1.733   6.596  1.7641  2.2413 -0.3693
  176SAPI   O2120002   6.560   1.669   6.728  0.4341  0.2540  0.0595
  176SAPI   C2120003   6.649   1.707   6.642  0.1342 -0.6883  0.0941
  176SAPI   O2220004   6.622   1.771   6.539 -0.0680  0.0129 -0.3374
  176SAPI   C2220005   6.783   1.653   6.682 -0.5883  0.2693 -0.4135
  176SAPI   H2R20006   6.779   1.542   6.684 -1.7213  0.2681 -1.7344
  176SAPI   H2S20007   6.850   1.677   6.596  0.7060  1.9481  0.9683
  176SAPI    C320008   6.412   1.857   6.774  0.5689  0.0675  0.3862
  176SAPI    HX20009   6.310   1.899   6.764  0.7304  0.9258  1.9972
  176SAPI    HY20010   6.477   1.929   6.720 -0.0203 -0.2620 -0.7997
  176SAPI   O3120011   6.443   1.845   6.919 -0.2758 -0.6639 -0.2941
  176SAPI   C3120012   6.551   1.916   6.950  0.4904 -0.2347 -0.0279
  176SAPI   O3220013   6.628   1.968   6.872 -0.0622 -0.9765 -0.5878
  176SAPI   C3220014   6.569   1.926   7.103  0.1855 -0.1027  0.4944
  176SAPI   H2X20015   6.492   1.859   7.147  1.0497  0.0118  2.2787
  176SAPI   H2Y20016   6.542   2.030   7.134  2.0253  0.0653  1.6823
  176SAPI   C2320017   6.842   1.710   6.815  0.0408  0.3691  1.1209
  176SAPI   H3R20018   6.765   1.689   6.893 -0.3794 -2.2508  0.0765
  176SAPI   H3S20019   6.862   1.819   6.803 -0.1043  0.1772 -1.3536
  176SAPI   C2420020   6.976   1.645   6.833  0.5939  0.1045 -0.1881
  176SAPI   H4R20021   7.020   1.657   6.732 -0.2564 -0.2621 -0.6037
  176SAPI   H4S20022   6.956   1.536   6.837 -1.7010  0.4337 -1.0868
  176SAPI   C2520023   7.062   1.701   6.941 -0.3009 -0.4254  0.2907
  176SAPI   H5R20024   7.121   1.787   6.908 -0.8936  0.0083  0.3543
  176SAPI   C2620025   7.089   1.666   7.069 -0.1849  0.1232  0.7304
  176SAPI   H6R20026   7.156   1.731   7.128 -2.2208  0.5907  2.6177
  176SAPI   C2720027   7.037   1.547   7.146 -0.3311 -0.0746 -0.2038
  176SAPI   H7R20028   7.109   1.463   7.151 -1.2648 -0.8187  1.8339
  176SAPI   H7S20029   6.941   1.518   7.099 -0.6490  1.8549 -0.8530
  176SAPI   C2820030   7.002   1.587   7.289 -0.5074  0.8846 -0.1821
  176SAPI   H8R20031   6.897   1.619   7.294 -0.7840  0.1568 -1.1637
  176SAPI   C2920032   7.083   1.589   7.398 -0.5353  0.3584 -0.5583
  176SAPI   H9R20033   7.033   1.610   7.494  1.9706 -0.7231  1.0823
  176SAPI  C21020034   7.230   1.549   7.405 -0.2416  0.1971  0.6140
  176SAPI  H10R20035   7.263   1.539   7.299 -1.3795  1.2796  0.1369
  176SAPI  H10S20036   7.227   1.446   7.446  1.3568 -1.1342 -2.2904
  176SAPI  C21120037   7.322   1.643   7.486  0.4133 -0.0906 -0.2997
  176SAPI  H11R20038   7.353   1.734   7.432  2.3242  0.0790  0.9761
  176SAPI  C21220039   7.357   1.635   7.617  0.4460 -0.3286  0.4445
  176SAPI  H12R20040   7.417   1.715   7.662  2.0701 -0.6565 -1.0146
  176SAPI  C21320041   7.296   1.534   7.708 -0.2728  1.1991  0.4682
  176SAPI  H13R20042   7.352   1.438   7.715 -1.2205  0.5519 -0.5034
  176SAPI  H13S20043   7.192   1.500   7.690  0.6282 -2.8939  1.8496
  176SAPI  C21420044   7.282   1.591   7.850 -0.5198  0.1503 -0.0210
  176SAPI  H14R20045   7.366   1.565   7.915 -2.4097 -1.3065  2.0103
  176SAPI  C21520046   7.170   1.646   7.901 -0.4643  0.6919  0.0544
  176SAPI  H15R20047   7.173   1.685   8.004 -1.5034 -0.8492  0.6899
  176SAPI  C21620048   7.040   1.647   7.823 -0.7380 -0.8103 -0.0140
  176SAPI  H16R20049   7.008   1.543   7.801 -0.3577 -1.1168  0.8267
  176SAPI  H16S20050   7.070   1.686   7.724  3.5979 -0.6428  1.1922
  176SAPI  C21720051   6.932   1.732   7.891 -0.1813  0.3980  0.3049
  176SAPI  H17R20052   6.847   1.738   7.821  0.9529 -2.7567 -1.5462
  176SAPI  H17S20053   6.979   1.832   7.907  1.8810 -0.8490  2.8372
  176SAPI  C21820054   6.886   1.679   8.028 -0.3216  0.7830 -0.7504
  176SAPI  H18R20055   6.974   1.662   8.094 -0.8191  0.5154 -0.1351
  176SAPI  H18S20056   6.843   1.578   8.008  0.7063  0.0337  0.6327
  176SAPI  C21920057   6.792   1.773   8.103 -0.5084 -0.1577  0.3627
  176SAPI  H19R20058   6.741   1.715   8.182  2.4877  0.3607  2.9156
  176SAPI  H19S20059   6.717   1.817   8.033 -1.1928 -1.1228  0.4804
  176SAPI  C22020060   6.871   1.890   8.170  0.1908  0.5598  0.7379
  176SAPI  H20R20061   6.916   1.954   8.090  1.0770 -1.4391 -0.4514
  176SAPI  H20S20062   6.948   1.852   8.240  0.8835 -0.2605 -0.4390
  176SAPI  H20T20063   6.808   1.949   8.240 -2.5935 -2.3279  0.8524
  176SAPI   C3320064   6.713   1.899   7.159 -0.2568 -0.4067 -0.3662
  176SAPI   H3X20065   6.777   1.984   7.129 -0.5653 -0.1455 -0.2923
  176SAPI   H3Y20066   6.755   1.812   7.104  2.2291 -1.1438  2.4663
  176SAPI   C3420067   6.720   1.864   7.298 -0.8128  0.6465  0.0617
  176SAPI   H4X20068   6.694   1.956   7.356  1.1865  0.9012  0.6171
  176SAPI   H4Y20069   6.827   1.858   7.326 -0.5392  1.9764 -0.5891
  176SAPI   C3520070   6.643   1.749   7.358 -0.0404 -1.4790  0.1379
  176SAPI   H5X20071   6.658   1.656   7.299 -0.0248 -1.7366  0.5500
  176SAPI   H5Y20072   6.536   1.781   7.357  0.5989  0.9052 -0.6015
  176SAPI   C3620073   6.687   1.729   7.500 -0.4451 -0.0389 -0.7419
  176SAPI   H6X20074   6.666   1.825   7.552  0.3489 -1.7237  3.1027
  176SAPI   H6Y20075   6.796   1.717   7.516 -0.7125 -1.8454 -0.0394
  176SAPI   C3720076   6.608   1.606   7.558  0.8412 -1.3209 -0.1416
  176SAPI   H7X20077   6.659   1.516   7.515  1.3222 -0.7714 -0.7484
  176SAPI   H7Y20078   6.510   1.612   7.507  0.4264  3.4504  0.8230
  176SAPI   C3820079   6.587   1.599   7.710 -0.5794  0.0011 -0.3698
  176SAPI   H8X20080   6.557   1.699   7.748  1.0358 -0.6606  3.0895
  176SAPI   H8Y20081   6.685   1.579   7.759 -0.8999  0.1528  0.3426
  176SAPI   C3920082   6.484   1.493   7.754 -0.4868 -0.3215  0.8021
  176SAPI   H9X20083   6.510   1.404   7.693  2.1980  0.9257 -0.0183
  176SAPI   H9Y20084   6.391   1.523   7.702  0.1449  1.1069  0.4437
  176SAPI  C31020085   6.470   1.465   7.907 -0.2213  0.0795 -0.6374
  176SAPI  H10X20086   6.417   1.549   7.957  0.9865  0.1959  0.5301
  176SAPI  H10Y20087   6.577   1.460   7.939  0.3136 -0.5229 -2.4247
  176SAPI  C31120088   6.405   1.333   7.929 -0.8292 -0.4442 -0.1681
  176SAPI  H11X20089   6.444   1.254   7.860  1.9747  1.1622 -0.5801
  176SAPI  H11Y20090   6.300   1.341   7.894 -1.1649  4.6456  1.2767
  176SAPI  C31220091   6.402   1.287   8.076 -0.4531 -0.6756  0.1628
  176SAPI  H12X20092   6.335   1.356   8.132 -1.5197  0.8159 -2.7606
  176SAPI  H12Y20093   6.506   1.273   8.113  0.0147 -2.1171 -1.5499
  176SAPI  C31320094   6.320   1.158   8.073 -0.1060  0.5053 -0.8126
  176SAPI  H13X20095   6.373   1.074   8.023 -2.0532 -0.3034 -1.6278
  176SAPI  H13Y20096   6.223   1.171   8.021 -0.2716  0.9168 -0.4120
  176SAPI  C31420097   6.282   1.116   8.216 -0.9454  0.1193  0.6374
  176SAPI  H14X20098   6.226   1.201   8.262  2.2230  2.9515 -0.2961
  176SAPI  H14Y20099   6.372   1.102   8.280 -0.0414 -1.1976 -0.8721
  176SAPI  C31520100   6.197   0.980   8.214  0.0130 -0.1074  0.2342
  176SAPI  H15X20101   6.269   0.898   8.195 -0.3703 -0.7196  1.3362
  176SAPI  H15Y20102   6.117   0.979   8.137  0.4895  0.5102 -0.2778
  176SAPI  C31620103   6.127   0.947   8.352 -0.3403  0.3349 -0.5126
  176SAPI  H16X20104   6.217   0.943   8.415 -0.2900  1.3124 -0.5074
  176SAPI  H16Y20105   6.064   0.855   8.343  0.7278 -0.3127 -1.7066
  176SAPI  C31720106   6.025   1.059   8.401 -0.1044  0.6718 -0.2393
  176SAPI  H17X20107   6.078   1.156   8.393 -0.2998  1.2727  3.9000
  176SAPI  H17Y20108   6.000   1.035   8.506  0.6125 -2.3172 -0.6437
  176SAPI  C31820109   5.891   1.054   8.319 -0.3343 -0.1432 -0.0479
  176SAPI  H18X20110   5.926   1.038   8.215  0.6376  1.9218 -0.0834
  176SAPI  H18Y20111   5.845   1.155   8.316  0.5888  0.2711 -0.4835
  176SAPI  H18Z20112   5.823   0.976   8.360  1.5220 -0.5362  2.5273
  177SLPC     N20113   4.756   1.094  11.098 -0.1557 -0.2695 -0.3422
  177SLPC   C1320114   4.775   1.226  11.172  0.3481  0.4279  0.3889
  177SLPC  H13A20115   4.783   1.192  11.275  0.4943 -1.9566 -0.3327
  177SLPC  H13B20116   4.871   1.273  11.154  0.3834  0.6603  1.1324
  177SLPC  H13C20117   4.705   1.300  11.138  2.2603  0.3272 -4.5646
  177SLPC   C1420118   4.616   1.046  11.123 -0.4158  0.0944  0.3102
  177SLPC  H14A20119   4.597   1.025  11.228  1.7817 -2.9966  0.2240
  177SLPC  H14B20120   4.559   1.133  11.095  0.2049 -0.0935 -1.6859
  177SLPC  H14C20121   4.590   0.961  11.061  2.8820  0.5892 -1.9711
  177SLPC   C1520122   4.847   0.992  11.152 -0.0744  0.5249 -0.0183
  177SLPC  H15A20123   4.952   1.018  11.153 -0.0858  0.6473 -1.1140
  177SLPC  H15B20124   4.822   0.971  11.255  1.9898 -0.6133  0.2920
  177SLPC  H15C20125   4.832   0.902  11.094  2.4079 -1.0609  1.6221
  177SLPC   C1220126   4.781   1.119  10.946  0.7662 -1.0563 -0.5003
  177SLPC  H12A20127   4.882   1.158  10.935 -0.3115  1.9278 -0.6862
  177SLPC  H12B20128   4.712   1.199  10.923 -0.1680 -1.4620  0.7571
  177SLPC   C1120129   4.753   1.013  10.838 -0.0668 -0.2398 -0.5313
  177SLPC  H11A20130   4.754   1.053  10.734 -0.0149  2.4155  0.4019
  177SLPC  H11B20131   4.648   0.985  10.860 -0.1172 -0.8798 -1.5120
  177SLPC     P20132   4.971   0.888  10.793  0.3068  0.3020 -0.2797
  177SLPC   O1320133   5.052   0.988  10.860 -0.1420 -0.0315 -0.2465
  177SLPC   O1420134   5.018   0.747  10.806  0.4205 -0.6054 -0.0100
  177SLPC   O1220135   4.826   0.890  10.850  0.4660 -1.0944 -0.3485
  177SLPC   O1120136   4.950   0.936  10.651  0.6480  0.0006 -0.3679
  177SLPC    C120137   4.910   0.849  10.542 -0.4395 -0.9954  1.2448
  177SLPC    HA20138   4.839   0.774  10.583 -0.9552 -0.4546  1.3611
  177SLPC    HB20139   4.848   0.912  10.474 -1.3386 -0.5741  2.4052
  177SLPC    C220140   5.037   0.791  10.471 -0.2433  0.1329  0.1136
  177SLPC    HS20141   5.111   0.772  10.552  0.1321  0.5770 -0.1158
  177SLPC   O2120142   5.079   0.887  10.375 -0.2666  0.4341  0.8806
  177SLPC   C2120143   5.210   0.908  10.367 -0.0164 -0.1817 -0.5284
  177SLPC   O2220144   5.294   0.841  10.423 -0.0411 -0.3103  0.4463
  177SLPC   C2220145   5.250   1.026  10.271  0.6779  1.3541  0.1431
  177SLPC   H2R20146   5.211   1.120  10.314 -2.4007  0.2145  0.1428
  177SLPC   H2S20147   5.360   1.017  10.262  0.4641  0.1015 -1.8736
  177SLPC    C320148   5.022   0.652  10.402 -0.0021 -0.6477 -0.1216
  177SLPC    HX20149   4.987   0.589  10.487  0.9138 -0.9118  0.0789
  177SLPC    HY20150   5.122   0.605  10.386  0.3455 -0.7467  2.0411
  177SLPC   O3120151   4.927   0.646  10.296  0.1032 -0.2234 -0.2631
  177SLPC   C3120152   4.974   0.610  10.173  0.1801 -0.6016 -0.5971
  177SLPC   O3220153   5.091   0.592  10.143  0.4335  0.4342  0.2515
  177SLPC   C3220154   4.854   0.618  10.071  0.7141  0.3407 -0.1526
  177SLPC   H2X20155   4.816   0.721  10.053 -0.5514 -0.5749 -3.4807
  177SLPC   H2Y20156   4.771   0.557  10.113 -0.3704  1.4848 -0.5875
  177SLPC   C2320157   5.193   1.011  10.127  0.6981  0.1923  0.7724
  177SLPC   H3R20158   5.088   1.042  10.113  1.1279  1.4142  0.0344
  177SLPC   H3S20159   5.198   0.906  10.090 -1.4060  0.8926 -1.7691
  177SLPC   C2420160   5.272   1.085  10.025 -1.0962 -0.0525 -0.0555
  177SLPC   H4R20161   5.232   1.057   9.925  0.0153 -0.3316 -0.4336
  177SLPC   H4S20162   5.373   1.038  10.019 -0.1917  1.9066 -1.0898
  177SLPC   C2520163   5.272   1.240  10.036  0.7512  0.0313 -1.0604
  177SLPC   H5R20164   5.329   1.266  10.128  0.8257 -0.4120 -0.9791
  177SLPC   H5S20165   5.171   1.279  10.062  0.3968 -0.8915 -1.0108
  177SLPC   C2620166   5.319   1.319   9.916 -0.2119 -0.3122 -0.4154
  177SLPC   H6R20167   5.421   1.287   9.887  0.0801 -0.6303  0.8889
  177SLPC   H6S20168   5.331   1.423   9.951 -0.6036 -0.9475  1.7800
  177SLPC   C2720169   5.227   1.309   9.794 -0.2673  0.0807  0.1237
  177SLPC   H7R20170   5.124   1.334   9.827 -0.0979 -1.3051  1.8674
  177SLPC   H7S20171   5.219   1.200   9.773 -0.3458  0.1769 -0.3447
  177SLPC   C2820172   5.279   1.379   9.669 -0.0811 -0.6831  0.3899
  177SLPC   H8R20173   5.386   1.350   9.664  0.1887 -0.2819  2.6186
  177SLPC   H8S20174   5.276   1.488   9.695  0.3748 -0.3081 -1.0609
  177SLPC   C2920175   5.203   1.365   9.541  0.0298  0.2870 -0.1690
  177SLPC   H9R20176   5.095   1.387   9.546 -0.2588 -1.1946  0.7230
  177SLPC  C21020177   5.247   1.336   9.420  0.2873  0.4525  0.1301
  177SLPC  H10R20178   5.174   1.353   9.340 -1.1002  1.5432  1.5650
  177SLPC  C21120179   5.394   1.319   9.386  0.0359 -0.3384  0.5336
  177SLPC  H11R20180   5.440   1.409   9.432  1.5370 -1.5140  1.4557
  177SLPC  H11S20181   5.435   1.230   9.439 -2.5723 -2.8957 -1.4688
  177SLPC  C21220182   5.429   1.306   9.243 -0.0458  0.1929  0.2422
  177SLPC  H12R20183   5.393   1.207   9.213 -0.1757  0.1814  0.4332
  177SLPC  C21320184   5.505   1.388   9.163 -0.0113 -0.2766  0.8089
  177SLPC  H13R20185   5.535   1.348   9.065  1.0045  1.0162  0.5556
  177SLPC  C21420186   5.579   1.510   9.205 -0.2409 -0.3722  0.2601
  177SLPC  H14R20187   5.682   1.488   9.241 -0.0148  0.2388  0.0119
  177SLPC  H14S20188   5.529   1.552   9.295  0.3593  0.7047  0.1088
  177SLPC  C21520189   5.597   1.630   9.105  0.0655  0.3018  0.9576
  177SLPC  H15R20190   5.649   1.718   9.150  1.9072 -0.5483  0.5751
  177SLPC  H15S20191   5.502   1.672   9.068 -1.0504  0.9694  4.2338
  177SLPC  C21620192   5.685   1.595   8.981  0.8162  0.0741  0.1403
  177SLPC  H16R20193   5.643   1.655   8.897  1.3380 -0.5817 -0.5994
  177SLPC  H16S20194   5.670   1.490   8.950 -0.0153 -0.0418  0.9149
  177SLPC  C21720195   5.834   1.634   9.006 -0.1098 -0.7863  0.5906
  177SLPC  H17R20196   5.886   1.546   9.050 -0.4161 -0.1448  2.2929
  177SLPC  H17S20197   5.836   1.722   9.073  1.3439  0.2136 -0.7076
  177SLPC  C21820198   5.916   1.657   8.884 -0.6400  0.1402 -0.1623
  177SLPC  H18R20199   6.015   1.693   8.918  0.5377 -0.7515 -2.4810
  177SLPC  H18S20200   5.877   1.748   8.833  1.2322  1.1140  0.0612
  177SLPC  H18T20201   5.931   1.570   8.817  1.1939  0.1401  0.2108
  177SLPC   C3320202   4.898   0.578   9.921  0.5354  0.0581  0.6663
  177SLPC   H3X20203   4.905   0.468   9.913  0.8541 -0.0760  2.3389
  177SLPC   H3Y20204   4.999   0.623   9.909  0.8659 -1.2664 -2.1324
  177SLPC   C3420205   4.804   0.637   9.817 -0.4529  0.1698  0.4765
  177SLPC   H4X20206   4.802   0.748   9.822 -3.2643  0.1866  0.5726
  177SLPC   H4Y20207   4.705   0.586   9.812 -0.5293  0.1309  1.9950
  177SLPC   C3520208   4.861   0.606   9.682  0.2892 -0.1754 -0.1716
  177SLPC   H5X20209   4.897   0.502   9.668  1.8390  0.4042 -0.7045
  177SLPC   H5Y20210   4.954   0.666   9.672 -0.6813  1.1632 -1.7450
  177SLPC   C3620211   4.788   0.660   9.556 -0.4177  0.4018  0.4307
  177SLPC   H6X20212   4.773   0.770   9.556  0.5093  0.5662  2.3534
  177SLPC   H6Y20213   4.682   0.626   9.563 -0.1394 -1.0199 -1.4131
  177SLPC   C3720214   4.859   0.614   9.424 -0.1218  0.3385  0.2005
  177SLPC   H7X20215   4.885   0.509   9.450  1.7306  0.8304  0.4364
  177SLPC   H7Y20216   4.959   0.661   9.415 -0.4911  1.2720  0.7981
  177SLPC   C3820217   4.766   0.636   9.305 -0.1533  0.0880 -0.0650
  177SLPC   H8X20218   4.751   0.745   9.285 -1.1615  0.0556  0.4415
  177SLPC   H8Y20219   4.666   0.588   9.307 -0.2705  0.2697 -0.8774
  177SLPC   C3920220   4.851   0.595   9.176  0.6713 -0.4845 -0.6453
  177SLPC   H9X20221   4.849   0.484   9.170 -1.6871 -0.5071 -0.4142
  177SLPC   H9Y20222   4.954   0.634   9.191 -0.2580  1.3984  1.2869
  177SLPC  C31020223   4.805   0.646   9.036  0.0160 -0.3371  0.1846
  177SLPC  H10X20224   4.835   0.752   9.030  0.3530 -0.1066  3.8013
  177SLPC  H10Y20225   4.695   0.651   9.022 -0.0884 -2.2906 -0.0020
  177SLPC  C31120226   4.862   0.566   8.915  0.0469 -0.7806  0.8308
  177SLPC  H11X20227   4.859   0.628   8.823  1.1643 -0.7176  0.8237
  177SLPC  H11Y20228   4.789   0.485   8.895  0.9095 -1.2721 -0.4682
  177SLPC  C31220229   5.004   0.509   8.931  0.5038  0.3092  0.1994
  177SLPC  H12X20230   4.996   0.426   9.004 -1.8399  0.8895  0.6720
  177SLPC  H12Y20231   5.079   0.583   8.966  0.5758  0.4531 -0.2491
  177SLPC  C31320232   5.070   0.454   8.803  0.8567 -0.0419 -0.3497
  177SLPC  H13X20233   4.999   0.380   8.761  0.7382 -1.0287  1.4913
  177SLPC  H13Y20234   5.155   0.383   8.813 -0.2179 -1.1776  1.1059
  177SLPC  C31420235   5.108   0.558   8.703 -0.2562 -0.5414  0.1272
  177SLPC  H14X20236   5.169   0.640   8.748  0.1811 -0.7742 -0.0343
  177SLPC  H14Y20237   5.014   0.606   8.671 -0.4655 -0.3113  1.0411
  177SLPC  C31520238   5.196   0.498   8.587 -0.3259 -0.3080  0.0221
  177SLPC  H15X20239   5.285   0.450   8.632 -1.1592 -1.4771  0.5047
  177SLPC  H15Y20240   5.242   0.580   8.530 -0.0371 -1.0570 -0.8466
  177SLPC  C31620241   5.122   0.400   8.494 -0.1679 -0.0854 -0.2944
  177SLPC  H16X20242   5.084   0.459   8.408  0.3741 -0.9134 -1.1200
  177SLPC  H16Y20243   5.037   0.358   8.551  0.1485  0.9921  1.0014
  177SLPC  C31720244   5.212   0.288   8.432  0.4385  0.5227 -0.1034
  177SLPC  H17X20245   5.308   0.340   8.411  0.4946  0.7143  0.6117
  177SLPC  H17Y20246   5.185   0.244   8.334  0.0467 -1.6297  0.9064
  177SLPC  C31820247   5.239   0.171   8.530 -0.3021  0.4752 -0.4954
  177SLPC  H18X20248   5.146   0.122   8.565  0.5151  1.7344  4.0610
  177SLPC  H18Y20249   5.285   0.219   8.619  0.1615 -1.1567  0.1838
  177SLPC  H18Z20250   5.313   0.105   8.480 -0.9293 -0.6764  0.0567
  178SLPC     N20251   0.605   0.789  10.890  0.4834  0.4571 -0.3325
  178SLPC   C1320252   0.759   0.766  10.897 -0.2750  0.1363 -0.0136
  178SLPC  H13A20253   0.803   0.841  10.834 -0.7267 -0.7518 -1.4295
  178SLPC  H13B20254   0.791   0.776  11.000  0.8964 -1.0700 -0.2451
  178SLPC  H13C20255   0.784   0.667  10.861 -2.4374 -1.6353  2.9314
  178SLPC   C1420256   0.564   0.922  10.952 -0.2460  0.6162  0.0777
  178SLPC  H14A20257   0.458   0.925  10.971 -0.6219  1.0908 -1.8790
  178SLPC  H14B20258   0.630   0.949  11.033  0.3289  1.3142 -0.6084
  178SLPC  H14C20259   0.598   0.995  10.881  3.8737 -1.2449 -0.1404
  178SLPC   C1520260   0.546   0.671  10.967 -0.1008 -0.1027 -0.2017
  178SLPC  H15A20261   0.598   0.687  11.061 -0.7823 -1.1358  0.3622
  178SLPC  H15B20262   0.440   0.679  10.985 -0.0888 -1.1257  0.4252
  178SLPC  H15C20263   0.573   0.573  10.930  1.0896  0.2364 -0.2917
  178SLPC   C1220264   0.562   0.774  10.746  0.5050  0.0170  0.4595
  178SLPC  H12A20265   0.454   0.774  10.749  0.4621  0.8717  4.1752
  178SLPC  H12B20266   0.598   0.677  10.716  1.3100  0.2849  0.5136
  178SLPC   C1120267   0.619   0.893  10.655  0.6661 -0.1291  0.5544
  178SLPC  H11A20268   0.605   0.871  10.547  0.5140  0.1196  0.5221
  178SLPC  H11B20269   0.727   0.889  10.678  0.5181 -0.2360  1.2615
  178SLPC     P20270   0.598   1.147  10.616 -0.2164 -0.2656 -0.2935
  178SLPC   O1320271   0.503   1.255  10.662  0.1604  0.0588  0.5301
  178SLPC   O1420272   0.743   1.164  10.646  0.2242 -0.8726  0.3213
  178SLPC   O1220273   0.560   1.018  10.699 -0.7637 -0.7736  0.0978
  178SLPC   O1120274   0.576   1.121  10.466 -0.2817 -0.0882  0.1259
  178SLPC    C120275   0.451   1.074  10.422  0.6242  0.7934  0.2758
  178SLPC    HA20276   0.462   0.984  10.358 -2.5741  0.9329 -0.6474
  178SLPC    HB20277   0.382   1.036  10.500 -0.1865 -0.6795 -1.1050
  178SLPC    C220278   0.364   1.177  10.339 -0.1773 -0.0371 -0.0525
  178SLPC    HS20279   0.264   1.131  10.353  0.4397 -1.4641 -0.1730
  178SLPC   O2120280   0.397   1.170  10.204  0.0313  0.1546  0.2982
  178SLPC   C2120281   0.373   1.061  10.138 -0.7531 -0.3176  1.3278
  178SLPC   O2220282   0.294   0.971  10.161  0.1398 -0.3654 -0.2156
  178SLPC   C2220283   0.455   1.057  10.002  0.5110 -0.1036 -0.1869
  178SLPC   H2R20284   0.450   1.158   9.957 -0.3661 -0.1789 -0.2862
  178SLPC   H2S20285   0.561   1.045  10.032  0.6512  1.3392 -0.0246
  178SLPC    C320286   0.359   1.323  10.393  0.6486  0.2223  0.2975
  178SLPC    HX20287   0.459   1.371  10.384  0.2361  1.0710  0.1970
  178SLPC    HY20288   0.343   1.314  10.503  1.1816 -0.6043  0.3171
  178SLPC   O3120289   0.248   1.397  10.335 -0.0851  0.7483 -0.4357
  178SLPC   C3120290   0.275   1.501  10.273  0.8260  0.0464 -0.2767
  178SLPC   O3220291   0.382   1.537  10.232 -0.4594  0.1509  0.3367
  178SLPC   C3220292   0.137   1.575  10.262 -0.1629 -0.3493  0.1221
  178SLPC   H2X20293   0.115   1.632  10.354  0.2073 -0.4021  0.2440
  178SLPC   H2Y20294   0.057   1.500  10.242  1.0913 -1.5996 -0.3244
  178SLPC   C2320295   0.417   0.938   9.918 -0.6000 -0.0589 -0.2793
  178SLPC   H3R20296   0.306   0.937   9.914 -0.5934  0.7827 -0.9368
  178SLPC   H3S20297   0.458   0.844   9.960  0.7201  0.3418 -0.6095
  178SLPC   C2420298   0.478   0.959   9.778 -0.1773 -0.4342  0.2679
  178SLPC   H4R20299   0.587   0.938   9.777 -0.4094 -1.7494 -0.8207
  178SLPC   H4S20300   0.464   1.064   9.745 -2.2371 -1.0307 -0.9517
  178SLPC   C2520301   0.413   0.866   9.674  0.9416 -0.5813  0.4327
  178SLPC   H5R20302   0.305   0.891   9.675  1.4283  1.7914  1.2860
  178SLPC   H5S20303   0.423   0.764   9.715 -0.5765 -0.4498  1.1767
  178SLPC   C2620304   0.462   0.852   9.533 -0.7397  0.5134 -0.2707
  178SLPC   H6R20305   0.558   0.799   9.548  0.3140  2.6144  0.8398
  178SLPC   H6S20306   0.489   0.950   9.488 -1.1786 -0.6595 -3.3751
  178SLPC   C2720307   0.361   0.780   9.443 -0.1823 -0.2715  0.4622
  178SLPC   H7R20308   0.274   0.850   9.440 -0.0688 -0.0442  1.6740
  178SLPC   H7S20309   0.306   0.692   9.481  1.4795 -1.8782 -0.7328
  178SLPC   C2820310   0.410   0.755   9.304 -0.4863 -0.3148  0.3060
  178SLPC   H8R20311   0.325   0.709   9.249 -0.4590 -0.2804  0.2350
  178SLPC   H8S20312   0.489   0.676   9.308 -1.2726 -1.2124 -1.1394
  178SLPC   C2920313   0.448   0.876   9.224 -0.5469 -0.0575  0.4790
  178SLPC   H9R20314   0.364   0.931   9.180  0.1155  1.8758  1.5248
  178SLPC  C21020315   0.573   0.923   9.198 -0.4695 -0.6017 -0.9855
  178SLPC  H10R20316   0.591   1.010   9.134  1.5556  0.2638  0.6724
  178SLPC  C21120317   0.699   0.869   9.248  0.1800 -0.2402 -0.1399
  178SLPC  H11R20318   0.732   0.796   9.171  0.7626  1.2052 -1.3091
  178SLPC  H11S20319   0.673   0.816   9.342 -1.6733  1.6524  0.4999
  178SLPC  C21220320   0.808   0.972   9.263 -0.0939  1.0944  0.3003
  178SLPC  H12R20321   0.844   1.019   9.170  0.8820 -0.3849 -0.1035
  178SLPC  C21320322   0.861   1.015   9.379 -0.0973 -0.0369 -0.3835
  178SLPC  H13R20323   0.936   1.095   9.379 -0.3546  0.3202  2.3599
  178SLPC  C21420324   0.828   0.965   9.520  0.6672 -0.0378  0.6172
  178SLPC  H14R20325   0.780   0.865   9.533  2.8548 -1.0233  1.5036
  178SLPC  H14S20326   0.764   1.041   9.570 -0.2365  0.7735 -1.6061
  178SLPC  C21520327   0.961   0.950   9.592 -0.0213 -0.2965 -0.3923
  178SLPC  H15R20328   1.029   1.038   9.587 -1.1448  0.6700  0.6993
  178SLPC  H15S20329   1.020   0.860   9.564 -0.8947 -0.9789 -0.0864
  178SLPC  C21620330   0.933   0.933   9.742  0.4978  0.1793  0.2273
  178SLPC  H16R20331   0.850   0.859   9.751 -0.6074  1.5555  2.1636
  178SLPC  H16S20332   0.890   1.029   9.776  0.4466  0.0325  0.5890
  178SLPC  C21720333   1.055   0.890   9.822 -0.1672  0.0159 -0.1857
  178SLPC  H17R20334   1.137   0.961   9.799 -1.0544  1.0647 -0.2073
  178SLPC  H17S20335   1.082   0.786   9.796  0.3058  0.6059 -2.2943
  178SLPC  C21820336   1.038   0.885   9.969 -0.9695 -0.1403 -0.0185
  178SLPC  H18R20337   1.113   0.833  10.034  0.3202  0.9839 -0.5444
  178SLPC  H18S20338   0.939   0.839   9.986 -1.2906  0.5550  0.0205
  178SLPC  H18T20339   1.026   0.984  10.018  0.1652 -0.3580  0.7413
  178SLPC   C3320340   0.137   1.678  10.148  0.3929 -0.4199 -0.1153
  178SLPC   H3X20341   0.214   1.755  10.167 -0.8138  0.2653  2.3171
  178SLPC   H3Y20342   0.043   1.736  10.144  1.6747  2.1190  2.8693
  178SLPC   C3420343   0.158   1.633  10.002 -0.8439 -0.5656 -0.0041
  178SLPC   H4X20344   0.100   1.539   9.983 -0.8344 -0.9598  1.7799
  178SLPC   H4Y20345   0.266   1.612   9.987 -0.0331  3.4519 -0.8017
  178SLPC   C3520346   0.117   1.745   9.896  0.1525 -0.1588 -0.1900
  178SLPC   H5X20347   0.150   1.847   9.926 -1.5936  0.5236 -0.4272
  178SLPC   H5Y20348   0.006   1.751   9.895  0.1029 -0.6944  0.6425
  178SLPC   C3620349   0.175   1.727   9.756  0.2791 -0.0331  0.0344
  178SLPC   H6X20350   0.114   1.656   9.696 -0.7098  0.2625  0.6561
  178SLPC   H6Y20351   0.279   1.688   9.762  0.0463 -0.5948  0.5290
  178SLPC   C3720352   0.188   1.863   9.679 -0.1377 -0.1237 -0.9179
  178SLPC   H7X20353   0.266   1.932   9.719  0.6210 -2.0438  1.1176
  178SLPC   H7Y20354   0.090   1.914   9.692  0.9715  1.3096  5.1719
  178SLPC   C3820355   0.217   1.861   9.527 -0.0670  0.0864 -0.5910
  178SLPC   H8X20356   0.327   1.855   9.517 -0.2899 -2.6563 -2.4605
  178SLPC   H8Y20357   0.174   1.953   9.480  3.3668  1.6033 -1.0470
  178SLPC   C3920358   0.151   1.739   9.452  0.1741  0.1867  0.5404
  178SLPC   H9X20359   0.042   1.730   9.469 -0.3032  0.2878 -2.0776
  178SLPC   H9Y20360   0.207   1.648   9.482  1.4584  0.2058 -1.6232
  178SLPC  C31020361   0.174   1.751   9.303 -0.0780 -0.1817 -0.0542
  178SLPC  H10X20362   0.283   1.754   9.286 -0.0822  1.0044  0.0416
  178SLPC  H10Y20363   0.123   1.846   9.274  1.1718 -0.0308 -1.8995
  178SLPC  C31120364   0.122   1.632   9.229  0.1628  0.3113  0.3499
  178SLPC  H11X20365   0.012   1.628   9.244  0.5239 -1.2105  3.4913
  178SLPC  H11Y20366   0.163   1.536   9.269 -0.3833 -0.7411 -1.4864
  178SLPC  C31220367   0.159   1.643   9.082 -0.3687  0.8076 -0.3399
  178SLPC  H12X20368   0.267   1.620   9.068 -0.2761  0.9429  0.1428
  178SLPC  H12Y20369   0.135   1.744   9.044  1.3014  0.5467 -2.2697
  178SLPC  C31320370   0.080   1.551   8.987  0.0971 -0.3280  0.5075
  178SLPC  H13X20371  -0.028   1.564   9.009  0.0050  1.6860 -0.9510
  178SLPC  H13Y20372   0.106   1.443   8.999  0.2342 -0.1905  1.5019
  178SLPC  C31420373   0.125   1.581   8.845 -0.1146  1.0216  0.1245
  178SLPC  H14X20374   0.101   1.489   8.788  1.8500 -1.1711  2.6291
  178SLPC  H14Y20375   0.233   1.604   8.847  0.5566 -1.8015  0.2625
  178SLPC  C31520376   0.054   1.701   8.783  0.4981 -0.3211  0.5280
  178SLPC  H15X20377   0.036   1.786   8.852 -0.2430  1.7442 -2.0485
  178SLPC  H15Y20378   0.112   1.720   8.690 -2.7199 -4.6119 -2.7899
  178SLPC  C31620379  -0.083   1.660   8.724  0.8106  0.7254 -0.1563
  178SLPC  H16X20380  -0.140   1.622   8.811  2.4367 -1.8059 -0.0923
  178SLPC  H16Y20381  -0.070   1.576   8.652 -0.8474  1.6803 -1.6491
  178SLPC  C31720382  -0.153   1.773   8.648 -0.1951  0.6657 -0.2023
  178SLPC  H17X20383  -0.098   1.812   8.560  0.8852  0.4018  0.3479
  178SLPC  H17Y20384  -0.148   1.864   8.711  1.0646  0.7732 -0.4337
  178SLPC  C31820385  -0.298   1.741   8.607 -0.2423  0.2119  0.2703
  178SLPC  H18X20386  -0.348   1.835   8.574  0.6238  0.7877  0.5748
  178SLPC  H18Y20387  -0.364   1.694   8.683 -1.1180  0.2997 -0.4055
  178SLPC  H18Z20388  -0.299   1.681   8.513 -2.0004  0.1761  0.2760
  179SLPC     N20389   3.587   6.309  10.357  0.2886  0.5481  0.6624
  179SLPC   C1320390   3.488   6.360  10.450  0.0312  0.0297 -0.5139
  179SLPC  H13A20391   3.521   6.337  10.551 -0.1623 -0.3455 -0.5349
  179SLPC  H13B20392   3.487   6.468  10.446  0.9791  0.0562 -0.2142
  179SLPC  H13C20393   3.388   6.319  10.445 -0.4713  0.9712  0.9987
  179SLPC   C1420394   3.708   6.395  10.380  0.4389  0.0605  0.2370
  179SLPC  H14A20395   3.683   6.498  10.365 -2.3897 -0.7588 -1.3599
  179SLPC  H14B20396   3.742   6.375  10.481  0.8008  1.3607  0.3857
  179SLPC  H14C20397   3.789   6.376  10.310  0.9258  1.1370  0.4850
  179SLPC   C1520398   3.537   6.333  10.216 -0.1516  0.7721 -0.3404
  179SLPC  H15A20399   3.607   6.308  10.137 -1.8683 -2.5890 -1.0146
  179SLPC  H15B20400   3.449   6.271  10.203  0.5042 -0.4700  0.8502
  179SLPC  H15C20401   3.503   6.432  10.190 -0.7258  0.4757 -0.7495
  179SLPC   C1220402   3.620   6.161  10.374  0.1730  0.4500  0.2693
  179SLPC  H12A20403   3.526   6.107  10.384  0.8371 -1.1774 -1.5785
  179SLPC  H12B20404   3.658   6.139  10.473 -1.5994  0.0733  0.8989
  179SLPC   C1120405   3.717   6.097  10.274  0.7632  0.4440 -0.4359
  179SLPC  H11A20406   3.808   6.162  10.271  0.2747  1.6094  3.9143
  179SLPC  H11B20407   3.673   6.099  10.172  1.8254 -1.4440 -0.9724
  179SLPC     P20408   3.644   5.844  10.289 -0.0187 -0.2237  0.4191
  179SLPC   O1320409   3.682   5.785  10.162 -0.1079  0.8807  1.0918
  179SLPC   O1420410   3.639   5.760  10.410  0.3361 -0.9750  0.4064
  179SLPC   O1220411   3.752   5.962  10.318 -0.4358 -1.1417  0.0875
  179SLPC   O1120412   3.512   5.931  10.279  0.0173 -0.0949  0.6069
  179SLPC    C120413   3.388   5.879  10.315  0.0881  0.0464 -0.2361
  179SLPC    HA20414   3.388   5.839  10.418  0.6913  1.9170  0.5370
  179SLPC    HB20415   3.321   5.968  10.318 -1.1573 -0.8902  1.6515
  179SLPC    C220416   3.331   5.782  10.209 -0.5423  0.3769  0.2019
  179SLPC    HS20417   3.391   5.692  10.235 -1.0275 -0.3160 -1.0055
  179SLPC   O2120418   3.350   5.827  10.076 -0.2343 -0.0674  0.3485
  179SLPC   C2120419   3.373   5.731   9.983 -0.1501 -0.3332 -0.2764
  179SLPC   O2220420   3.400   5.615  10.008  0.3980  0.3917  0.0688
  179SLPC   C2220421   3.350   5.796   9.847 -0.9190 -0.0770  0.3729
  179SLPC   H2R20422   3.266   5.868   9.848  1.0789  2.3989 -0.0483
  179SLPC   H2S20423   3.439   5.862   9.845 -0.5781 -0.3395  3.0410
  179SLPC    C320424   3.176   5.752  10.235 -0.4552  0.3023  0.3308
  179SLPC    HX20425   3.116   5.846  10.239 -1.5623 -0.4300  1.6318
  179SLPC    HY20426   3.169   5.712  10.338  0.6586 -2.3043 -0.5376
  179SLPC   O3120427   3.122   5.667  10.137  0.0158  0.3949 -0.7332
  179SLPC   C3120428   3.133   5.542  10.175  0.1665 -0.2558  0.3873
  179SLPC   O3220429   3.196   5.498  10.262 -0.1799  0.3961 -0.8079
  179SLPC   C3220430   3.076   5.457  10.062  0.1031  0.7399  0.3330
  179SLPC   H2X20431   3.091   5.347  10.067 -0.1919  0.7644  2.3894
  179SLPC   H2Y20432   3.128   5.497   9.972  0.0092 -0.3252 -0.2127
  179SLPC   C2320433   3.353   5.689   9.736  0.3803 -0.6405  0.2365
  179SLPC   H3R20434   3.261   5.628   9.751 -0.2599  0.5621  1.3960
  179SLPC   H3S20435   3.443   5.623   9.740  0.0978 -1.1549 -1.4110
  179SLPC   C2420436   3.366   5.766   9.607 -0.1803  0.0626  0.8456
  179SLPC   H4R20437   3.383   5.691   9.527  0.2523 -0.2647  1.2350
  179SLPC   H4S20438   3.445   5.844   9.616 -1.1603  1.1710  0.0834
  179SLPC   C2520439   3.233   5.836   9.565  0.2440  0.0133 -0.5440
  179SLPC   H5R20440   3.194   5.898   9.648 -0.3028 -1.3254  0.2325
  179SLPC   H5S20441   3.154   5.759   9.553 -1.7845  1.8015  0.5959
  179SLPC   C2620442   3.247   5.904   9.429 -1.0920  0.3053 -0.2408
  179SLPC   H6R20443   3.344   5.958   9.421 -1.6837  1.5292  0.5938
  179SLPC   H6S20444   3.165   5.974   9.403 -0.8282  0.8112  0.2666
  179SLPC   C2720445   3.261   5.797   9.315  0.4605 -0.0965  0.3107
  179SLPC   H7R20446   3.165   5.742   9.316  0.9342 -0.9546  1.8061
  179SLPC   H7S20447   3.354   5.736   9.323  0.3142 -0.3513  0.0641
  179SLPC   C2820448   3.298   5.865   9.176 -0.4704  0.3064  0.0934
  179SLPC   H8R20449   3.405   5.896   9.174 -0.1350 -0.7795  0.2191
  179SLPC   H8S20450   3.228   5.951   9.179 -2.1480 -0.9769 -0.4567
  179SLPC   C2920451   3.256   5.762   9.075  0.0718 -0.1587 -0.1089
  179SLPC   H9R20452   3.298   5.663   9.096  1.0852  0.4893  1.1375
  179SLPC  C21020453   3.166   5.787   8.977 -0.1098 -0.0626 -0.1216
  179SLPC  H10R20454   3.128   5.703   8.918 -0.5180 -0.6058  0.8952
  179SLPC  C21120455   3.105   5.924   8.940 -0.0197  0.1983 -1.0844
  179SLPC  H11R20456   3.185   5.995   8.908  1.3781 -1.4500 -1.3979
  179SLPC  H11S20457   3.064   5.971   9.032  0.3570  0.8530 -1.2383
  179SLPC  C21220458   3.012   5.941   8.824  0.2387  0.5984 -0.1639
  179SLPC  H12R20459   2.907   5.952   8.854 -1.1398 -2.2319 -3.3089
  179SLPC  C21320460   3.046   5.952   8.692 -0.5756 -0.3703 -0.0849
  179SLPC  H13R20461   2.974   5.969   8.610  0.5953 -2.2426 -1.5890
  179SLPC  C21420462   3.191   5.963   8.645 -0.2941  0.0090 -0.6621
  179SLPC  H14R20463   3.196   5.897   8.555 -2.5124 -1.4873  0.2263
  179SLPC  H14S20464   3.264   5.924   8.718 -1.0826  0.6462  0.5025
  179SLPC  C21520465   3.238   6.103   8.602  0.2833  0.2120  1.2104
  179SLPC  H15R20466   3.235   6.161   8.697  0.5103 -0.5696  1.6999
  179SLPC  H15S20467   3.166   6.150   8.531  0.5982 -1.3348 -0.1822
  179SLPC  C21620468   3.379   6.107   8.539  0.3210  0.3590 -0.3914
  179SLPC  H16R20469   3.376   6.009   8.486 -2.3273 -0.3355  0.9101
  179SLPC  H16S20470   3.453   6.083   8.618 -2.5824 -1.8261  1.9044
  179SLPC  C21720471   3.424   6.222   8.450  1.6417  0.6991  0.0347
  179SLPC  H17R20472   3.434   6.305   8.523  1.7950 -0.2293  1.0879
  179SLPC  H17S20473   3.355   6.253   8.369  1.9142  1.2983  0.0315
  179SLPC  C21820474   3.559   6.193   8.387 -0.2658 -0.2510 -0.0591
  179SLPC  H18R20475   3.633   6.151   8.459 -0.5541 -0.2375  0.2445
  179SLPC  H18S20476   3.596   6.284   8.334 -1.4373 -0.1510 -0.7428
  179SLPC  H18T20477   3.545   6.126   8.300  0.7260  1.5908 -1.7337
  179SLPC   C3320478   2.924   5.473  10.047  0.2239 -0.0096 -0.0745
  179SLPC   H3X20479   2.905   5.583  10.044  2.3162  0.4116  0.0408
  179SLPC   H3Y20480   2.883   5.437  10.144 -0.8241 -0.5183 -0.6986
  179SLPC   C3420481   2.857   5.407   9.932  0.7912 -0.1243  0.1917
  179SLPC   H4X20482   2.749   5.435   9.934  0.7260  0.5594 -3.9013
  179SLPC   H4Y20483   2.864   5.297   9.948 -0.9868 -0.8510 -3.0719
  179SLPC   C3520484   2.916   5.432   9.793  0.4938 -1.1860 -0.3384
  179SLPC   H5X20485   3.017   5.386   9.794  1.0065 -0.0828 -0.2972
  179SLPC   H5Y20486   2.912   5.542   9.781 -1.3589 -1.4314 -2.5136
  179SLPC   C3620487   2.841   5.361   9.672 -0.2086 -0.1372  0.0981
  179SLPC   H6X20488   2.743   5.413   9.675 -0.7446 -0.9125 -2.1480
  179SLPC   H6Y20489   2.817   5.256   9.697 -0.5033  0.1718  1.1760
  179SLPC   C3720490   2.914   5.359   9.533  0.1651 -0.1663 -0.1282
  179SLPC   H7X20491   2.855   5.293   9.466 -1.2306 -1.2446  2.0445
  179SLPC   H7Y20492   3.010   5.303   9.543  1.7544  1.8402 -2.7162
  179SLPC   C3820493   2.912   5.491   9.459  0.2752  0.1732 -0.2042
  179SLPC   H8X20494   2.942   5.580   9.519  1.1877  0.2147 -0.6981
  179SLPC   H8Y20495   2.810   5.498   9.416 -0.0849 -1.0342  0.4386
  179SLPC   C3920496   3.009   5.495   9.333  0.0781 -0.1644 -0.1611
  179SLPC   H9X20497   3.108   5.509   9.382  1.5242  0.3849 -3.0720
  179SLPC   H9Y20498   2.995   5.587   9.273 -0.1582 -0.3549 -0.4034
  179SLPC  C31020499   2.994   5.373   9.248 -0.7026  0.4264 -0.1014
  179SLPC  H10X20500   2.974   5.280   9.307 -1.5909  1.5592  1.4602
  179SLPC  H10Y20501   3.090   5.345   9.200 -0.1497 -0.4629  1.4354
  179SLPC  C31120502   2.896   5.386   9.135 -0.2991  0.2500 -0.2146
  179SLPC  H11X20503   2.799   5.433   9.163 -0.8849 -1.4807  0.8382
  179SLPC  H11Y20504   2.857   5.284   9.117  0.5710 -0.0739 -0.3371
  179SLPC  C31220505   2.938   5.464   9.009 -0.2319  0.2681  0.3531
  179SLPC  H12X20506   3.032   5.422   8.966  0.5624  1.7003  0.6147
  179SLPC  H12Y20507   2.951   5.571   9.036 -2.1025  0.7989 -0.6805
  179SLPC  C31320508   2.839   5.458   8.888 -0.1677  0.5597  1.0052
  179SLPC  H13X20509   2.740   5.496   8.923 -0.7695 -0.4121  0.3840
  179SLPC  H13Y20510   2.819   5.354   8.855  1.7246  0.3305  0.5059
  179SLPC  C31420511   2.893   5.542   8.775 -0.7818 -0.2867 -0.4700
  179SLPC  H14X20512   2.987   5.506   8.728  0.3578  1.8421  0.0589
  179SLPC  H14Y20513   2.916   5.646   8.808 -1.2180  0.6825 -2.9519
  179SLPC  C31520514   2.799   5.581   8.654  0.6170 -0.0395  0.2196
  179SLPC  H15X20515   2.698   5.617   8.683  0.1137 -2.2733  1.5594
  179SLPC  H15Y20516   2.788   5.484   8.601  0.1834  0.6100 -0.9058
  179SLPC  C31620517   2.852   5.683   8.553 -0.5107  0.3241 -0.0936
  179SLPC  H16X20518   2.956   5.653   8.529 -1.4260 -2.4377 -0.9703
  179SLPC  H16Y20519   2.857   5.780   8.607  1.1405  0.3714 -0.2736
  179SLPC  C31720520   2.779   5.692   8.421  0.5047  0.4496  0.7996
  179SLPC  H17X20521   2.670   5.713   8.420  0.5794  0.8394 -0.3737
  179SLPC  H17Y20522   2.798   5.592   8.377  1.8123  0.9717  0.1230
  179SLPC  C31820523   2.836   5.793   8.326 -0.2702  0.2746  0.2120
  179SLPC  H18X20524   2.792   5.792   8.224 -0.9509  0.2440  0.4972
  179SLPC  H18Y20525   2.945   5.772   8.315 -0.2983 -1.2478  2.1708
  179SLPC  H18Z20526   2.827   5.899   8.359 -1.5540  0.2207  0.0938
  180SLPC     N20527   2.989   2.269  10.876  0.4987  0.1705  0.0763
  180SLPC   C1320528   3.004   2.411  10.919  0.1457  0.2181  0.1541
  180SLPC  H13A20529   3.076   2.462  10.856  1.1822 -0.7524  0.5323
  180SLPC  H13B20530   2.911   2.465  10.906  0.7950  1.3998  0.2341
  180SLPC  H13C20531   3.035   2.414  11.022  1.8335 -0.9400 -0.2925
  180SLPC   C1420532   2.895   2.212  10.981 -0.6332  0.4238 -0.2694
  180SLPC  H14A20533   2.945   2.211  11.077 -1.1396  2.0785  0.0538
  180SLPC  H14B20534   2.802   2.265  10.993 -0.3244  0.6662  1.2528
  180SLPC  H14C20535   2.868   2.109  10.969  1.3907 -0.0916 -0.8882
  180SLPC   C1520536   3.127   2.207  10.882 -0.2332 -0.3744  0.2473
  180SLPC  H15A20537   3.188   2.254  10.805 -1.0803  1.7812  0.8106
  180SLPC  H15B20538   3.162   2.237  10.979 -1.8355  2.9584 -0.0413
  180SLPC  H15C20539   3.114   2.100  10.882  0.5122 -0.5728  3.6442
  180SLPC   C1220540   2.920   2.242  10.746 -0.5565 -0.2215 -0.1055
  180SLPC  H12A20541   2.820   2.280  10.753 -0.2126  0.9344 -1.2094
  180SLPC  H12B20542   2.919   2.134  10.738  0.5217 -0.3087  0.6100
  180SLPC   C1120543   2.971   2.303  10.618 -0.8154 -0.3883  0.1531
  180SLPC  H11A20544   2.914   2.265  10.530  3.2617 -3.2033 -1.5848
  180SLPC  H11B20545   3.072   2.262  10.599 -0.8219 -0.9597  1.2856
  180SLPC     P20546   2.837   2.527  10.610  0.0785 -0.0855 -0.3758
  180SLPC   O1320547   2.720   2.450  10.660 -0.0357 -0.9836  0.2874
  180SLPC   O1420548   2.857   2.661  10.667  0.5178 -0.8215  0.0786
  180SLPC   O1220549   2.977   2.447  10.620 -0.5712  0.4479 -0.2877
  180SLPC   O1120550   2.818   2.536  10.454  0.7812  0.3550  0.1860
  180SLPC    C120551   2.928   2.583  10.381  0.0150  0.4064  0.1072
  180SLPC    HA20552   2.903   2.687  10.349 -2.5731 -0.0121  0.5928
  180SLPC    HB20553   3.027   2.565  10.428  0.6271 -0.5136 -1.4685
  180SLPC    C220554   2.931   2.508  10.245  0.3218  0.0046 -0.6917
  180SLPC    HS20555   2.995   2.577  10.187 -1.2184  2.0328 -0.1039
  180SLPC   O2120556   2.795   2.489  10.195 -0.0178 -0.3297  0.1431
  180SLPC   C2120557   2.753   2.567  10.100  0.0601  0.0855 -0.0343
  180SLPC   O2220558   2.821   2.664  10.056 -0.0283  0.2204 -0.3139
  180SLPC   C2220559   2.614   2.521  10.036 -0.6393 -0.7553  0.4390
  180SLPC   H2R20560   2.621   2.413  10.008  2.3502 -0.9775  1.6924
  180SLPC   H2S20561   2.549   2.524  10.126 -2.9145  1.9877 -1.1203
  180SLPC    C320562   2.999   2.372  10.250  0.2521 -0.0275 -0.0062
  180SLPC    HX20563   2.942   2.296  10.308  0.9198 -1.5508 -1.2961
  180SLPC    HY20564   3.096   2.393  10.300 -0.2390  2.4627  0.0298
  180SLPC   O3120565   3.028   2.331  10.116 -0.0884  0.9194 -0.0996
  180SLPC   C3120566   2.951   2.237  10.064 -1.0101 -0.4038  0.2561
  180SLPC   O3220567   2.860   2.178  10.117 -0.2487 -0.8723  0.0209
  180SLPC   C3220568   2.995   2.210   9.918 -0.6797 -0.2697 -0.0201
  180SLPC   H2X20569   3.106   2.205   9.918 -0.4954  1.0445  3.2809
  180SLPC   H2Y20570   2.975   2.300   9.855  0.0938 -0.6627 -0.8525
  180SLPC   C2320571   2.544   2.604   9.924  0.3393  0.4117 -0.0812
  180SLPC   H3R20572   2.536   2.713   9.947 -2.3374  0.0515  0.9611
  180SLPC   H3S20573   2.441   2.569   9.906  1.5573 -2.9392 -1.2745
  180SLPC   C2420574   2.606   2.591   9.783 -0.2866 -0.7038  0.2287
  180SLPC   H4R20575   2.644   2.487   9.771  1.0873 -0.0579 -1.2426
  180SLPC   H4S20576   2.697   2.654   9.782 -1.0980  0.6456  2.5560
  180SLPC   C2520577   2.512   2.632   9.669  0.4970  0.1760 -0.8189
  180SLPC   H5R20578   2.486   2.738   9.689  0.5266  0.3459 -1.6590
  180SLPC   H5S20579   2.420   2.569   9.669  0.5334  0.0854  0.5093
  180SLPC   C2620580   2.580   2.609   9.533  0.5535 -0.6814 -0.4314
  180SLPC   H6R20581   2.599   2.503   9.504 -1.3725 -1.4124  0.8089
  180SLPC   H6S20582   2.686   2.644   9.541 -0.5033  2.8961 -0.5379
  180SLPC   C2720583   2.514   2.687   9.421  0.3510  0.3264  0.4010
  180SLPC   H7R20584   2.496   2.789   9.462 -0.9722  1.0790 -1.8453
  180SLPC   H7S20585   2.416   2.641   9.397  1.6568 -2.1432 -0.5096
  180SLPC   C2820586   2.596   2.705   9.293 -0.3346  0.2800  0.2753
  180SLPC   H8R20587   2.620   2.607   9.247  0.0236  0.2497  0.5191
  180SLPC   H8S20588   2.696   2.749   9.316  0.6168 -0.9275 -1.3557
  180SLPC   C2920589   2.531   2.802   9.200  0.2801 -0.9400 -0.1184
  180SLPC   H9R20590   2.476   2.880   9.255 -0.2225 -0.9902 -0.5457
  180SLPC  C21020591   2.526   2.793   9.063  0.3170  0.9288  0.5415
  180SLPC  H10R20592   2.481   2.871   8.998 -0.0838  0.4436  0.2278
  180SLPC  C21120593   2.587   2.685   8.978 -0.4851 -0.0655  0.5117
  180SLPC  H11R20594   2.608   2.722   8.876  2.7268 -0.7440  0.8043
  180SLPC  H11S20595   2.515   2.601   8.969 -0.0341 -0.2725 -1.6627
  180SLPC  C21220596   2.722   2.627   9.023 -0.3677 -0.3404  0.5495
  180SLPC  H12R20597   2.793   2.701   9.063 -1.7726  0.9489  0.7705
  180SLPC  C21320598   2.755   2.495   9.014 -0.4614 -0.6330 -0.3811
  180SLPC  H13R20599   2.859   2.467   9.037  0.6168  3.1227  0.1406
  180SLPC  C21420600   2.665   2.384   8.979 -0.2170 -0.2903  0.3792
  180SLPC  H14R20601   2.730   2.321   8.914 -0.6034 -0.0302 -0.2699
  180SLPC  H14S20602   2.579   2.424   8.921  1.1712 -1.3068 -2.5997
  180SLPC  C21520603   2.610   2.296   9.094 -0.4821  1.3698  0.0778
  180SLPC  H15R20604   2.583   2.203   9.041 -0.4444  1.4487 -0.0809
  180SLPC  H15S20605   2.527   2.349   9.147 -0.4175  1.3704  0.1787
  180SLPC  C21620606   2.711   2.262   9.212  0.0744  0.0723 -0.2658
  180SLPC  H16R20607   2.748   2.357   9.256  0.3673 -0.9385  1.7738
  180SLPC  H16S20608   2.805   2.219   9.172 -0.2417  0.4485 -1.4530
  180SLPC  C21720609   2.650   2.183   9.326  0.1327 -0.0593 -0.3125
  180SLPC  H17R20610   2.659   2.082   9.282 -0.0346 -1.0198  1.7534
  180SLPC  H17S20611   2.543   2.198   9.350  0.1537  0.7137 -0.6659
  180SLPC  C21820612   2.747   2.181   9.445  0.1472  0.7066 -0.2065
  180SLPC  H18R20613   2.851   2.172   9.409 -0.4985 -0.6705 -1.8673
  180SLPC  H18S20614   2.715   2.107   9.522 -0.5015  0.3059 -0.8520
  180SLPC  H18T20615   2.741   2.278   9.498 -1.1573  0.2505  0.5310
  180SLPC   C3320616   2.924   2.079   9.859  0.9835 -0.4653  0.1129
  180SLPC   H3X20617   2.817   2.109   9.865  0.7582 -1.0290 -0.7981
  180SLPC   H3Y20618   2.950   1.986   9.915  2.2163 -1.0771 -1.3835
  180SLPC   C3420619   2.963   2.058   9.715 -0.2014 -0.4241  0.4767
  180SLPC   H4X20620   2.959   2.153   9.658 -2.8701 -0.4701  0.4347
  180SLPC   H4Y20621   2.905   1.980   9.662  1.4945 -1.3324 -0.1182
  180SLPC   C3520622   3.112   2.021   9.702  0.6159 -0.1000 -0.0691
  180SLPC   H5X20623   3.136   1.941   9.775 -0.9323 -2.4578 -1.9864
  180SLPC   H5Y20624   3.170   2.110   9.735 -1.4354  1.7348 -1.1618
  180SLPC   C3620625   3.151   1.979   9.563  0.2783 -0.0250 -0.1371
  180SLPC   H6X20626   3.095   2.024   9.478  2.8769 -0.6374 -2.2763
  180SLPC   H6Y20627   3.118   1.874   9.552  1.2615 -0.3174 -0.3580
  180SLPC   C3720628   3.296   1.989   9.529 -0.3709 -0.0894  0.2371
  180SLPC   H7X20629   3.353   1.919   9.594 -0.4813  1.2053  1.7785
  180SLPC   H7Y20630   3.329   2.086   9.572  0.3128 -0.2305  0.0593
  180SLPC   C3820631   3.341   1.972   9.378  0.3911  0.4344 -0.2883
  180SLPC   H8X20632   3.449   1.995   9.364  0.9542 -2.3926 -1.3556
  180SLPC   H8Y20633   3.276   2.041   9.320 -0.5099  0.2796  0.5212
  180SLPC   C3920634   3.308   1.830   9.321  0.8703 -0.3675 -0.3639
  180SLPC   H9X20635   3.198   1.815   9.330  0.6726  1.3203  0.5127
  180SLPC   H9Y20636   3.358   1.759   9.391  0.9031 -1.2894 -1.3022
  180SLPC  C31020637   3.346   1.816   9.170 -0.3838 -0.2631 -0.3052
  180SLPC  H10X20638   3.309   1.714   9.147 -2.6978  0.8129 -1.6543
  180SLPC  H10Y20639   3.456   1.830   9.159 -0.1956  0.1506  1.6579
  180SLPC  C31120640   3.267   1.911   9.078  0.0733  0.4721 -0.3570
  180SLPC  H11X20641   3.303   2.014   9.096  2.1625  0.5362 -4.0731
  180SLPC  H11Y20642   3.163   1.917   9.118  1.1257 -0.4692  2.8317
  180SLPC  C31220643   3.271   1.882   8.924 -0.2591  0.0156 -0.5733
  180SLPC  H12X20644   3.369   1.913   8.882 -0.7312 -1.1806 -2.7254
  180SLPC  H12Y20645   3.203   1.958   8.880 -0.1888  0.0089 -0.6938
  180SLPC  C31320646   3.221   1.746   8.877 -0.2818  0.3081  0.0796
  180SLPC  H13X20647   3.110   1.740   8.884 -0.2854 -0.0063 -0.2482
  180SLPC  H13Y20648   3.276   1.660   8.921 -0.2704  0.2779  0.0045
  180SLPC  C31420649   3.239   1.735   8.725 -0.8509 -0.5942  0.3971
  180SLPC  H14X20650   3.191   1.645   8.681 -0.7939 -0.7869  0.7319
  180SLPC  H14Y20651   3.349   1.737   8.711 -1.0156  0.8591 -0.9816
  180SLPC  C31520652   3.198   1.861   8.639  0.1025 -0.8108 -0.7100
  180SLPC  H15X20653   3.249   1.952   8.678 -3.3049  0.0203  2.3851
  180SLPC  H15Y20654   3.090   1.889   8.648  0.7482  2.0889 -1.0009
  180SLPC  C31620655   3.235   1.834   8.495 -0.4255 -0.6334 -0.8056
  180SLPC  H16X20656   3.146   1.818   8.430  0.0570  1.6031 -2.0961
  180SLPC  H16Y20657   3.290   1.737   8.500 -0.1257 -0.4865 -1.1837
  180SLPC  C31720658   3.328   1.946   8.434  0.3626  0.5009 -0.5717
  180SLPC  H17X20659   3.410   1.969   8.505  1.0182 -0.7609 -0.9010
  180SLPC  H17Y20660   3.266   2.038   8.425 -1.3379 -0.7989 -3.7344
  180SLPC  C31820661   3.369   1.920   8.291  0.0006 -0.1367 -0.4461
  180SLPC  H18X20662   3.439   1.834   8.289 -2.1810 -2.1074  1.9197
  180SLPC  H18Y20663   3.421   2.007   8.245 -0.2193 -0.5502 -1.5176
  180SLPC  H18Z20664   3.281   1.891   8.229 -1.1703  0.5626  0.8328
  181SLPC     N20665   6.020   0.329  11.185 -0.6191  0.0578 -0.5510
  181SLPC   C1320666   6.114   0.214  11.209  0.4422 -0.3364  0.0941
  181SLPC  H13A20667   6.217   0.241  11.189  0.8254 -0.9406  1.1703
  181SLPC  H13B20668   6.111   0.168  11.306  0.6154  0.1830  0.3513
  181SLPC  H13C20669   6.095   0.140  11.133 -0.2571 -0.1287  0.0637
  181SLPC   C1420670   6.067   0.442  11.274 -0.5782 -0.4295  0.1260
  181SLPC  H14A20671   6.154   0.483  11.226  1.3530  0.3520  3.9186
  181SLPC  H14B20672   5.997   0.524  11.282 -0.3682 -0.4199  2.8843
  181SLPC  H14C20673   6.082   0.412  11.377 -0.9883 -0.1016  0.2854
  181SLPC   C1520674   5.883   0.293  11.225 -0.4830  0.0085 -0.4421
  181SLPC  H15A20675   5.837   0.389  11.244  0.0187 -0.1746  2.1290
  181SLPC  H15B20676   5.831   0.238  11.149  0.6865 -0.3157 -1.0337
  181SLPC  H15C20677   5.889   0.242  11.320  0.8764  0.6809 -0.1330
  181SLPC   C1220678   6.026   0.369  11.039 -0.5453 -0.1774  0.8485
  181SLPC  H12A20679   6.000   0.279  10.986 -0.7868  0.3915 -0.0048
  181SLPC  H12B20680   6.129   0.395  11.016 -0.5561  0.2411  1.2519
  181SLPC   C1120681   5.932   0.487  10.986 -0.3552  0.2452 -0.6535
  181SLPC  H11A20682   5.829   0.480  11.028  0.7196  0.8529  2.3270
  181SLPC  H11B20683   5.927   0.492  10.875  3.7736  1.9513 -0.9275
  181SLPC     P20684   6.103   0.687  10.988  0.0937  0.0083  0.0210
  181SLPC   O1320685   6.113   0.818  11.058 -0.0498 -0.1124 -0.0397
  181SLPC   O1420686   6.221   0.602  11.008 -0.2289 -0.0728  0.1905
  181SLPC   O1220687   5.976   0.610  11.036 -0.1661 -0.5785 -0.8383
  181SLPC   O1120688   6.093   0.708  10.826  0.2544 -0.4287 -0.0788
  181SLPC    C120689   6.079   0.850  10.792  0.2768 -0.0731  0.1470
  181SLPC    HA20690   5.974   0.884  10.803  0.4114  0.8916 -1.2438
  181SLPC    HB20691   6.143   0.911  10.860 -0.1524  0.1956  0.3179
  181SLPC    C220692   6.109   0.867  10.644  0.0819 -0.0899  0.3287
  181SLPC    HS20693   6.103   0.971  10.605  1.4608 -0.0440  0.1768
  181SLPC   O2120694   6.022   0.772  10.576 -0.1485 -0.0205  0.7364
  181SLPC   C2120695   5.892   0.817  10.569 -0.8577  0.2371  0.0677
  181SLPC   O2220696   5.859   0.924  10.610  0.1919 -0.2040 -0.4212
  181SLPC   C2220697   5.796   0.702  10.528 -0.4213  0.4658 -0.9573
  181SLPC   H2R20698   5.836   0.649  10.439  0.9617  2.0979 -1.3668
  181SLPC   H2S20699   5.799   0.633  10.614 -0.2491 -0.8935 -2.0163
  181SLPC    C320700   6.247   0.832  10.610  0.0185  0.5259  0.4348
  181SLPC    HX20701   6.259   0.722  10.618  2.2354  0.6594 -0.3070
  181SLPC    HY20702   6.319   0.875  10.683 -1.5138  0.5141  2.0442
  181SLPC   O3120703   6.277   0.883  10.477  0.6273  0.2667  0.4456
  181SLPC   C3120704   6.385   0.834  10.423 -0.2999 -0.0823 -0.4241
  181SLPC   O3220705   6.461   0.751  10.474 -0.6854 -0.7826  0.3877
  181SLPC   C3220706   6.397   0.885  10.277 -0.3343  0.3315 -0.7985
  181SLPC   H2X20707   6.388   0.996  10.269 -0.6960  0.4437  0.8395
  181SLPC   H2Y20708   6.316   0.827  10.228  0.7473 -3.7740  1.8027
  181SLPC   C2320709   5.649   0.742  10.506  0.0285 -0.3421  0.5513
  181SLPC   H3R20710   5.600   0.789  10.594  1.8605 -1.1322  2.0588
  181SLPC   H3S20711   5.584   0.653  10.490 -0.3930 -0.5347  2.9347
  181SLPC   C2420712   5.633   0.835  10.390  0.0812 -0.1142 -0.6904
  181SLPC   H4R20713   5.660   0.937  10.428 -0.6457 -0.7494  1.7279
  181SLPC   H4S20714   5.527   0.841  10.359  0.8550  2.0017 -3.3286
  181SLPC   C2520715   5.723   0.809  10.268  0.2254  0.2795  0.2421
  181SLPC   H5R20716   5.724   0.699  10.253  1.4540  0.1681  0.9407
  181SLPC   H5S20717   5.831   0.827  10.291 -0.5247  0.8020  4.0887
  181SLPC   C2620718   5.677   0.883  10.143  0.2728 -0.0131  0.6691
  181SLPC   H6R20719   5.569   0.856  10.140  0.3204 -0.2165  0.7519
  181SLPC   H6S20720   5.730   0.842  10.054 -1.5241 -2.1470  0.4786
  181SLPC   C2720721   5.692   1.034  10.157 -0.8050 -0.5620  0.0249
  181SLPC   H7R20722   5.795   1.062  10.187 -1.4386 -1.1352  3.0256
  181SLPC   H7S20723   5.626   1.064  10.241 -1.1582 -0.7731 -0.1704
  181SLPC   C2820724   5.653   1.108  10.026  0.5131 -0.2769 -0.0858
  181SLPC   H8R20725   5.620   1.207  10.062 -0.7086 -0.1571 -1.4415
  181SLPC   H8S20726   5.568   1.054   9.978  1.3636 -0.7005 -1.1898
  181SLPC   C2920727   5.770   1.128   9.933 -0.2238  0.4884 -0.1013
  181SLPC   H9R20728   5.864   1.162   9.979 -0.5463 -0.5940  1.4197
  181SLPC  C21020729   5.770   1.121   9.798  0.3683 -0.0448  0.2919
  181SLPC  H10R20730   5.855   1.159   9.740 -0.9398  1.2478 -0.8626
  181SLPC  C21120731   5.650   1.089   9.713  0.0866 -0.1882 -0.2070
  181SLPC  H11R20732   5.657   1.156   9.624  1.5204 -1.1423 -0.8555
  181SLPC  H11S20733   5.556   1.114   9.766  0.5216 -1.0463  1.0144
  181SLPC  C21220734   5.642   0.941   9.673 -0.6435  0.2892  0.5651
  181SLPC  H12R20735   5.630   0.877   9.762 -1.9651  2.2249  1.8757
  181SLPC  C21320736   5.650   0.892   9.547  0.5573  0.6089 -0.3340
  181SLPC  H13R20737   5.680   0.786   9.541  0.4150  0.4326  1.4449
  181SLPC  C21420738   5.660   0.971   9.422 -0.0744 -0.1087  0.1714
  181SLPC  H14R20739   5.580   1.049   9.421 -0.1300 -0.1350  1.3537
  181SLPC  H14S20740   5.629   0.915   9.331  1.6139  0.7647 -0.9755
  181SLPC  C21520741   5.805   1.026   9.400  0.3976 -0.3885 -0.1798
  181SLPC  H15R20742   5.886   0.950   9.390  1.0978  0.3012  0.1419
  181SLPC  H15S20743   5.833   1.094   9.484  3.0600  0.6810 -1.8198
  181SLPC  C21620744   5.812   1.109   9.268 -0.3758  0.4938 -0.3202
  181SLPC  H16R20745   5.740   1.192   9.284  1.0603  1.4505  1.6007
  181SLPC  H16S20746   5.780   1.038   9.188  0.7479 -1.2135  0.6611
  181SLPC  C21720747   5.954   1.166   9.236  0.1186  0.5744 -0.6296
  181SLPC  H17R20748   6.013   1.080   9.199  1.4842  1.9147 -1.7005
  181SLPC  H17S20749   5.996   1.195   9.335  1.3333 -1.0746 -0.6328
  181SLPC  C21820750   5.954   1.281   9.139 -0.2031  0.6182  0.7924
  181SLPC  H18R20751   5.925   1.243   9.039 -1.1129 -2.0860  1.9763
  181SLPC  H18S20752   6.055   1.325   9.144  1.4611 -2.9213  1.7332
  181SLPC  H18T20753   5.872   1.339   9.186  0.6712  0.8001  2.1420
  181SLPC   C3320754   6.531   0.851  10.209 -0.9427  0.1187  0.1574
  181SLPC   H3X20755   6.550   0.742  10.207  1.0273  0.4241  0.3423
  181SLPC   H3Y20756   6.615   0.898  10.265 -0.7909  0.6037 -0.4622
  181SLPC   C3420757   6.539   0.915  10.070  0.6334  0.8374 -0.0578
  181SLPC   H4X20758   6.571   1.019  10.090  1.5551  0.4749  0.4387
  181SLPC   H4Y20759   6.442   0.918  10.016  1.7700  4.2815 -2.2193
  181SLPC   C3520760   6.647   0.861   9.973 -1.0128  0.0614 -0.5798
  181SLPC   H5X20761   6.643   0.751   9.983 -1.8682  0.0658 -0.8488
  181SLPC   H5Y20762   6.749   0.896  10.002 -0.5638  0.1874 -2.2243
  181SLPC   C3620763   6.613   0.905   9.832 -0.3279  0.2381  0.4207
  181SLPC   H6X20764   6.610   1.015   9.823  1.5639  0.6786  3.5483
  181SLPC   H6Y20765   6.511   0.866   9.809 -0.2018 -0.2486  0.6684
  181SLPC   C3720766   6.714   0.857   9.725 -0.5219  0.4078 -0.9982
  181SLPC   H7X20767   6.711   0.745   9.728 -0.2453  0.3955  2.6362
  181SLPC   H7Y20768   6.818   0.885   9.750 -0.4162 -0.5715 -0.2833
  181SLPC   C3820769   6.674   0.904   9.584  0.1134  0.0292  0.1080
  181SLPC   H8X20770   6.664   1.014   9.577  0.4219  0.0369 -0.1957
  181SLPC   H8Y20771   6.578   0.851   9.564 -0.1694  0.6655 -0.2428
  181SLPC   C3920772   6.782   0.863   9.475  0.3038  0.3263 -0.3743
  181SLPC   H9X20773   6.791   0.752   9.480 -0.0638  0.2445 -1.3471
  181SLPC   H9Y20774   6.880   0.907   9.506  1.9104 -2.6766 -0.8075
  181SLPC  C31020775   6.750   0.914   9.336 -0.6442 -0.5825 -0.3356
  181SLPC  H10X20776   6.767   1.022   9.317 -3.0894 -0.3195 -1.4674
  181SLPC  H10Y20777   6.644   0.892   9.310 -0.4411 -1.2321 -0.6361
  181SLPC  C31120778   6.843   0.836   9.244 -0.2677 -0.7624  0.3603
  181SLPC  H11X20779   6.816   0.729   9.235  0.5897 -0.9098 -0.6910
  181SLPC  H11Y20780   6.949   0.850   9.277 -0.1454  0.7066 -0.5603
  181SLPC  C31220781   6.833   0.896   9.104  0.3372 -0.6452 -0.0699
  181SLPC  H12X20782   6.859   1.003   9.101  4.5584 -1.4818  0.6634
  181SLPC  H12Y20783   6.727   0.897   9.071  0.0030 -0.0845  0.9912
  181SLPC  C31320784   6.917   0.830   9.008  0.2812  0.4452  0.6044
  181SLPC  H13X20785   7.025   0.830   9.033  0.7662 -1.0081 -1.2661
  181SLPC  H13Y20786   6.902   0.885   8.913  1.7198  1.9936  1.2353
  181SLPC  C31420787   6.875   0.688   8.966 -0.1468 -0.0790  0.5341
  181SLPC  H14X20788   6.764   0.687   8.961 -0.0886 -0.3151 -1.1506
  181SLPC  H14Y20789   6.893   0.601   9.034 -0.3540 -0.7540 -0.2510
  181SLPC  C31520790   6.934   0.645   8.827 -0.5278 -0.1996 -0.4657
  181SLPC  H15X20791   7.043   0.668   8.836 -0.7849  0.7478  0.4152
  181SLPC  H15Y20792   6.891   0.716   8.754 -0.5157 -1.9347 -2.2377
  181SLPC  C31620793   6.901   0.501   8.783 -0.4617 -0.5233 -0.0933
  181SLPC  H16X20794   6.791   0.482   8.781 -0.8024  0.9133 -4.5809
  181SLPC  H16Y20795   6.946   0.427   8.853 -1.1496 -1.7015 -0.8528
  181SLPC  C31720796   6.938   0.470   8.634  1.0881  0.3586  0.0728
  181SLPC  H17X20797   7.047   0.483   8.615  1.2924 -1.0195  0.1856
  181SLPC  H17Y20798   6.892   0.550   8.571 -1.0072 -1.5516 -0.9802
  181SLPC  C31820799   6.893   0.333   8.577  0.2651 -0.2769 -0.2782
  181SLPC  H18X20800   6.793   0.314   8.620  0.0078 -1.4915 -1.3451
  181SLPC  H18Y20801   6.955   0.247   8.609 -1.5829 -0.6504  2.5164
  181SLPC  H18Z20802   6.896   0.325   8.466  2.3715  0.1377 -0.3111
  182SLPC     N20803   6.504   3.175  10.709 -0.1520  0.4392 -0.0008
  182SLPC   C1320804   6.605   3.254  10.786  0.2424  0.6753  0.6093
  182SLPC  H13A20805   6.699   3.238  10.736 -0.5235 -0.1299 -0.6401
  182SLPC  H13B20806   6.574   3.358  10.784 -3.1042 -0.1370 -3.1369
  182SLPC  H13C20807   6.629   3.216  10.883  0.3177  1.1199  0.7687
  182SLPC   C1420808   6.390   3.126  10.802 -0.4782 -0.5258 -0.1441
  182SLPC  H14A20809   6.412   3.045  10.869 -1.2186 -0.0510  0.6931
  182SLPC  H14B20810   6.351   3.212  10.855 -0.1079  0.1628 -0.9550
  182SLPC  H14C20811   6.309   3.091  10.739 -1.0788 -2.1607  1.4569
  182SLPC   C1520812   6.572   3.049  10.662  0.2708  0.1565  0.4930
  182SLPC  H15A20813   6.620   3.016  10.752  2.2003  0.8256 -0.2486
  182SLPC  H15B20814   6.501   2.978  10.623 -1.3352  1.4189  0.9729
  182SLPC  H15C20815   6.653   3.079  10.597  0.7132 -1.3547  0.3183
  182SLPC   C1220816   6.448   3.259  10.597  0.6315 -0.2991 -0.5758
  182SLPC  H12A20817   6.528   3.301  10.538 -1.5985  0.2947 -3.3730
  182SLPC  H12B20818   6.380   3.338  10.625  0.2411 -1.0921  0.8365
  182SLPC   C1120819   6.361   3.181  10.495  0.5997 -0.4429  0.4467
  182SLPC  H11A20820   6.423   3.102  10.447  0.2720 -1.0596  1.0122
  182SLPC  H11B20821   6.333   3.254  10.416  2.0184 -1.3380 -0.9366
  182SLPC     P20822   6.119   3.218  10.586 -0.1225 -0.2581  0.0155
  182SLPC   O1320823   6.044   3.146  10.688  0.4037 -0.2871  0.1769
  182SLPC   O1420824   6.149   3.359  10.608  0.0728 -0.0536 -0.6428
  182SLPC   O1220825   6.244   3.126  10.550  0.6350 -0.3524  0.4034
  182SLPC   O1120826   6.038   3.200  10.454 -0.1760 -0.3883 -0.5448
  182SLPC    C120827   6.055   3.288  10.337 -0.6110 -0.0578  0.9088
  182SLPC    HA20828   6.141   3.359  10.340  0.2195 -0.8623 -1.4402
  182SLPC    HB20829   6.084   3.223  10.252 -0.6703  2.2743 -0.9779
  182SLPC    C220830   5.931   3.364  10.287 -0.0739  0.0924 -0.0099
  182SLPC    HS20831   5.879   3.416  10.370  2.3401  1.1956  0.9328
  182SLPC   O2120832   5.847   3.264  10.233 -0.4078 -0.2650 -0.7560
  182SLPC   C2120833   5.715   3.286  10.236 -0.4066 -0.2013 -0.0732
  182SLPC   O2220834   5.664   3.383  10.292 -0.4285  0.5440  0.2242
  182SLPC   C2220835   5.641   3.178  10.160 -0.3951  0.4059  0.1332
  182SLPC   H2R20836   5.593   3.112  10.235 -0.1866  0.5876  0.4289
  182SLPC   H2S20837   5.559   3.227  10.103 -0.5094 -0.6896 -0.6943
  182SLPC    C320838   5.971   3.471  10.179  0.2093 -0.2283  0.4291
  182SLPC    HX20839   6.015   3.558  10.232 -0.7807  1.9418 -2.0949
  182SLPC    HY20840   5.882   3.512  10.126  0.7121  0.9376  0.4607
  182SLPC   O3120841   6.066   3.424  10.086 -0.3817 -0.2509 -0.3592
  182SLPC   C3120842   6.150   3.504  10.023  0.2079  0.4330 -0.1438
  182SLPC   O3220843   6.137   3.626  10.012 -0.1113  0.5911  0.3282
  182SLPC   C3220844   6.257   3.423   9.956 -0.0425 -0.4427  0.2399
  182SLPC   H2X20845   6.239   3.316   9.982 -2.3854 -0.1138  0.2441
  182SLPC   H2Y20846   6.353   3.453  10.002  0.5208  1.2667 -1.9212
  182SLPC   C2320847   5.725   3.091  10.058 -0.9797 -0.1914  0.3979
  182SLPC   H3R20848   5.663   3.008  10.018 -1.3936 -0.7765  2.1613
  182SLPC   H3S20849   5.817   3.049  10.104  0.3961 -0.1033 -2.0988
  182SLPC   C2420850   5.747   3.175   9.932  0.6969  0.4613  0.1014
  182SLPC   H4R20851   5.783   3.276   9.960  2.9590  0.0079 -0.9579
  182SLPC   H4S20852   5.649   3.191   9.881  0.8301  2.6202  0.4074
  182SLPC   C2520853   5.840   3.107   9.834  0.1776  0.6425 -0.2459
  182SLPC   H5R20854   5.786   3.084   9.739 -2.0284 -1.5623  1.4343
  182SLPC   H5S20855   5.870   3.005   9.866 -2.6845 -1.5105 -3.6499
  182SLPC   C2620856   5.960   3.199   9.795 -0.1387  0.2045  0.3075
  182SLPC   H6R20857   6.006   3.227   9.892  0.8498 -0.3833  0.0154
  182SLPC   H6S20858   5.928   3.289   9.737  0.6246 -0.7609 -1.7090
  182SLPC   C2720859   6.057   3.137   9.689 -0.5367 -0.1092  0.5436
  182SLPC   H7R20860   6.079   3.043   9.743  1.0320 -0.3186 -0.4178
  182SLPC   H7S20861   6.147   3.201   9.675 -0.8250  0.1366 -0.2474
  182SLPC   C2820862   5.992   3.089   9.560 -0.5450 -0.2765  0.6390
  182SLPC   H8R20863   5.954   3.172   9.496 -0.4074 -0.0517  0.8434
  182SLPC   H8S20864   5.912   3.017   9.586 -1.7846  1.6337  2.4891
  182SLPC   C2920865   6.087   2.998   9.488 -0.3783  0.2209 -0.2606
  182SLPC   H9R20866   6.149   2.937   9.556  4.0549  2.4127 -1.9812
  182SLPC  C21020867   6.090   2.971   9.360  0.1619  0.1369 -0.0711
  182SLPC  H10R20868   6.163   2.892   9.335 -1.1357 -1.0023 -0.3611
  182SLPC  C21120869   6.001   3.017   9.250  0.2207 -0.0809  0.6227
  182SLPC  H11R20870   6.060   3.051   9.162 -0.4826 -0.6796 -0.0974
  182SLPC  H11S20871   5.934   3.102   9.279  0.6340  0.8033 -0.8854
  182SLPC  C21220872   5.906   2.913   9.207  0.6082 -0.5639 -0.0842
  182SLPC  H12R20873   5.871   2.836   9.278 -2.1356 -1.1603 -1.9300
  182SLPC  C21320874   5.858   2.886   9.079 -0.2390 -0.3656  0.4583
  182SLPC  H13R20875   5.778   2.811   9.070  1.4131 -2.2002  0.4677
  182SLPC  C21420876   5.892   2.968   8.960 -0.3227 -0.2002  0.1636
  182SLPC  H14R20877   5.993   3.014   8.965 -0.6062  0.7358 -1.8634
  182SLPC  H14S20878   5.809   3.042   8.957  0.2280  0.4619  0.7229
  182SLPC  C21520879   5.878   2.873   8.839  0.1660  0.7053  0.4250
  182SLPC  H15R20880   5.770   2.849   8.826  0.6795 -0.6596 -1.8838
  182SLPC  H15S20881   5.940   2.781   8.849 -0.9542 -0.1906 -0.5057
  182SLPC  C21620882   5.911   2.936   8.706 -0.2131  0.6726  0.0918
  182SLPC  H16R20883   6.022   2.931   8.701 -0.2061 -0.9861  1.3065
  182SLPC  H16S20884   5.875   3.041   8.702  0.3038  0.8131 -1.4227
  182SLPC  C21720885   5.870   2.845   8.586 -0.8867  0.6930  1.2589
  182SLPC  H17R20886   5.896   2.910   8.500  0.2855 -0.5008  0.6693
  182SLPC  H17S20887   5.765   2.810   8.591 -0.5200 -0.3839  1.8388
  182SLPC  C21820888   5.962   2.723   8.564 -0.1343  0.3311 -0.6081
  182SLPC  H18R20889   5.935   2.681   8.465  1.2722  3.0540 -2.2770
  182SLPC  H18S20890   5.954   2.655   8.652  0.4105  0.9762 -0.0561
  182SLPC  H18T20891   6.069   2.753   8.562  0.0370 -0.0746  1.0483
  182SLPC   C3320892   6.271   3.466   9.808  0.2995  0.2888 -0.2503
  182SLPC   H3X20893   6.296   3.574   9.798 -0.2814  0.4009 -0.5560
  182SLPC   H3Y20894   6.179   3.438   9.752 -0.7226  0.8649  1.1130
  182SLPC   C3420895   6.394   3.400   9.745  0.2944 -0.1761 -0.1240
  182SLPC   H4X20896   6.386   3.290   9.753  0.7381 -0.4079 -2.3295
  182SLPC   H4Y20897   6.485   3.442   9.793 -0.9995  0.8383  1.5431
  182SLPC   C3520898   6.406   3.430   9.594  0.3404  0.5747  0.5170
  182SLPC   H5X20899   6.506   3.389   9.568  0.6568  2.0512 -0.6938
  182SLPC   H5Y20900   6.412   3.540   9.587  1.6916  0.5338  0.8182
  182SLPC   C3620901   6.296   3.360   9.508  0.4405  0.3984  0.4560
  182SLPC   H6X20902   6.195   3.398   9.535  0.0135 -0.9102  0.7688
  182SLPC   H6Y20903   6.297   3.250   9.522  2.3961  0.2793 -0.3108
  182SLPC   C3720904   6.317   3.382   9.358  0.4223 -0.2844 -0.1751
  182SLPC   H7X20905   6.421   3.353   9.332  0.1223 -2.0827  0.4492
  182SLPC   H7Y20906   6.284   3.485   9.331 -1.9184 -0.5794  1.2692
  182SLPC   C3820907   6.229   3.288   9.280  0.0758  0.1010  0.3396
  182SLPC   H8X20908   6.126   3.295   9.321  0.1685 -1.1005  0.8092
  182SLPC   H8Y20909   6.264   3.183   9.286  2.8956  0.8831 -0.9514
  182SLPC   C3920910   6.243   3.326   9.130  0.1808  0.1148 -0.0395
  182SLPC   H9X20911   6.354   3.328   9.119  0.3453 -3.6893 -0.3244
  182SLPC   H9Y20912   6.205   3.430   9.123  1.4608  0.6083  0.0799
  182SLPC  C31020913   6.184   3.225   9.024  0.1905  0.6352  0.3007
  182SLPC  H10X20914   6.075   3.239   9.037 -0.0768 -0.7340 -0.2894
  182SLPC  H10Y20915   6.219   3.123   9.051  1.6366  1.5048  1.8951
  182SLPC  C31120916   6.217   3.270   8.878 -0.2570  0.0967 -0.4109
  182SLPC  H11X20917   6.179   3.372   8.855  1.6085  0.4295 -2.3640
  182SLPC  H11Y20918   6.151   3.208   8.813 -1.1337 -0.8366  1.3078
  182SLPC  C31220919   6.364   3.252   8.846 -0.4238 -0.0717  1.0081
  182SLPC  H12X20920   6.387   3.146   8.870 -0.2587  0.3736  3.0231
  182SLPC  H12Y20921   6.411   3.320   8.921 -1.7743 -0.3874  2.2009
  182SLPC  C31320922   6.406   3.306   8.705  0.8215  0.6656 -0.2843
  182SLPC  H13X20923   6.390   3.415   8.701 -0.9049  0.5085  1.2359
  182SLPC  H13Y20924   6.339   3.254   8.634  3.3555 -1.6893 -1.1339
  182SLPC  C31420925   6.553   3.271   8.683 -0.1596 -0.1270  0.4123
  182SLPC  H14X20926   6.567   3.161   8.690 -0.8438 -0.2296  0.2498
  182SLPC  H14Y20927   6.614   3.321   8.761 -0.0753 -0.2835  0.4486
  182SLPC  C31520928   6.606   3.321   8.542  0.6759 -0.8592 -0.1142
  182SLPC  H15X20929   6.546   3.274   8.461 -0.3708  0.5613 -0.1995
  182SLPC  H15Y20930   6.708   3.276   8.533  0.0640 -2.5783  0.9649
  182SLPC  C31620931   6.616   3.472   8.517 -0.0872 -0.2132 -0.3622
  182SLPC  H16X20932   6.594   3.523   8.612  1.1037  1.3682 -0.8991
  182SLPC  H16Y20933   6.536   3.506   8.447 -1.8483  0.4209  1.8338
  182SLPC  C31720934   6.746   3.531   8.454  0.6351 -0.0793 -0.4325
  182SLPC  H17X20935   6.754   3.492   8.350  2.9767  0.2313 -0.4232
  182SLPC  H17Y20936   6.837   3.481   8.495  0.6540 -1.4774 -2.0616
  182SLPC  C31820937   6.753   3.683   8.446 -0.6173 -0.1277  0.1897
  182SLPC  H18X20938   6.698   3.721   8.357 -0.1489 -0.2755 -0.1691
  182SLPC  H18Y20939   6.856   3.724   8.433 -0.8316  1.2864  2.3277
  182SLPC  H18Z20940   6.708   3.728   8.537 -1.8156 -1.1827  0.1344
  183SLPC     N20941   6.688   4.039  10.808 -0.2457 -0.2389 -0.1887
  183SLPC   C1320942   6.794   4.141  10.816 -0.1203 -0.3319  0.7522
  183SLPC  H13A20943   6.778   4.224  10.749 -0.5444 -0.2950  0.8974
  183SLPC  H13B20944   6.796   4.177  10.918  2.5031 -1.3782  1.1644
  183SLPC  H13C20945   6.897   4.109  10.802  0.1439 -0.7394  3.1767
  183SLPC   C1420946   6.564   4.097  10.863  0.2474 -0.4056 -0.0859
  183SLPC  H14A20947   6.479   4.031  10.851 -0.4713  0.4751  0.0689
  183SLPC  H14B20948   6.576   4.139  10.962  0.7737 -0.8716  0.0519
  183SLPC  H14C20949   6.519   4.178  10.808  0.3730  1.6752  2.6625
  183SLPC   C1520950   6.745   3.920  10.891  0.5651 -0.4263  0.3826
  183SLPC  H15A20951   6.847   3.899  10.862  1.6781  2.5400  1.7500
  183SLPC  H15B20952   6.728   3.933  10.997 -2.0646 -0.4433  0.0330
  183SLPC  H15C20953   6.686   3.834  10.862 -0.5423  1.2081 -2.7239
  183SLPC   C1220954   6.667   4.009  10.663 -0.1247 -0.2386 -0.3368
  183SLPC  H12A20955   6.757   3.957  10.633  0.2741  0.6403 -0.6938
  183SLPC  H12B20956   6.643   4.099  10.609 -3.2319 -0.8802 -0.2126
  183SLPC   C1120957   6.559   3.900  10.635  0.8826 -0.0566  0.0937
  183SLPC  H11A20958   6.547   3.881  10.527  1.5686  2.0569 -0.4163
  183SLPC  H11B20959   6.463   3.942  10.672  1.6547  1.4458  0.5062
  183SLPC     P20960   6.497   3.648  10.670 -0.0086  0.6143  0.1391
  183SLPC   O1320961   6.516   3.550  10.780 -0.2688  0.3368  0.6322
  183SLPC   O1420962   6.359   3.693  10.648  0.2731 -0.1349  0.0027
  183SLPC   O1220963   6.587   3.778  10.707 -0.6333  0.1853 -0.2768
  183SLPC   O1120964   6.551   3.588  10.539 -0.4683  0.4051  0.2958
  183SLPC    C120965   6.688   3.525  10.538 -0.4692  0.2999 -0.2920
  183SLPC    HA20966   6.707   3.479  10.637 -2.5526  1.3054  0.6383
  183SLPC    HB20967   6.687   3.448  10.458  1.1430  0.3669 -0.3940
  183SLPC    C220968   6.808   3.634  10.514  0.9088  0.1056  0.0896
  183SLPC    HS20969   6.805   3.693  10.608  1.8419  0.4769 -0.1079
  183SLPC   O2120970   6.773   3.707  10.391 -0.0967 -1.0586  0.3310
  183SLPC   C2120971   6.829   3.827  10.378 -0.2504 -0.5622  0.5982
  183SLPC   O2220972   6.899   3.878  10.466  0.1281  0.6682 -0.3614
  183SLPC   C2220973   6.767   3.900  10.257  0.3851  0.4386  0.7711
  183SLPC   H2R20974   6.662   3.934  10.273  0.8018  1.2922  1.7703
  183SLPC   H2S20975   6.829   3.989  10.233 -1.5131  1.6304  0.0468
  183SLPC    C320976   6.956   3.569  10.510 -0.3080 -0.1935  0.0020
  183SLPC    HX20977   6.967   3.515  10.606 -0.3802 -0.7893 -0.3208
  183SLPC    HY20978   7.022   3.658  10.508  1.6024 -1.5444  0.7325
  183SLPC   O3120979   6.969   3.478  10.405  0.0202 -0.0210  0.6933
  183SLPC   C3120980   7.023   3.519  10.291 -0.1161  0.2347  0.4640
  183SLPC   O3220981   7.084   3.626  10.281 -0.2353  0.3212  1.0954
  183SLPC   C3220982   6.992   3.420  10.180  0.5586 -0.0397 -0.8371
  183SLPC   H2X20983   6.888   3.385  10.197  0.6021  0.8333  1.7314
  183SLPC   H2Y20984   7.072   3.343  10.184  0.2865 -0.3042 -0.4421
  183SLPC   C2320985   6.768   3.808  10.130  0.3574  0.2632  0.7949
  183SLPC   H3R20986   6.856   3.741  10.130  1.0300  0.9978 -2.0731
  183SLPC   H3S20987   6.771   3.878  10.043 -1.3082  0.0969  0.5731
  183SLPC   C2420988   6.634   3.732  10.106  0.1899 -0.0821  0.9692
  183SLPC   H4R20989   6.548   3.801  10.098  0.8682  0.5665 -1.6756
  183SLPC   H4S20990   6.614   3.663  10.191 -0.5227  3.6522  4.0686
  183SLPC   C2520991   6.623   3.644   9.979 -0.6443 -0.0214 -0.6048
  183SLPC   H5R20992   6.518   3.607   9.979 -0.8850  0.6361 -1.1830
  183SLPC   H5S20993   6.690   3.556   9.979 -0.0900  0.3958  0.0332
  183SLPC   C2620994   6.644   3.715   9.842  0.1817 -0.4116 -0.5167
  183SLPC   H6R20995   6.641   3.646   9.756  1.1656 -1.1439  0.0237
  183SLPC   H6S20996   6.746   3.759   9.849  0.2828 -0.8201  0.9393
  183SLPC   C2720997   6.540   3.830   9.812  0.2044  0.8953  0.6161
  183SLPC   H7R20998   6.534   3.879   9.912  0.9596  0.9658  0.6280
  183SLPC   H7S20999   6.440   3.785   9.793  1.2532 -1.4192  0.1942
  183SLPC   C2821000   6.582   3.933   9.700 -0.3917 -0.0175 -0.2087
  183SLPC   H8R21001   6.668   3.989   9.742  0.4698 -2.0894  0.9866
  183SLPC   H8S21002   6.498   4.004   9.685  1.5516  2.0557 -1.7747
  183SLPC   C2921003   6.640   3.862   9.581  0.7603 -0.0586  0.4218
  183SLPC   H9R21004   6.727   3.798   9.603  0.3260 -0.5277  0.8030
  183SLPC  C21021005   6.571   3.847   9.466  0.3042 -0.6730  0.0154
  183SLPC  H10R21006   6.609   3.781   9.386  1.3921  1.4716 -1.3255
  183SLPC  C21121007   6.434   3.901   9.420  0.1228  0.8150 -0.2074
  183SLPC  H11R21008   6.449   3.957   9.325 -1.3821 -0.2845 -1.1605
  183SLPC  H11S21009   6.395   3.968   9.500 -2.6313 -0.3686 -0.4277
  183SLPC  C21221010   6.346   3.776   9.398  0.7100 -0.1596  0.4208
  183SLPC  H12R21011   6.386   3.682   9.359  1.2561 -0.0434  0.6989
  183SLPC  C21321012   6.209   3.778   9.425 -0.2823 -0.2286 -0.3879
  183SLPC  H13R21013   6.152   3.685   9.440 -2.7651  1.4353  1.2023
  183SLPC  C21421014   6.132   3.897   9.479  0.2665 -0.0888  0.3140
  183SLPC  H14R21015   6.039   3.895   9.419 -0.4602 -3.9827  1.2723
  183SLPC  H14S21016   6.190   3.991   9.465 -1.5744  0.9527 -0.5559
  183SLPC  C21521017   6.107   3.866   9.627 -0.2795 -0.3959 -0.4411
  183SLPC  H15R21018   6.206   3.856   9.675  0.3383 -2.0365 -1.9506
  183SLPC  H15S21019   6.053   3.769   9.634 -1.5240 -0.1246 -4.3114
  183SLPC  C21621020   6.027   3.976   9.690  0.2551 -0.1106 -0.6105
  183SLPC  H16R21021   5.996   3.937   9.790 -2.2782 -0.0599 -1.2973
  183SLPC  H16S21022   5.929   3.997   9.642 -1.0811  0.1597  1.9903
  183SLPC  C21721023   6.087   4.120   9.707  1.1138  0.6258  0.4524
  183SLPC  H17R21024   6.020   4.176   9.776 -1.8452 -1.7333 -0.2760
  183SLPC  H17S21025   6.095   4.165   9.606  0.8944 -0.4239 -0.0491
  183SLPC  C21821026   6.221   4.125   9.776  0.3104 -0.0565 -0.6100
  183SLPC  H18R21027   6.297   4.093   9.702 -0.3664 -0.4628 -1.1467
  183SLPC  H18S21028   6.216   4.054   9.861  0.3589  0.9751  0.2732
  183SLPC  H18T21029   6.240   4.224   9.823 -0.8375  0.0177 -0.2587
  183SLPC   C3321030   7.014   3.485  10.037 -0.4188 -0.2959  0.2366
  183SLPC   H3X21031   7.110   3.540  10.051 -1.5753  2.2874 -1.1694
  183SLPC   H3Y21032   6.932   3.558  10.018 -0.2480 -0.1610  0.0168
  183SLPC   C3421033   7.021   3.404   9.912 -0.0046  0.2308  0.1220
  183SLPC   H4X21034   7.099   3.327   9.930 -1.8940 -1.5942  0.9417
  183SLPC   H4Y21035   7.061   3.469   9.831  1.0577 -0.4048  0.1142
  183SLPC   C3521036   6.892   3.339   9.862  0.2531 -0.0215  0.1863
  183SLPC   H5X21037   6.822   3.358   9.947  0.0721  1.0792 -0.1932
  183SLPC   H5Y21038   6.904   3.230   9.844 -0.4403 -0.1977  0.7138
  183SLPC   C3621039   6.838   3.406   9.736 -0.5250  0.1876 -0.9393
  183SLPC   H6X21040   6.849   3.517   9.738 -3.2460  0.5848 -3.1323
  183SLPC   H6Y21041   6.729   3.386   9.731 -0.2782 -1.1188 -1.4525
  183SLPC   C3721042   6.908   3.370   9.605 -0.0500  0.0361 -0.7838
  183SLPC   H7X21043   6.895   3.266   9.570  2.1647 -1.2365  1.7972
  183SLPC   H7Y21044   7.018   3.386   9.614 -0.2591  0.7586  0.7286
  183SLPC   C3821045   6.870   3.462   9.490  0.4968 -0.7695 -0.0972
  183SLPC   H8X21046   6.912   3.562   9.513 -1.3360  0.2627 -0.9485
  183SLPC   H8Y21047   6.761   3.481   9.502  0.8247  1.7820 -0.5911
  183SLPC   C3921048   6.903   3.412   9.356 -0.2796 -0.3812  0.4075
  183SLPC   H9X21049   6.878   3.305   9.339  2.1353 -0.5928 -3.1178
  183SLPC   H9Y21050   7.014   3.412   9.355 -0.2539 -0.2560 -1.8539
  183SLPC  C31021051   6.856   3.502   9.238 -0.1235 -0.3765 -0.1632
  183SLPC  H10X21052   6.945   3.499   9.172  0.0934 -0.8432  0.1486
  183SLPC  H10Y21053   6.838   3.607   9.269  3.0724 -0.3422  2.0148
  183SLPC  C31121054   6.736   3.449   9.163  0.9423  0.1495 -0.9189
  183SLPC  H11X21055   6.716   3.341   9.181 -0.8770  0.6536  0.4305
  183SLPC  H11Y21056   6.768   3.437   9.058  3.2103 -0.5493 -0.2023
  183SLPC  C31221057   6.610   3.537   9.168 -0.6809  0.8639 -0.0796
  183SLPC  H12X21058   6.633   3.624   9.233 -0.0701  0.8080 -0.2167
  183SLPC  H12Y21059   6.526   3.490   9.224  0.2422 -1.7512 -0.7307
  183SLPC  C31321060   6.562   3.584   9.033 -0.6677 -0.2915 -0.3997
  183SLPC  H13X21061   6.536   3.489   8.981 -2.7129 -0.2347  0.4127
  183SLPC  H13Y21062   6.646   3.643   8.991  1.0450 -0.2748  2.7726
  183SLPC  C31421063   6.432   3.675   9.040  0.6466  1.1484  0.8929
  183SLPC  H14X21064   6.440   3.772   9.093  0.2580  0.1379  2.8813
  183SLPC  H14Y21065   6.355   3.628   9.104 -0.0012  0.0070 -0.6553
  183SLPC  C31521066   6.369   3.692   8.901  0.2447 -0.6192 -0.4247
  183SLPC  H15X21067   6.379   3.597   8.845  0.6837  0.5976 -2.5103
  183SLPC  H15Y21068   6.428   3.765   8.842 -1.6200 -2.2137 -4.6861
  183SLPC  C31621069   6.220   3.725   8.902  0.2355 -0.3536 -0.1143
  183SLPC  H16X21070   6.153   3.650   8.948 -0.4579  0.3327  0.0028
  183SLPC  H16Y21071   6.199   3.723   8.793 -0.2409  2.1427 -0.1322
  183SLPC  C31721072   6.178   3.862   8.972 -0.4281 -0.4161  0.6725
  183SLPC  H17X21073   6.224   3.939   8.906 -0.7353 -1.8286 -1.2982
  183SLPC  H17Y21074   6.211   3.863   9.078 -0.9136  0.8201  0.8291
  183SLPC  C31821075   6.026   3.879   8.973 -0.2337  0.4704  0.1837
  183SLPC  H18X21076   5.976   3.846   9.066 -1.6606 -0.6535 -0.9462
  183SLPC  H18Y21077   5.986   3.813   8.894 -2.7378  0.0797  1.6885
  183SLPC  H18Z21078   5.999   3.985   8.955  2.1861  1.2356  0.6176
  184SLPC     N21079   2.038   1.275  10.746  0.6426  0.6246  0.3696
  184SLPC   C1321080   2.118   1.281  10.625  0.0255 -0.4309 -0.1793
  184SLPC  H13A21081   2.086   1.203  10.558 -0.2676 -0.4445 -0.0262
  184SLPC  H13B21082   2.110   1.374  10.569 -0.8231  2.0340  3.6504
  184SLPC  H13C21083   2.222   1.260  10.646 -0.2862 -0.2878  1.6635
  184SLPC   C1421084   1.895   1.261  10.710 -0.0412  0.0723 -0.4918
  184SLPC  H14A21085   1.884   1.168  10.655 -1.5882  1.0242 -1.9046
  184SLPC  H14B21086   1.833   1.265  10.798  2.1478  2.2077  1.0628
  184SLPC  H14C21087   1.856   1.338  10.645 -0.9429  0.5753  0.6134
  184SLPC   C1521088   2.051   1.398  10.825  0.5138 -0.9256 -0.2317
  184SLPC  H15A21089   2.012   1.379  10.924 -1.1027  1.2799 -0.3834
  184SLPC  H15B21090   2.156   1.425  10.830  0.4295 -0.0658 -2.2197
  184SLPC  H15C21091   2.010   1.487  10.781  2.2932  1.8771  3.2619
  184SLPC   C1221092   2.071   1.143  10.829 -0.3600  1.0797  0.4126
  184SLPC  H12A21093   2.059   1.052  10.773  2.9792 -0.0236  1.2663
  184SLPC  H12B21094   2.007   1.132  10.916  0.0111 -0.9119  0.4765
  184SLPC   C1121095   2.223   1.123  10.875 -0.5195  0.1978 -0.7771
  184SLPC  H11A21096   2.229   1.057  10.964  0.0403  0.0034 -0.9517
  184SLPC  H11B21097   2.266   1.219  10.909  0.0018 -0.5184  0.6669
  184SLPC     P21098   2.311   0.911  10.725 -0.4325 -0.2710 -0.3513
  184SLPC   O1321099   2.395   0.851  10.833 -0.2555 -0.3253  0.6246
  184SLPC   O1421100   2.179   0.852  10.716  0.6162  0.2607  0.2142
  184SLPC   O1221101   2.296   1.073  10.758 -0.3590  0.1797  0.2020
  184SLPC   O1121102   2.386   0.913  10.587 -0.2352 -0.2138 -0.2251
  184SLPC    C121103   2.399   1.031  10.506  0.1381 -0.7403  0.4234
  184SLPC    HA21104   2.322   1.109  10.527  0.7689 -0.1635  0.6429
  184SLPC    HB21105   2.500   1.077  10.515  0.7534 -2.1050  0.6826
  184SLPC    C221106   2.360   1.001  10.358  0.4291  0.1169  0.5365
  184SLPC    HS21107   2.372   1.088  10.289 -1.4037 -0.5142 -0.6405
  184SLPC   O2121108   2.227   0.963  10.339  0.5013 -0.1918  0.5327
  184SLPC   C2121109   2.138   1.058  10.315  0.9951  0.4172  0.0733
  184SLPC   O2221110   2.158   1.174  10.342  0.1022  0.2964  0.3252
  184SLPC   C2221111   2.008   0.995  10.260  0.1310 -1.5195 -0.0382
  184SLPC   H2R21112   1.965   0.930  10.340 -0.1396  2.1965  3.1546
  184SLPC   H2S21113   1.930   1.072  10.240 -0.0347 -1.1665  1.7780
  184SLPC    C321114   2.462   0.895  10.309  1.0092  0.8176 -1.1004
  184SLPC    HX21115   2.477   0.813  10.382  0.9494  1.0000 -0.8801
  184SLPC    HY21116   2.564   0.938  10.305  1.9118 -1.3624 -2.8099
  184SLPC   O3121117   2.423   0.836  10.185  0.4123 -0.3124  0.0819
  184SLPC   C3121118   2.486   0.878  10.079  0.3200 -0.1314 -0.0561
  184SLPC   O3221119   2.575   0.963  10.079 -0.5473  0.7091  0.1441
  184SLPC   C3221120   2.444   0.819   9.945  0.3590  0.1134 -0.4105
  184SLPC   H2X21121   2.377   0.887   9.889  1.7030  1.4809 -0.4116
  184SLPC   H2Y21122   2.388   0.724   9.962 -0.5158  0.8901  1.2979
  184SLPC   C2321123   2.035   0.918  10.133 -0.5616  0.7220 -0.3399
  184SLPC   H3R21124   2.087   0.825  10.164 -0.5137  0.9960  0.4364
  184SLPC   H3S21125   2.092   0.969  10.053 -0.9593 -1.3882 -2.0427
  184SLPC   C2421126   1.904   0.860  10.077 -0.4401  0.3253 -0.6714
  184SLPC   H4R21127   1.846   0.939  10.024 -0.9540  0.1611 -0.3603
  184SLPC   H4S21128   1.839   0.836  10.164  0.9938 -2.0003 -0.1309
  184SLPC   C2521129   1.926   0.745   9.981 -0.5912 -0.2245  0.3903
  184SLPC   H5R21130   1.831   0.701   9.942  0.2285  0.6888 -2.9875
  184SLPC   H5S21131   1.972   0.663  10.039  0.5409  0.2753  0.2113
  184SLPC   C2621132   2.014   0.773   9.853  0.4174  0.1325 -0.4168
  184SLPC   H6R21133   2.017   0.676   9.800 -0.3892 -1.1625  1.7857
  184SLPC   H6S21134   2.116   0.810   9.877  0.6809  0.7306 -2.2788
  184SLPC   C2721135   1.945   0.867   9.759 -0.1531 -0.0988 -0.2907
  184SLPC   H7R21136   1.948   0.964   9.814  2.6907  0.0407 -0.5542
  184SLPC   H7S21137   1.841   0.853   9.723 -0.0821  0.7470 -0.8523
  184SLPC   C2821138   2.026   0.879   9.628 -0.1801 -0.2408  0.3587
  184SLPC   H8R21139   2.024   0.782   9.576 -0.1320  0.6724 -1.4203
  184SLPC   H8S21140   2.134   0.902   9.640 -0.2600 -0.5274  1.7894
  184SLPC   C2921141   1.969   0.983   9.538  0.1658 -0.0268 -0.2668
  184SLPC   H9R21142   1.924   1.066   9.594  0.8638  1.2044 -1.4481
  184SLPC  C21021143   1.972   0.992   9.402  0.2796 -0.3928  0.4709
  184SLPC  H10R21144   1.931   1.081   9.352 -0.2779 -2.0292 -2.1846
  184SLPC  C21121145   2.032   0.894   9.303 -0.2993  0.0566  0.6012
  184SLPC  H11R21146   1.953   0.836   9.251  0.2167  0.4366 -0.6356
  184SLPC  H11S21147   2.093   0.822   9.362  1.7816  0.4934 -0.9065
  184SLPC  C21221148   2.114   0.975   9.208 -0.6355  0.3234 -0.1737
  184SLPC  H12R21149   2.209   0.998   9.257 -0.6765 -2.6330  1.5355
  184SLPC  C21321150   2.084   1.017   9.087  0.0542  0.3428  0.2056
  184SLPC  H13R21151   2.155   1.076   9.028  0.1685  1.7304  1.6569
  184SLPC  C21421152   1.954   0.976   9.013 -0.0226 -0.3839  0.8666
  184SLPC  H14R21153   1.890   1.066   9.001  0.2824 -0.3173 -0.4360
  184SLPC  H14S21154   1.903   0.890   9.061 -0.0430 -1.0444 -0.3120
  184SLPC  C21521155   1.971   0.910   8.870  0.0850  0.1975  0.2690
  184SLPC  H15R21156   2.025   0.813   8.876 -0.4200 -0.0021  2.6667
  184SLPC  H15S21157   2.020   0.986   8.806 -0.3621  0.0825 -0.2165
  184SLPC  C21621158   1.837   0.870   8.806 -0.0810 -0.4622 -0.1494
  184SLPC  H16R21159   1.767   0.957   8.807  1.3155  0.7147 -0.4201
  184SLPC  H16S21160   1.785   0.790   8.862 -0.0496 -0.3196  0.0830
  184SLPC  C21721161   1.854   0.849   8.651 -0.3448  0.1142  0.0362
  184SLPC  H17R21162   1.933   0.771   8.638 -0.0574  0.4293 -0.1241
  184SLPC  H17S21163   1.879   0.944   8.599 -0.0994 -0.6665 -1.3465
  184SLPC  C21821164   1.721   0.798   8.587 -0.0607  0.7324 -0.4667
  184SLPC  H18R21165   1.689   0.701   8.631 -2.5864  1.9900  0.6682
  184SLPC  H18S21166   1.742   0.783   8.479  0.7340  2.3278 -0.5633
  184SLPC  H18T21167   1.642   0.873   8.608  0.0854  0.8975 -0.5025
  184SLPC   C3321168   2.569   0.790   9.854  0.3841  0.8306 -0.6458
  184SLPC   H3X21169   2.630   0.713   9.905 -0.2068  0.4937 -0.4387
  184SLPC   H3Y21170   2.622   0.884   9.829 -1.1760  1.0340 -3.5829
  184SLPC   C3421171   2.520   0.746   9.711  0.1394 -0.4758 -0.0678
  184SLPC   H4X21172   2.478   0.840   9.669 -1.0726 -0.9754 -0.0130
  184SLPC   H4Y21173   2.435   0.674   9.717 -1.3391  1.0727 -1.2597
  184SLPC   C3521174   2.639   0.700   9.623  0.7581  0.0744  0.3570
  184SLPC   H5X21175   2.638   0.589   9.616  1.4951  0.1682 -3.0601
  184SLPC   H5Y21176   2.732   0.733   9.673  0.3603  0.5012  0.8212
  184SLPC   C3621177   2.639   0.758   9.481 -0.4359 -0.0975  0.5907
  184SLPC   H6X21178   2.727   0.718   9.426  1.1600  0.3518  2.6812
  184SLPC   H6Y21179   2.671   0.863   9.498  1.0175 -0.1501 -1.5172
  184SLPC   C3721180   2.511   0.740   9.398  0.0224 -0.1813  0.1408
  184SLPC   H7X21181   2.423   0.788   9.446  0.4004 -0.5353  1.2200
  184SLPC   H7Y21182   2.482   0.633   9.404 -0.7694  0.0668  0.9712
  184SLPC   C3821183   2.543   0.796   9.253  0.1375  0.0062 -0.0792
  184SLPC   H8X21184   2.605   0.711   9.217  2.4871  0.8422  1.6931
  184SLPC   H8Y21185   2.606   0.887   9.257  0.4838 -0.2786  2.1166
  184SLPC   C3921186   2.418   0.815   9.164 -0.7455  0.2675 -0.3138
  184SLPC   H9X21187   2.371   0.914   9.184  0.1532  0.5474  0.5028
  184SLPC   H9Y21188   2.346   0.733   9.185  1.6537 -2.4164 -1.8343
  184SLPC  C31021189   2.452   0.819   9.017 -0.4831 -0.7684  0.0614
  184SLPC  H10X21190   2.361   0.857   8.965  1.3486  2.1658 -1.2820
  184SLPC  H10Y21191   2.486   0.717   8.991  0.8277 -0.6114  1.0624
  184SLPC  C31121192   2.568   0.919   8.968  0.3883  0.1254  0.3372
  184SLPC  H11X21193   2.650   0.909   9.041  1.3447  2.1271 -0.3871
  184SLPC  H11Y21194   2.528   1.022   8.977  2.1574  0.8089  0.6303
  184SLPC  C31221195   2.620   0.899   8.832  0.6805 -0.1228  0.6620
  184SLPC  H12X21196   2.661   0.796   8.818 -0.6281 -0.6028  0.1781
  184SLPC  H12Y21197   2.705   0.968   8.818 -0.3724  1.1308  0.2156
  184SLPC  C31321198   2.521   0.915   8.717 -0.0109 -0.0480  0.0568
  184SLPC  H13X21199   2.452   0.828   8.717  1.8035 -1.5934 -1.5226
  184SLPC  H13Y21200   2.576   0.909   8.620  0.5297 -0.3574  0.3766
  184SLPC  C31421201   2.437   1.047   8.732 -0.1187  0.6390  0.7205
  184SLPC  H14X21202   2.500   1.127   8.777  0.3524  1.1878 -0.8651
  184SLPC  H14Y21203   2.363   1.025   8.812 -0.0700  0.9480  0.8555
  184SLPC  C31521204   2.368   1.110   8.606  0.5996  0.3741  0.6029
  184SLPC  H15X21205   2.322   1.207   8.635  0.5356  0.1631  1.2173
  184SLPC  H15Y21206   2.285   1.045   8.572  0.9163  0.1289  0.2919
  184SLPC  C31621207   2.466   1.144   8.484  0.8289 -0.0674 -0.4219
  184SLPC  H16X21208   2.487   1.051   8.427 -0.8790  0.6362 -2.3568
  184SLPC  H16Y21209   2.555   1.188   8.534 -0.1915  1.9185 -0.2569
  184SLPC  C31721210   2.413   1.249   8.386  1.1336 -0.3223 -0.5676
  184SLPC  H17X21211   2.409   1.346   8.440  0.4114 -1.3437  1.3081
  184SLPC  H17Y21212   2.304   1.229   8.377  0.9238 -0.5004  1.7631
  184SLPC  C31821213   2.462   1.250   8.241 -0.2312 -0.0830 -0.5235
  184SLPC  H18X21214   2.572   1.253   8.249 -0.3182  2.9869  1.1210
  184SLPC  H18Y21215   2.431   1.336   8.179  1.0220 -0.9741 -2.4675
  184SLPC  H18Z21216   2.432   1.158   8.186  1.0238 -0.2619 -0.9379
  185SLPC     N21217   0.166   2.131   6.339  0.4204  0.1546  0.5573
  185SLPC   C1321218   0.182   1.987   6.379  0.1485  0.3585  0.6695
  185SLPC  H13A21219   0.143   1.982   6.480 -2.2853  2.9972  0.0059
  185SLPC  H13B21220   0.117   1.929   6.316  2.6053 -0.2189 -1.4741
  185SLPC  H13C21221   0.284   1.953   6.367 -0.0174  0.7870 -3.1075
  185SLPC   C1421222   0.025   2.158   6.358 -0.3065  0.2612  0.5832
  185SLPC  H14A21223   0.009   2.262   6.380  0.6402  0.9451 -1.6512
  185SLPC  H14B21224  -0.036   2.126   6.275  1.1004 -3.4984  0.7864
  185SLPC  H14C21225  -0.008   2.100   6.443  1.7008  0.3587  1.4811
  185SLPC   C1521226   0.208   2.150   6.197  0.6780  0.4002  0.3532
  185SLPC  H15A21227   0.133   2.107   6.133  1.5758  2.5617 -2.3042
  185SLPC  H15B21228   0.220   2.255   6.175 -1.1458  0.0753 -2.7109
  185SLPC  H15C21229   0.304   2.100   6.187  1.0384  1.1986 -0.2722
  185SLPC   C1221230   0.261   2.214   6.434  0.2430  0.7936 -0.9751
  185SLPC  H12A21231   0.357   2.175   6.404 -0.6614 -2.6999  0.1278
  185SLPC  H12B21232   0.254   2.187   6.539 -1.6235  2.2053 -0.6671
  185SLPC   C1121233   0.272   2.366   6.421 -0.2014  0.0094 -0.7008
  185SLPC  H11A21234   0.321   2.409   6.511 -0.5205  0.2735 -0.6497
  185SLPC  H11B21235   0.167   2.403   6.420 -0.7760 -1.5417 -0.8754
  185SLPC     P21236   0.497   2.380   6.290 -0.3387 -0.6068 -0.1190
  185SLPC   O1321237   0.536   2.241   6.298  0.8619 -0.2167 -0.5442
  185SLPC   O1421238   0.544   2.458   6.172  0.6520  0.3516 -0.8601
  185SLPC   O1221239   0.339   2.403   6.306 -0.6634 -0.4347  1.0491
  185SLPC   O1121240   0.549   2.452   6.422 -0.1626  0.4153 -0.3942
  185SLPC    C121241   0.661   2.412   6.496 -0.3682  0.3531  0.5948
  185SLPC    HA21242   0.738   2.366   6.430 -0.4451 -0.4282  1.0313
  185SLPC    HB21243   0.699   2.503   6.546  1.1230  0.2982 -0.3737
  185SLPC    C221244   0.629   2.320   6.614  0.5412  0.2631  0.7303
  185SLPC    HS21245   0.575   2.231   6.575  0.8757  0.9253 -1.3280
  185SLPC   O2121246   0.547   2.391   6.709  0.1206 -0.1724 -0.4295
  185SLPC   C2121247   0.429   2.332   6.747 -0.0063 -0.1213  0.2408
  185SLPC   O2221248   0.384   2.227   6.706  0.3768  0.3271 -0.4616
  185SLPC   C2221249   0.358   2.424   6.848  0.5229 -0.1559 -0.4776
  185SLPC   H2R21250   0.414   2.425   6.944 -0.1738 -0.1476 -0.0647
  185SLPC   H2S21251   0.370   2.525   6.803  0.3087  0.8839  1.6622
  185SLPC    C321252   0.762   2.273   6.687 -0.5540  0.0237 -0.6719
  185SLPC    HX21253   0.799   2.370   6.725 -1.4939  0.6185 -1.2350
  185SLPC    HY21254   0.838   2.232   6.618 -0.6210  0.2658 -0.8925
  185SLPC   O3121255   0.728   2.198   6.806 -0.1520 -0.1540  0.1410
  185SLPC   C3121256   0.699   2.072   6.779  0.3018  0.2771  0.0292
  185SLPC   O3221257   0.712   2.024   6.669  0.5975  0.0078 -0.0267
  185SLPC   C3221258   0.689   1.995   6.911  0.4805  0.2002  0.8055
  185SLPC   H2X21259   0.783   1.938   6.923  0.3632 -0.0970  0.3631
  185SLPC   H2Y21260   0.610   1.917   6.899  0.4489 -0.1576  3.0401
  185SLPC   C2321261   0.214   2.393   6.876 -0.5668  0.7216 -0.7025
  185SLPC   H3R21262   0.175   2.310   6.812 -2.1812 -0.0483  1.1742
  185SLPC   H3S21263   0.161   2.490   6.863  0.8834  1.5266 -0.8253
  185SLPC   C2421264   0.187   2.354   7.021 -0.3299  0.1409 -0.3997
  185SLPC   H4R21265   0.078   2.352   7.043 -0.2500  1.0809  0.1551
  185SLPC   H4S21266   0.228   2.429   7.093  0.4979 -1.3708  0.7729
  185SLPC   C2521267   0.237   2.216   7.068  0.1396  0.0662  0.6940
  185SLPC   H5R21268   0.345   2.195   7.053  0.0474 -4.4504  4.0412
  185SLPC   H5S21269   0.180   2.139   7.011  0.8097 -0.1314  0.2835
  185SLPC   C2621270   0.203   2.191   7.215  0.0603 -0.7536 -0.1358
  185SLPC   H6R21271   0.095   2.191   7.243 -0.3219 -2.2238 -1.4535
  185SLPC   H6S21272   0.256   2.269   7.273 -1.5468 -0.7655  1.4564
  185SLPC   C2721273   0.255   2.055   7.259 -0.2962 -0.6656  0.5966
  185SLPC   H7R21274   0.361   2.048   7.226 -0.1498  0.1248  0.8949
  185SLPC   H7S21275   0.192   1.973   7.217  0.3280 -1.1438  0.5846
  185SLPC   C2821276   0.266   2.039   7.413 -0.7117  0.1785  0.6200
  185SLPC   H8R21277   0.342   2.115   7.444 -2.8444  2.7490 -0.1031
  185SLPC   H8S21278   0.303   1.938   7.440 -1.1453  0.4450  2.3091
  185SLPC   C2921279   0.135   2.075   7.486 -0.9380 -0.5752 -0.0163
  185SLPC   H9R21280   0.050   2.040   7.425 -0.7365  0.1593 -0.7308
  185SLPC  C21021281   0.118   2.153   7.602  0.1626  0.1734  0.6205
  185SLPC  H10R21282   0.019   2.186   7.636  0.9373  2.8377  0.4690
  185SLPC  C21121283   0.224   2.220   7.687 -0.2854 -0.1592  0.6851
  185SLPC  H11R21284   0.215   2.331   7.685 -0.3285 -0.0854  2.8190
  185SLPC  H11S21285   0.326   2.198   7.651 -0.7152  0.4478 -0.9937
  185SLPC  C21221286   0.218   2.174   7.827  0.6789 -0.1122  0.2606
  185SLPC  H12R21287   0.295   2.097   7.845  0.6558 -0.1922  0.0231
  185SLPC  C21321288   0.130   2.206   7.922 -0.0241 -0.2427  0.5011
  185SLPC  H13R21289   0.144   2.160   8.021 -1.1867  1.6933  1.6259
  185SLPC  C21421290   0.012   2.300   7.914  0.6806  0.1421  0.0935
  185SLPC  H14R21291   0.007   2.340   7.810 -3.7447 -2.1379 -0.7866
  185SLPC  H14S21292   0.028   2.382   7.988  0.1889  0.2682  0.0653
  185SLPC  C21521293  -0.128   2.245   7.951 -0.1284  0.0843 -0.5389
  185SLPC  H15R21294  -0.118   2.209   8.055 -1.3132 -0.2367 -0.5242
  185SLPC  H15S21295  -0.173   2.168   7.885 -1.6251 -0.4623  1.0505
  185SLPC  C21621296  -0.242   2.347   7.932  0.4971 -0.6725 -0.4098
  185SLPC  H16R21297  -0.248   2.378   7.826  2.8340  0.9290 -0.1419
  185SLPC  H16S21298  -0.203   2.430   7.994  0.0569 -1.8323  1.5493
  185SLPC  C21721299  -0.374   2.296   7.979 -0.6986  0.3005 -1.0432
  185SLPC  H17R21300  -0.353   2.245   8.076 -0.0616  0.3829 -1.1361
  185SLPC  H17S21301  -0.406   2.220   7.905  1.1691  0.2275 -1.8477
  185SLPC  C21821302  -0.478   2.401   7.998 -0.5758  0.1895 -0.0905
  185SLPC  H18R21303  -0.441   2.463   8.082  0.9659 -0.0059 -0.5926
  185SLPC  H18S21304  -0.567   2.344   8.033 -0.0424  0.9690  2.8793
  185SLPC  H18T21305  -0.496   2.461   7.907  1.0349  0.6869 -0.1168
  185SLPC   C3321306   0.667   2.085   7.036 -0.5736 -0.5770 -0.1300
  185SLPC   H3X21307   0.583   2.157   7.026  1.3170  2.0794  1.7080
  185SLPC   H3Y21308   0.752   2.156   7.046 -1.7340  0.9930 -0.9514
  185SLPC   C3421309   0.655   2.012   7.169  0.0028 -0.5802 -0.5407
  185SLPC   H4X21310   0.742   1.945   7.187 -0.4675 -1.6620 -2.0860
  185SLPC   H4Y21311   0.571   1.941   7.156 -1.0729  0.4144  0.7014
  185SLPC   C3521312   0.628   2.100   7.294  0.5351  0.3511  0.0155
  185SLPC   H5X21313   0.531   2.152   7.286 -1.3587 -2.8833  0.0383
  185SLPC   H5Y21314   0.706   2.180   7.295  0.4303  0.4505  0.2819
  185SLPC   C3621315   0.620   2.019   7.423 -0.3558  0.2530  0.5142
  185SLPC   H6X21316   0.700   1.943   7.425 -0.8316 -0.2419  1.0880
  185SLPC   H6Y21317   0.523   1.965   7.414  0.1237 -0.2993 -2.2846
  185SLPC   C3721318   0.628   2.097   7.550  0.4935 -0.3732  0.4494
  185SLPC   H7X21319   0.535   2.155   7.565  0.9565  0.9617 -1.4510
  185SLPC   H7Y21320   0.718   2.161   7.541  0.8317 -0.6863  1.5102
  185SLPC   C3821321   0.630   2.005   7.671  0.0930 -0.0801 -0.3035
  185SLPC   H8X21322   0.727   1.952   7.666  0.4258  0.5025 -0.2118
  185SLPC   H8Y21323   0.542   1.938   7.674 -0.8481  1.1224  0.0965
  185SLPC   C3921324   0.626   2.092   7.798  0.2052 -0.2148  0.5220
  185SLPC   H9X21325   0.541   2.163   7.783  0.2121 -0.5742 -1.6296
  185SLPC   H9Y21326   0.720   2.150   7.794 -2.2375  4.3140  2.0292
  185SLPC  C31021327   0.605   2.002   7.925 -0.1234  0.4048 -0.2730
  185SLPC  H10X21328   0.698   1.954   7.961 -0.3876 -0.1032 -0.2502
  185SLPC  H10Y21329   0.529   1.922   7.911  1.0904 -0.8866  0.2196
  185SLPC  C31121330   0.571   2.081   8.048  0.0652 -0.1656 -0.6973
  185SLPC  H11X21331   0.494   2.157   8.025  1.4382  1.3085 -0.5783
  185SLPC  H11Y21332   0.663   2.123   8.095 -0.7528 -1.8523  2.7825
  185SLPC  C31221333   0.517   2.001   8.163  0.1170  0.4260  0.4883
  185SLPC  H12X21334   0.591   1.930   8.206  0.8710  2.2304  2.3668
  185SLPC  H12Y21335   0.439   1.937   8.116  1.0736  1.3669 -2.5711
  185SLPC  C31321336   0.455   2.092   8.273 -0.2034  1.3436  0.2389
  185SLPC  H13X21337   0.533   2.160   8.313  1.9121 -1.6181  1.5232
  185SLPC  H13Y21338   0.429   2.031   8.362 -0.2093  1.3434  0.2377
  185SLPC  C31421339   0.332   2.170   8.225 -1.0470 -0.2737 -0.1651
  185SLPC  H14X21340   0.274   2.092   8.171  1.1421 -3.7546  2.1245
  185SLPC  H14Y21341   0.369   2.254   8.163 -0.5497  0.6064  1.2781
  185SLPC  C31521342   0.262   2.232   8.341 -0.1398  0.0138 -0.6891
  185SLPC  H15X21343   0.339   2.291   8.395 -0.6004 -1.5709  1.8620
  185SLPC  H15Y21344   0.232   2.145   8.403  1.4643 -2.0309 -2.6183
  185SLPC  C31621345   0.147   2.329   8.292 -0.0127  0.5361  0.4839
  185SLPC  H16X21346   0.065   2.271   8.244  0.6452  0.0345 -0.0490
  185SLPC  H16Y21347   0.193   2.401   8.221 -1.8004  0.3260 -0.9977
  185SLPC  C31721348   0.074   2.409   8.401 -0.3111 -0.4906  0.3500
  185SLPC  H17X21349   0.146   2.471   8.458 -1.6983  1.0380  0.5194
  185SLPC  H17Y21350   0.015   2.352   8.475  1.0765 -0.1632  1.7457
  185SLPC  C31821351  -0.028   2.508   8.331  0.2745 -0.5215 -0.2323
  185SLPC  H18X21352   0.024   2.587   8.273 -0.1945 -1.3971 -1.9174
  185SLPC  H18Y21353  -0.078   2.563   8.413  1.0011 -1.0491  0.5851
  185SLPC  H18Z21354  -0.106   2.456   8.272  0.8738 -0.2736 -1.2638
  186SLPC     N21355   1.552   5.873   6.023 -0.0053  0.3621  0.7260
  186SLPC   C1321356   1.473   5.767   5.941  0.8133  0.1397  0.0997
  186SLPC  H13A21357   1.385   5.738   5.995  1.8477  0.7548  2.1960
  186SLPC  H13B21358   1.455   5.801   5.840  2.8815 -1.6222 -0.9629
  186SLPC  H13C21359   1.528   5.674   5.933 -3.6953 -2.8522  0.3133
  186SLPC   C1421360   1.668   5.924   5.942 -0.2283 -0.3398 -0.1598
  186SLPC  H14A21361   1.734   5.994   5.991 -2.7828  1.8974  0.3276
  186SLPC  H14B21362   1.722   5.839   5.902  1.8872  0.9146 -0.1003
  186SLPC  H14C21363   1.627   5.979   5.859  2.1884 -0.0020 -1.2115
  186SLPC   C1521364   1.595   5.811   6.148  0.3291 -0.2861 -0.6837
  186SLPC  H15A21365   1.654   5.879   6.207  3.2768 -2.8480 -0.4397
  186SLPC  H15B21366   1.503   5.785   6.199 -0.0055 -2.2044 -2.1570
  186SLPC  H15C21367   1.657   5.724   6.131  2.0466  1.0261 -1.4443
  186SLPC   C1221368   1.469   5.997   6.043 -0.1498  0.0594  0.0002
  186SLPC  H12A21369   1.445   6.048   5.951 -2.0957  1.7161  1.3475
  186SLPC  H12B21370   1.528   6.068   6.100 -1.2680  0.0744  1.1884
  186SLPC   C1121371   1.336   5.984   6.115  0.4287 -0.4730 -0.4534
  186SLPC  H11A21372   1.263   5.952   6.038 -0.4114 -0.4562  0.3312
  186SLPC  H11B21373   1.299   6.084   6.145  0.1960 -0.1473 -1.7533
  186SLPC     P21374   1.195   5.856   6.290  0.1058 -0.6887  0.0583
  186SLPC   O1321375   1.160   5.949   6.404 -0.4717  0.0864  0.0068
  186SLPC   O1421376   1.101   5.840   6.182  0.3943 -0.4521  0.6334
  186SLPC   O1221377   1.339   5.899   6.233  0.0975 -0.8845 -0.0729
  186SLPC   O1121378   1.210   5.709   6.348  0.5175  0.5340  0.2907
  186SLPC    C121379   1.333   5.640   6.359  0.1490  0.5741  0.3866
  186SLPC    HA21380   1.350   5.581   6.266 -2.4307  1.8678 -1.0386
  186SLPC    HB21381   1.422   5.705   6.369  0.4893  0.3846 -1.1263
  186SLPC    C221382   1.331   5.549   6.485 -0.5759 -0.0429  0.5935
  186SLPC    HS21383   1.236   5.492   6.488  1.2384 -3.3143  0.9439
  186SLPC   O2121384   1.355   5.627   6.602  0.0823 -0.2613 -0.4911
  186SLPC   C2121385   1.245   5.682   6.656 -0.3610  0.5519 -0.5364
  186SLPC   O2221386   1.133   5.643   6.642 -0.1521  0.2523 -0.9531
  186SLPC   C2221387   1.283   5.810   6.726 -0.2951  0.2776  0.2661
  186SLPC   H2R21388   1.301   5.896   6.658  0.1015 -2.1257 -2.8835
  186SLPC   H2S21389   1.200   5.850   6.789  0.7460  1.6992  0.7945
  186SLPC    C321390   1.448   5.451   6.475 -0.5732  0.3734 -0.0417
  186SLPC    HX21391   1.537   5.514   6.454  0.2711  0.4912  3.3655
  186SLPC    HY21392   1.421   5.376   6.397  0.4770 -0.2287  0.1509
  186SLPC   O3121393   1.461   5.378   6.605 -0.2104  0.1028 -1.1406
  186SLPC   C3121394   1.585   5.354   6.640 -0.4594  0.1897 -0.3741
  186SLPC   O3221395   1.689   5.392   6.585 -0.1438 -0.5898  0.3265
  186SLPC   C3221396   1.579   5.250   6.753 -0.7433 -0.4080  0.0686
  186SLPC   H2X21397   1.512   5.166   6.725  0.2091 -0.6082 -1.7809
  186SLPC   H2Y21398   1.543   5.290   6.850  1.7796 -2.3790  1.9676
  186SLPC   C2321399   1.400   5.786   6.830  0.3589  0.3466  0.1892
  186SLPC   H3R21400   1.440   5.881   6.871  0.5914  0.3614 -0.0733
  186SLPC   H3S21401   1.487   5.735   6.785  1.2464  1.3640  0.7092
  186SLPC   C2421402   1.358   5.706   6.951  0.0576 -0.3935 -0.8494
  186SLPC   H4R21403   1.276   5.633   6.933  1.3521 -2.6683  1.7086
  186SLPC   H4S21404   1.308   5.773   7.024  1.9630 -0.8454  1.0078
  186SLPC   C2521405   1.475   5.648   7.029 -0.0925 -1.1105 -0.1551
  186SLPC   H5R21406   1.554   5.726   7.037 -1.5748  0.3537  0.8441
  186SLPC   H5S21407   1.518   5.564   6.970 -0.9829 -0.5822 -1.5985
  186SLPC   C2621408   1.443   5.607   7.177  0.3184  0.2770  0.4681
  186SLPC   H6R21409   1.367   5.526   7.171 -0.6895  0.9558  2.8162
  186SLPC   H6S21410   1.393   5.693   7.226  0.9126  1.0062 -0.1904
  186SLPC   C2721411   1.577   5.574   7.257 -0.5194 -0.0518 -0.6358
  186SLPC   H7R21412   1.632   5.670   7.272  0.6359 -0.6428 -0.9202
  186SLPC   H7S21413   1.648   5.514   7.196  0.0882  0.0194 -0.0047
  186SLPC   C2821414   1.548   5.512   7.394  0.0827  0.0298  0.4699
  186SLPC   H8R21415   1.646   5.500   7.443  0.3686 -0.0766 -0.1200
  186SLPC   H8S21416   1.502   5.412   7.373  1.6678 -0.4544 -0.8996
  186SLPC   C2921417   1.466   5.593   7.488 -0.4735  0.0947  0.0268
  186SLPC   H9R21418   1.466   5.703   7.481 -0.3771  0.0674 -0.3783
  186SLPC  C21021419   1.399   5.538   7.593  0.6705 -0.9433  0.1037
  186SLPC  H10R21420   1.352   5.608   7.664  0.0321 -0.2359 -0.9754
  186SLPC  C21121421   1.389   5.393   7.624  0.9162  0.8845 -0.3705
  186SLPC  H11R21422   1.463   5.357   7.699 -0.2319  0.8672  0.8051
  186SLPC  H11S21423   1.410   5.328   7.536  1.1869  2.0278 -1.1660
  186SLPC  C21221424   1.241   5.356   7.665  0.2712  0.4776 -0.1242
  186SLPC  H12R21425   1.157   5.404   7.611 -1.1183 -0.7561  0.8573
  186SLPC  C21321426   1.206   5.272   7.764 -0.2888 -0.4156  0.1155
  186SLPC  H13R21427   1.099   5.254   7.782 -0.0832  0.9581  3.3097
  186SLPC  C21421428   1.289   5.193   7.858 -0.0081 -0.3944  0.7477
  186SLPC  H14R21429   1.240   5.197   7.958 -3.5487 -1.7253 -0.7672
  186SLPC  H14S21430   1.387   5.245   7.869 -0.8374  1.1251  1.1960
  186SLPC  C21521431   1.310   5.054   7.811  0.0525  0.0396 -0.3599
  186SLPC  H15R21432   1.396   5.016   7.869 -0.5112 -2.6046 -1.1392
  186SLPC  H15S21433   1.352   5.054   7.708  2.1887 -1.8958  0.4197
  186SLPC  C21621434   1.188   4.961   7.827  0.4203 -0.5020  0.3844
  186SLPC  H16R21435   1.197   4.868   7.767 -1.2251 -0.1711 -0.4331
  186SLPC  H16S21436   1.102   5.024   7.796  0.9074  0.1860  0.3943
  186SLPC  C21721437   1.154   4.914   7.971  0.1109 -0.2622 -0.2050
  186SLPC  H17R21438   1.154   5.007   8.033 -1.2756  0.2534 -0.9209
  186SLPC  H17S21439   1.236   4.847   8.004 -1.6557 -3.9716 -2.6091
  186SLPC  C21821440   1.022   4.844   7.989  0.1851  0.0739 -0.3204
  186SLPC  H18R21441   0.934   4.910   8.002 -0.3321 -0.8016  0.7663
  186SLPC  H18S21442   1.020   4.770   8.072  2.1216 -0.7048 -0.9157
  186SLPC  H18T21443   1.014   4.789   7.892  1.3639 -0.4123 -0.1570
  186SLPC   C3321444   1.717   5.184   6.773  0.3362  0.7536  0.1264
  186SLPC   H3X21445   1.787   5.259   6.816  0.2313  0.5918  0.5770
  186SLPC   H3Y21446   1.754   5.137   6.679  0.0025 -1.3749  1.0199
  186SLPC   C3421447   1.706   5.060   6.869 -0.7942 -0.0443  0.0778
  186SLPC   H4X21448   1.808   5.015   6.865 -2.2072 -3.4466 -1.1486
  186SLPC   H4Y21449   1.645   4.977   6.828  1.1889 -0.8859 -1.3288
  186SLPC   C3521450   1.677   5.094   7.014  0.0791 -0.2839 -0.6972
  186SLPC   H5X21451   1.664   4.999   7.071 -1.2951 -0.8760 -1.9312
  186SLPC   H5Y21452   1.588   5.160   7.015  1.7342  2.0881 -0.0307
  186SLPC   C3621453   1.790   5.161   7.092  0.4136 -0.1071  0.5028
  186SLPC   H6X21454   1.792   5.258   7.039 -1.2270  0.1736  0.8981
  186SLPC   H6Y21455   1.889   5.113   7.073  0.7942  1.7086 -2.6525
  186SLPC   C3721456   1.746   5.183   7.243 -0.2183 -0.7911 -0.1451
  186SLPC   H7X21457   1.638   5.207   7.251 -0.2813 -0.8964 -0.6722
  186SLPC   H7Y21458   1.805   5.272   7.273 -0.1153 -0.7881 -0.3579
  186SLPC   C3821459   1.780   5.062   7.331 -0.3639 -0.0294  0.2453
  186SLPC   H8X21460   1.890   5.067   7.348 -0.1424  0.0263 -1.0463
  186SLPC   H8Y21461   1.758   4.979   7.261 -0.8881 -0.3934  0.8437
  186SLPC   C3921462   1.696   5.056   7.460 -0.5700 -0.0821 -0.2087
  186SLPC   H9X21463   1.736   4.965   7.511  1.3525  1.5865  1.4593
  186SLPC   H9Y21464   1.592   5.058   7.422 -1.0272 -0.2224  0.9848
  186SLPC  C31021465   1.715   5.173   7.556  0.5683 -0.1853  0.0643
  186SLPC  H10X21466   1.645   5.257   7.536  0.2248 -1.1227 -3.1712
  186SLPC  H10Y21467   1.820   5.205   7.541  1.1031 -0.8959  1.9777
  186SLPC  C31121468   1.716   5.124   7.700  0.6410 -0.1736 -0.2447
  186SLPC  H11X21469   1.794   5.045   7.704  0.6022 -0.1996  0.0350
  186SLPC  H11Y21470   1.616   5.075   7.705 -0.9300  2.8974  2.2053
  186SLPC  C31221471   1.741   5.237   7.800  0.4979  0.0152  0.4621
  186SLPC  H12X21472   1.672   5.322   7.781 -1.5524 -0.8185  3.4133
  186SLPC  H12Y21473   1.844   5.271   7.777  1.6953 -3.2050  0.6389
  186SLPC  C31321474   1.725   5.200   7.950 -0.5311  0.3650  0.2149
  186SLPC  H13X21475   1.808   5.137   7.989  0.6860  1.8047  0.0217
  186SLPC  H13Y21476   1.630   5.149   7.978 -0.9934  0.8678 -0.4085
  186SLPC  C31421477   1.723   5.327   8.034  0.3027  0.2110 -0.0711
  186SLPC  H14X21478   1.621   5.370   8.025 -0.1683 -0.7805  0.3704
  186SLPC  H14Y21479   1.794   5.396   7.983  0.0991 -0.7229 -1.6746
  186SLPC  C31521480   1.759   5.320   8.179  0.2473 -0.5202  0.1972
  186SLPC  H15X21481   1.857   5.370   8.196  0.0633 -0.3072  0.6530
  186SLPC  H15Y21482   1.774   5.214   8.211  1.7942 -0.3861  0.0211
  186SLPC  C31621483   1.657   5.374   8.279 -0.0246  0.2178 -0.7958
  186SLPC  H16X21484   1.556   5.326   8.276  0.0955 -0.3978  2.2055
  186SLPC  H16Y21485   1.639   5.482   8.260 -0.0022  1.0238  3.0442
  186SLPC  C31721486   1.707   5.350   8.423  0.7200 -0.7072  0.1586
  186SLPC  H17X21487   1.802   5.407   8.433  0.0601  0.3960  0.3526
  186SLPC  H17Y21488   1.731   5.243   8.441  0.7116 -0.5894  0.8943
  186SLPC  C31821489   1.618   5.395   8.540 -0.1738 -0.3176  0.4257
  186SLPC  H18X21490   1.511   5.365   8.533 -0.0175 -0.6774 -0.4808
  186SLPC  H18Y21491   1.618   5.506   8.548 -1.3218 -0.3722  1.5526
  186SLPC  H18Z21492   1.650   5.360   8.640 -0.5362  0.6245  0.8883
  187SLPC     N21493   0.916   0.684   6.299  0.1551  0.5243 -0.5016
  187SLPC   C1321494   0.782   0.617   6.270 -0.4485  0.1802  0.0155
  187SLPC  H13A21495   0.705   0.686   6.302 -0.7861 -0.3883  0.4479
  187SLPC  H13B21496   0.773   0.597   6.164  0.8197 -0.1053 -0.0448
  187SLPC  H13C21497   0.766   0.528   6.329 -1.0601 -0.6537 -1.3588
  187SLPC   C1421498   0.907   0.745   6.436  0.1857 -0.2872  0.3181
  187SLPC  H14A21499   0.908   0.667   6.511  0.9205  0.0808  0.7038
  187SLPC  H14B21500   0.995   0.802   6.463  1.1727 -1.5042 -0.2459
  187SLPC  H14C21501   0.812   0.794   6.450 -0.1213 -0.7482 -0.1380
  187SLPC   C1521502   0.919   0.796   6.201  0.2076 -0.1823  0.6092
  187SLPC  H15A21503   0.938   0.758   6.102  1.9290  1.0314  0.4283
  187SLPC  H15B21504   0.831   0.856   6.218 -1.6811 -2.7725  0.5711
  187SLPC  H15C21505   1.003   0.862   6.218  0.8479 -0.6932 -0.4468
  187SLPC   C1221506   1.028   0.584   6.281 -0.3040 -0.0649 -0.0482
  187SLPC  H12A21507   0.997   0.529   6.193 -1.0296  4.7824 -3.2640
  187SLPC  H12B21508   1.035   0.513   6.361  0.7268  0.9837  0.8202
  187SLPC   C1121509   1.176   0.629   6.257  0.5368  0.0603  0.5162
  187SLPC  H11A21510   1.168   0.693   6.167  0.6759 -0.4749  0.1185
  187SLPC  H11B21511   1.238   0.541   6.233 -0.3781 -0.6804  0.8069
  187SLPC     P21512   1.288   0.617   6.492 -0.3254 -0.1112 -0.1011
  187SLPC   O1321513   1.196   0.509   6.536  0.5170 -0.1492 -0.6536
  187SLPC   O1421514   1.425   0.577   6.449 -0.0549 -0.0459  0.1530
  187SLPC   O1221515   1.218   0.701   6.373 -0.3897  0.0342  0.0551
  187SLPC   O1121516   1.305   0.718   6.603  0.6200 -0.4162 -0.4520
  187SLPC    C121517   1.373   0.847   6.595 -0.0282  0.0744  0.8038
  187SLPC    HA21518   1.372   0.881   6.489 -0.2734 -0.4754  0.6256
  187SLPC    HB21519   1.318   0.920   6.658  0.3220 -1.2539  2.7222
  187SLPC    C221520   1.519   0.851   6.646 -0.5921  0.1930  0.7374
  187SLPC    HS21521   1.586   0.768   6.613 -0.5915 -0.2973  1.9390
  187SLPC   O2121522   1.512   0.833   6.788  0.0666  0.4402 -0.6723
  187SLPC   C2121523   1.624   0.798   6.852 -0.4505  1.0870 -0.8336
  187SLPC   O2221524   1.737   0.785   6.806 -0.2310 -0.0515  0.7297
  187SLPC   C2221525   1.582   0.762   6.997 -0.3867  0.1370 -0.1185
  187SLPC   H2R21526   1.509   0.838   7.033 -1.0372 -1.4571  2.1866
  187SLPC   H2S21527   1.532   0.663   6.985 -0.3233  0.0956 -0.0383
  187SLPC    C321528   1.592   0.976   6.604  0.3720  0.1272  0.2070
  187SLPC    HX21529   1.596   0.993   6.494 -0.4725  1.4868  0.3644
  187SLPC    HY21530   1.702   0.960   6.606  0.0361 -2.8098  0.2723
  187SLPC   O3121531   1.571   1.096   6.687  0.5137 -0.1276  0.5255
  187SLPC   C3121532   1.481   1.181   6.633 -0.3600 -0.3418  0.3468
  187SLPC   O3221533   1.426   1.172   6.523 -0.0399 -0.5078  0.1224
  187SLPC   C3221534   1.480   1.299   6.721  0.8300 -0.9728  0.1316
  187SLPC   H2X21535   1.560   1.374   6.702 -0.8396  0.6517 -0.7340
  187SLPC   H2Y21536   1.479   1.266   6.828  1.5895  2.0310  1.1518
  187SLPC   C2321537   1.704   0.743   7.097  0.8916 -0.6251  0.1255
  187SLPC   H3R21538   1.775   0.827   7.088 -0.5079  0.6794  0.7882
  187SLPC   H3S21539   1.759   0.654   7.059  0.4599 -0.7777 -0.1586
  187SLPC   C2421540   1.656   0.740   7.238 -0.4279 -0.1282 -1.3863
  187SLPC   H4R21541   1.566   0.676   7.254 -0.3093  0.3018  1.5267
  187SLPC   H4S21542   1.627   0.846   7.257 -1.5327 -0.3001 -2.0009
  187SLPC   C2521543   1.759   0.690   7.338  0.1546 -0.1759 -0.0698
  187SLPC   H5R21544   1.840   0.766   7.343 -1.9264  2.1237  0.7648
  187SLPC   H5S21545   1.796   0.591   7.303 -1.3496  0.2829 -3.2815
  187SLPC   C2621546   1.699   0.675   7.475 -0.4629 -0.1483 -0.1008
  187SLPC   H6R21547   1.609   0.610   7.467 -0.8550  0.3356  0.3069
  187SLPC   H6S21548   1.655   0.772   7.508 -1.7946 -0.6323 -0.3586
  187SLPC   C2721549   1.799   0.627   7.591 -0.2670  0.3605  0.2389
  187SLPC   H7R21550   1.903   0.665   7.578  0.8730 -1.9855  1.7530
  187SLPC   H7S21551   1.794   0.516   7.593 -2.1878  0.4331  1.4647
  187SLPC   C2821552   1.764   0.673   7.734  0.1565 -0.4118  0.8242
  187SLPC   H8R21553   1.664   0.627   7.750 -0.1293  0.3515  1.3322
  187SLPC   H8S21554   1.746   0.782   7.724  0.7246 -0.3317  0.6496
  187SLPC   C2921555   1.867   0.649   7.842 -0.6757 -0.1303 -0.5982
  187SLPC   H9R21556   1.963   0.693   7.812 -2.0493  3.9208  0.3298
  187SLPC  C21021557   1.846   0.618   7.969  0.5630 -0.5614 -0.2587
  187SLPC  H10R21558   1.931   0.611   8.038  0.3563  1.9623  0.3613
  187SLPC  C21121559   1.707   0.596   8.023  0.1311 -0.3795 -0.8549
  187SLPC  H11R21560   1.713   0.533   8.114  0.1135  1.0052  0.1359
  187SLPC  H11S21561   1.645   0.545   7.946 -0.5704 -1.2825  0.2871
  187SLPC  C21221562   1.645   0.728   8.054  0.0957 -0.8986  0.2613
  187SLPC  H12R21563   1.704   0.814   8.018  0.6944 -1.3675  0.1124
  187SLPC  C21321564   1.527   0.764   8.112  0.4903  0.0392  0.2376
  187SLPC  H13R21565   1.502   0.871   8.110 -0.7834 -0.2458 -1.0248
  187SLPC  C21421566   1.417   0.670   8.163  0.9209 -0.2083  0.2831
  187SLPC  H14R21567   1.448   0.566   8.136  1.0672 -0.8683  2.7502
  187SLPC  H14S21568   1.318   0.691   8.117 -0.7429  0.3045  3.7709
  187SLPC  C21521569   1.378   0.684   8.316 -1.0373  0.9952  0.0262
  187SLPC  H15R21570   1.473   0.658   8.368 -0.4404  2.8343 -0.0906
  187SLPC  H15S21571   1.304   0.602   8.331 -0.0588 -0.6274 -3.1032
  187SLPC  C21621572   1.322   0.816   8.350  0.1090 -0.3468 -0.6246
  187SLPC  H16R21573   1.267   0.859   8.264 -0.0572 -0.2687 -0.4808
  187SLPC  H16S21574   1.409   0.885   8.363  0.9993 -0.1566 -5.7241
  187SLPC  C21721575   1.236   0.812   8.474 -0.2684  0.0635  0.0598
  187SLPC  H17R21576   1.277   0.749   8.556 -0.6823  0.1921  0.3638
  187SLPC  H17S21577   1.146   0.757   8.442 -1.1161  2.0745 -1.1813
  187SLPC  C21821578   1.209   0.947   8.539  0.0326 -0.3507  0.4617
  187SLPC  H18R21579   1.299   1.010   8.552 -0.1884 -0.2508  1.6266
  187SLPC  H18S21580   1.153   0.926   8.632  0.1808 -0.9966  0.4094
  187SLPC  H18T21581   1.139   0.997   8.467  1.7909  1.2872 -0.1956
  187SLPC   C3321582   1.344   1.371   6.710  0.0955 -0.2084  0.6074
  187SLPC   H3X21583   1.264   1.309   6.755  0.4239 -0.2601  1.1249
  187SLPC   H3Y21584   1.318   1.386   6.603 -0.4812 -0.1478  0.7517
  187SLPC   C3421585   1.340   1.513   6.771 -0.3177 -0.0419  0.5553
  187SLPC   H4X21586   1.230   1.527   6.759 -0.0330  0.2157 -2.5912
  187SLPC   H4Y21587   1.409   1.583   6.720  0.8701 -1.3608  0.2855
  187SLPC   C3521588   1.373   1.506   6.928 -0.1265 -0.0585  0.1761
  187SLPC   H5X21589   1.481   1.485   6.940 -0.2302 -0.9990 -0.4175
  187SLPC   H5Y21590   1.315   1.426   6.979  1.8345 -0.5597  1.7266
  187SLPC   C3621591   1.345   1.642   6.995  0.0404 -0.7281  0.2440
  187SLPC   H6X21592   1.235   1.657   7.000  0.1350 -0.4086  1.9783
  187SLPC   H6Y21593   1.387   1.720   6.927 -0.5250 -1.3429 -0.8260
  187SLPC   C3721594   1.401   1.658   7.134 -0.3277  0.1352  0.1672
  187SLPC   H7X21595   1.350   1.586   7.202 -0.9823 -1.7702 -2.1886
  187SLPC   H7Y21596   1.510   1.637   7.138 -0.2471  0.5465  0.1504
  187SLPC   C3821597   1.394   1.807   7.186 -0.7435  0.1481  0.4838
  187SLPC   H8X21598   1.286   1.834   7.182 -0.5890  0.9215  1.1657
  187SLPC   H8Y21599   1.458   1.878   7.130  0.5077 -1.0880  0.2973
  187SLPC   C3921600   1.444   1.810   7.334  0.6997  0.3497 -0.2795
  187SLPC   H9X21601   1.420   1.917   7.352 -0.9521 -0.2924  1.7370
  187SLPC   H9Y21602   1.552   1.795   7.314  0.4841 -1.0680 -0.4633
  187SLPC  C31021603   1.387   1.714   7.442 -0.2959  0.9654  0.9177
  187SLPC  H10X21604   1.401   1.607   7.414  1.9905  1.7835 -1.6632
  187SLPC  H10Y21605   1.279   1.736   7.444 -0.4130  0.6111 -0.4321
  187SLPC  C31121606   1.451   1.737   7.577  0.6859 -0.5901  0.1805
  187SLPC  H11X21607   1.451   1.847   7.597 -0.2853 -0.2179 -1.6127
  187SLPC  H11Y21608   1.561   1.719   7.568  1.2072  2.4264 -0.6729
  187SLPC  C31221609   1.392   1.645   7.696 -0.3279  0.0394 -0.0701
  187SLPC  H12X21610   1.458   1.652   7.785  2.9822 -0.4585 -2.3021
  187SLPC  H12Y21611   1.400   1.539   7.663 -2.9649 -0.5942  1.0323
  187SLPC  C31321612   1.251   1.674   7.730  0.1311 -0.8114 -0.3918
  187SLPC  H13X21613   1.179   1.649   7.650 -2.1497  1.4853  0.7999
  187SLPC  H13Y21614   1.243   1.783   7.748  0.2737 -1.0173  1.1050
  187SLPC  C31421615   1.214   1.605   7.864  0.5117  0.4697 -0.1262
  187SLPC  H14X21616   1.285   1.631   7.945  1.1158 -1.3421 -0.0278
  187SLPC  H14Y21617   1.201   1.497   7.844 -0.7527  0.4803  0.5740
  187SLPC  C31521618   1.073   1.652   7.915 -0.0432 -0.0640 -0.2007
  187SLPC  H15X21619   1.076   1.762   7.932  2.4136  0.1867 -1.7226
  187SLPC  H15Y21620   1.054   1.613   8.017 -0.8931 -0.0057 -0.3276
  187SLPC  C31621621   0.957   1.624   7.826 -0.5416  0.3184 -0.1867
  187SLPC  H16X21622   0.941   1.522   7.786 -2.0774  0.3691  0.2583
  187SLPC  H16Y21623   0.987   1.683   7.737  1.6993 -0.0525  0.2457
  187SLPC  C31721624   0.823   1.682   7.870 -0.6769  0.2269 -0.6826
  187SLPC  H17X21625   0.750   1.676   7.786  0.2366  0.7489 -1.5333
  187SLPC  H17Y21626   0.839   1.791   7.885 -1.1738  0.2328 -0.1651
  187SLPC  C31821627   0.771   1.620   7.999  0.2374  0.3293 -0.4325
  187SLPC  H18X21628   0.838   1.641   8.085 -0.3960  0.3852  0.0470
  187SLPC  H18Y21629   0.769   1.509   7.992 -0.1470  0.0948  2.4524
  187SLPC  H18Z21630   0.670   1.646   8.036  0.2426 -0.3328  0.0661
  188SLPC     N21631   4.007   4.754   6.105  0.4790 -0.2789 -0.2729
  188SLPC   C1321632   3.896   4.838   6.142 -0.4600 -0.3100 -0.7040
  188SLPC  H13A21633   3.925   4.941   6.130  1.0675 -0.5499  0.5655
  188SLPC  H13B21634   3.802   4.814   6.095 -0.3208 -1.1427 -0.5804
  188SLPC  H13C21635   3.879   4.831   6.248 -4.0763 -0.7744 -1.2011
  188SLPC   C1421636   4.133   4.786   6.181  0.8160  0.2013  0.3253
  188SLPC  H14A21637   4.132   4.770   6.287 -0.6684  1.6817  0.5716
  188SLPC  H14B21638   4.213   4.720   6.150 -1.2715 -1.7808 -1.2416
  188SLPC  H14C21639   4.156   4.890   6.164 -2.1260  0.8511 -0.2993
  188SLPC   C1521640   4.035   4.774   5.960  0.2904  0.3624 -0.1734
  188SLPC  H15A21641   4.055   4.878   5.941 -2.5554  0.7942 -1.3827
  188SLPC  H15B21642   4.122   4.720   5.926 -0.9489 -2.0149  0.2058
  188SLPC  H15C21643   3.957   4.753   5.889  1.3491  0.8895 -1.5355
  188SLPC   C1221644   3.986   4.608   6.114 -0.4783  0.2562 -0.1595
  188SLPC  H12A21645   4.072   4.564   6.067 -0.0935  0.7068  0.1217
  188SLPC  H12B21646   3.896   4.573   6.064 -0.4053 -0.4977  0.2160
  188SLPC   C1121647   3.959   4.545   6.254 -0.9508  0.1832  0.1498
  188SLPC  H11A21648   4.050   4.580   6.307  0.1290 -1.7494 -0.3395
  188SLPC  H11B21649   3.981   4.436   6.256  2.1528  0.7233  1.4944
  188SLPC     P21650   3.694   4.554   6.255  0.1803  0.0727 -0.8014
  188SLPC   O1321651   3.613   4.679   6.272  0.3788  0.1809  0.0598
  188SLPC   O1421652   3.700   4.492   6.119  0.6326 -0.0780  0.4401
  188SLPC   O1221653   3.840   4.591   6.310  0.0090 -0.0009 -0.5011
  188SLPC   O1121654   3.653   4.455   6.362  0.6620  0.1430 -0.3681
  188SLPC    C121655   3.682   4.444   6.498  0.0863  0.3103 -0.3008
  188SLPC    HA21656   3.724   4.343   6.513 -1.8567 -0.5559 -0.3330
  188SLPC    HB21657   3.766   4.512   6.526  0.7627  0.1415 -1.8097
  188SLPC    C221658   3.553   4.472   6.585  0.1688  1.2764 -0.0903
  188SLPC    HS21659   3.508   4.565   6.545 -1.9358  0.7904  1.0008
  188SLPC   O2121660   3.592   4.479   6.722  0.2760 -0.3757  0.0155
  188SLPC   C2121661   3.504   4.544   6.805 -0.4260 -0.4960 -0.2324
  188SLPC   O2221662   3.412   4.612   6.767  0.0664  0.1092 -0.4780
  188SLPC   C2221663   3.543   4.512   6.945 -0.5408 -0.2279 -0.4213
  188SLPC   H2R21664   3.555   4.402   6.956  1.3827  0.0819  1.2158
  188SLPC   H2S21665   3.649   4.547   6.944  0.0515 -1.8830 -2.3401
  188SLPC    C321666   3.434   4.369   6.556  0.4521 -0.6493 -0.2076
  188SLPC    HX21667   3.477   4.270   6.583  1.3471  0.2380  1.7903
  188SLPC    HY21668   3.414   4.357   6.447  1.1267 -1.1585 -0.2827
  188SLPC   O3121669   3.322   4.393   6.638  0.4724  0.2134 -0.5656
  188SLPC   C3121670   3.220   4.313   6.629  0.6577 -0.1529  0.1458
  188SLPC   O3221671   3.208   4.216   6.556 -0.6251 -0.3140 -0.7418
  188SLPC   C3221672   3.128   4.342   6.752  0.2405  0.0303  0.4435
  188SLPC   H2X21673   3.061   4.425   6.721 -2.6718 -0.6788  4.0653
  188SLPC   H2Y21674   3.199   4.381   6.828  0.5648  0.8323 -0.2568
  188SLPC   C2321675   3.455   4.571   7.056 -0.4969 -0.3362  0.4066
  188SLPC   H3R21676   3.367   4.504   7.065 -1.0768  0.2546 -0.6169
  188SLPC   H3S21677   3.408   4.665   7.021 -0.4584  0.4577  2.3702
  188SLPC   C2421678   3.538   4.582   7.184  0.8575 -0.2361 -0.5994
  188SLPC   H4R21679   3.602   4.672   7.173 -0.0875  0.2992 -2.0809
  188SLPC   H4S21680   3.602   4.492   7.194 -2.3222 -2.7970 -1.4858
  188SLPC   C2521681   3.451   4.595   7.312 -0.2802 -0.3385 -0.4752
  188SLPC   H5R21682   3.389   4.503   7.319  0.7585 -0.9560  1.2828
  188SLPC   H5S21683   3.392   4.689   7.313 -0.9598 -0.7166 -2.1261
  188SLPC   C2621684   3.529   4.584   7.444 -0.3168 -0.1773 -0.2024
  188SLPC   H6R21685   3.611   4.658   7.433  1.1599 -2.1006 -3.6849
  188SLPC   H6S21686   3.569   4.481   7.457  0.7264  0.5395  3.3769
  188SLPC   C2721687   3.449   4.627   7.573 -0.6341 -0.3185  0.7384
  188SLPC   H7R21688   3.356   4.569   7.591 -0.8361 -0.5836 -0.9925
  188SLPC   H7S21689   3.414   4.731   7.557  0.0014 -0.2825 -0.5370
  188SLPC   C2821690   3.531   4.615   7.696 -0.1646  0.0426  0.0384
  188SLPC   H8R21691   3.463   4.662   7.770  1.3213  4.1367 -0.8918
  188SLPC   H8S21692   3.628   4.668   7.691 -0.4221  0.6974  1.6312
  188SLPC   C2921693   3.558   4.476   7.750 -0.5954 -0.4658 -0.0458
  188SLPC   H9R21694   3.507   4.386   7.713  1.5697 -1.0367 -1.8412
  188SLPC  C21021695   3.648   4.437   7.839  0.0616 -1.1198 -0.1435
  188SLPC  H10R21696   3.649   4.331   7.871  0.1331 -0.4290  2.4332
  188SLPC  C21121697   3.745   4.537   7.905  0.5804 -0.0276 -0.5327
  188SLPC  H11R21698   3.789   4.603   7.827  0.4389  0.1855 -0.4334
  188SLPC  H11S21699   3.831   4.479   7.944  2.1796  1.5547 -1.5507
  188SLPC  C21221700   3.679   4.620   8.012 -0.1573 -0.0435 -0.2079
  188SLPC  H12R21701   3.569   4.627   8.021 -0.3147 -0.4962 -1.5742
  188SLPC  C21321702   3.748   4.688   8.108 -0.7278 -0.3947  0.1110
  188SLPC  H13R21703   3.686   4.747   8.177  0.8147  1.8369 -0.3280
  188SLPC  C21421704   3.897   4.700   8.127 -0.4438 -0.4043  0.8574
  188SLPC  H14R21705   3.930   4.672   8.025 -1.4944  1.4519 -0.0330
  188SLPC  H14S21706   3.936   4.627   8.201 -0.4526 -0.8910  0.3839
  188SLPC  C21521707   3.954   4.844   8.159 -0.4238  0.8195  0.7098
  188SLPC  H15R21708   3.944   4.854   8.269 -1.3475 -1.9262  0.9502
  188SLPC  H15S21709   3.898   4.922   8.103  0.3952  1.6373  1.0069
  188SLPC  C21621710   4.106   4.860   8.126 -0.3859 -0.3722  0.3626
  188SLPC  H16R21711   4.124   4.883   8.019 -0.5746 -0.4794  0.3081
  188SLPC  H16S21712   4.151   4.764   8.160 -2.0595 -1.3634 -0.1178
  188SLPC  C21721713   4.175   4.977   8.202 -0.6659 -0.0413  0.7106
  188SLPC  H17R21714   4.186   4.961   8.311  2.9228  0.0227  0.4783
  188SLPC  H17S21715   4.110   5.067   8.189 -0.1549  0.4037  1.1745
  188SLPC  C21821716   4.312   5.008   8.136 -0.2082  0.5556 -0.1816
  188SLPC  H18R21717   4.395   4.940   8.165 -1.2661 -0.3653  0.7510
  188SLPC  H18S21718   4.347   5.112   8.153  0.0631 -0.0414  4.1261
  188SLPC  H18T21719   4.306   4.989   8.027 -0.3957 -2.6727  0.3033
  188SLPC   C3321720   3.037   4.222   6.795 -0.3052 -0.7633 -0.1915
  188SLPC   H3X21721   3.029   4.139   6.722 -0.1341 -0.4611 -0.5621
  188SLPC   H3Y21722   2.934   4.258   6.817 -0.4959 -1.1301 -0.4920
  188SLPC   C3421723   3.080   4.157   6.931 -0.4942 -0.2269  0.3935
  188SLPC   H4X21724   3.188   4.134   6.937 -0.5137 -0.0153  4.3309
  188SLPC   H4Y21725   3.017   4.066   6.940 -1.1143  0.1788  0.2722
  188SLPC   C3521726   3.057   4.255   7.047 -0.7861  1.5116 -1.1071
  188SLPC   H5X21727   2.947   4.274   7.046 -0.5929  3.8423  2.7383
  188SLPC   H5Y21728   3.107   4.353   7.031 -2.1280  2.4845  0.4042
  188SLPC   C3621729   3.089   4.189   7.181 -0.0384 -0.3078  0.0246
  188SLPC   H6X21730   3.174   4.118   7.168  0.5567  0.4461 -0.3002
  188SLPC   H6Y21731   3.017   4.115   7.222  0.6196  0.9265  3.8340
  188SLPC   C3721732   3.128   4.280   7.297 -0.1619 -0.4383  0.5154
  188SLPC   H7X21733   3.047   4.353   7.318  0.5205  0.7707 -0.8535
  188SLPC   H7Y21734   3.214   4.347   7.276 -0.6799 -0.4733 -2.1261
  188SLPC   C3821735   3.154   4.197   7.426 -0.2375 -0.2881  0.1279
  188SLPC   H8X21736   3.233   4.122   7.402  0.2543  0.1478  0.3767
  188SLPC   H8Y21737   3.060   4.141   7.443  0.0297 -0.0404  2.7022
  188SLPC   C3921738   3.195   4.286   7.546 -0.0434  0.4052  0.0810
  188SLPC   H9X21739   3.127   4.373   7.553  0.5414  0.8063  0.9692
  188SLPC   H9Y21740   3.296   4.333   7.537 -0.6140  1.7536  0.4255
  188SLPC  C31021741   3.189   4.205   7.682  0.0689 -0.5144 -0.0689
  188SLPC  H10X21742   3.271   4.130   7.679 -0.3163 -1.1586  2.5346
  188SLPC  H10Y21743   3.096   4.144   7.691 -1.3333  1.3891 -0.8696
  188SLPC  C31121744   3.205   4.304   7.798 -0.0634 -0.4567  0.2757
  188SLPC  H11X21745   3.118   4.373   7.803  0.8198  0.7249 -0.2300
  188SLPC  H11Y21746   3.288   4.374   7.777  0.6592 -0.0190  3.9321
  188SLPC  C31221747   3.206   4.228   7.932  0.1795 -1.0390  0.2457
  188SLPC  H12X21748   3.285   4.149   7.934 -0.1885 -1.4347  2.7686
  188SLPC  H12Y21749   3.114   4.170   7.956 -0.5997 -0.9493 -2.3163
  188SLPC  C31321750   3.238   4.314   8.052  0.7297 -0.0774 -0.0263
  188SLPC  H13X21751   3.145   4.374   8.067 -0.3362 -1.1311 -2.0525
  188SLPC  H13Y21752   3.318   4.390   8.039  1.9030 -0.9511  1.6085
  188SLPC  C31421753   3.258   4.234   8.180  0.0068 -0.5760 -0.5091
  188SLPC  H14X21754   3.332   4.154   8.159 -0.0944 -1.0347  0.7702
  188SLPC  H14Y21755   3.157   4.188   8.190 -0.7272  0.4369 -2.6437
  188SLPC  C31521756   3.305   4.318   8.304  0.0972 -0.0014 -0.0035
  188SLPC  H15X21757   3.256   4.274   8.393 -2.6614  0.3381 -1.2601
  188SLPC  H15Y21758   3.250   4.415   8.308 -0.6701 -0.4551  0.4847
  188SLPC  C31621759   3.459   4.322   8.312 -1.2199  1.2455 -0.1473
  188SLPC  H16X21760   3.492   4.375   8.220 -0.4987 -0.7849 -1.1133
  188SLPC  H16Y21761   3.494   4.217   8.318 -2.8392  0.6268 -1.0317
  188SLPC  C31721762   3.520   4.398   8.440 -0.4613  0.3756  0.6601
  188SLPC  H17X21763   3.456   4.487   8.461 -0.0644  0.7212  0.4396
  188SLPC  H17Y21764   3.621   4.432   8.409 -1.4929  1.5319 -1.6537
  188SLPC  C31821765   3.520   4.309   8.562 -0.4376  0.0377  0.7625
  188SLPC  H18X21766   3.416   4.299   8.598 -0.4068  0.4829  0.9769
  188SLPC  H18Y21767   3.588   4.351   8.639 -1.4404  1.1897  1.0315
  188SLPC  H18Z21768   3.568   4.211   8.538 -1.0072  0.5199 -2.8926
  189SLPC     N21769   5.090   4.038   5.834 -0.1379  0.2961 -0.5145
  189SLPC   C1321770   5.231   4.026   5.787  0.1315 -0.2533  0.0340
  189SLPC  H13A21771   5.273   4.126   5.788 -2.8064  1.1573 -2.0904
  189SLPC  H13B21772   5.286   3.960   5.852 -2.1324 -1.7880  0.5280
  189SLPC  H13C21773   5.238   3.990   5.686 -1.1718 -3.1910  0.8783
  189SLPC   C1421774   5.025   3.906   5.838 -0.0121  0.5248  0.8616
  189SLPC  H14A21775   4.933   3.917   5.894 -0.7177 -0.8407  0.0385
  189SLPC  H14B21776   5.006   3.870   5.738  0.2359  0.0240  0.9914
  189SLPC  H14C21777   5.095   3.839   5.885 -0.1066 -0.3372 -0.1982
  189SLPC   C1521778   5.008   4.134   5.751  0.2569  0.2552  0.2536
  189SLPC  H15A21779   5.027   4.236   5.779 -1.4485  0.6866 -0.0301
  189SLPC  H15B21780   5.026   4.117   5.646 -1.6102 -1.7936  0.1678
  189SLPC  H15C21781   4.904   4.107   5.763  0.8254 -2.2057  0.2697
  189SLPC   C1221782   5.087   4.089   5.984  0.2847  0.4112 -0.4135
  189SLPC  H12A21783   4.986   4.105   6.018  1.0027 -0.2074  2.2162
  189SLPC  H12B21784   5.122   4.192   5.985  0.0154  0.5034  1.2631
  189SLPC   C1121785   5.177   4.024   6.087  0.0152  0.9292  0.0982
  189SLPC  H11A21786   5.181   3.914   6.080  0.0980  0.8572  1.1683
  189SLPC  H11B21787   5.130   4.053   6.183 -1.2182  1.6552 -0.7000
  189SLPC     P21788   5.439   4.003   6.066  0.3031  0.3158  0.2814
  189SLPC   O1321789   5.414   3.858   6.090  0.2352 -0.0528  0.4199
  189SLPC   O1421790   5.509   4.041   5.939 -0.1803  0.5963  0.0361
  189SLPC   O1221791   5.304   4.083   6.077 -0.3825 -0.0137  0.8515
  189SLPC   O1121792   5.515   4.065   6.189 -0.0267 -0.3649  0.0716
  189SLPC    C121793   5.502   4.010   6.320  0.2710  0.8022 -0.1025
  189SLPC    HA21794   5.497   3.900   6.308  0.8988  0.5924  1.3138
  189SLPC    HB21795   5.594   4.025   6.381 -0.7181  3.1028  0.9368
  189SLPC    C221796   5.388   4.071   6.401 -0.2693 -0.8450 -0.0756
  189SLPC    HS21797   5.299   4.082   6.335  0.2554 -1.1362 -0.8374
  189SLPC   O2121798   5.435   4.195   6.458  0.7983  0.2399 -0.3571
  189SLPC   C2121799   5.337   4.279   6.507  0.0773 -0.4572 -0.1579
  189SLPC   O2221800   5.227   4.276   6.466  0.2555  0.4829 -0.2428
  189SLPC   C2221801   5.395   4.392   6.601  0.0020  0.2270  0.0432
  189SLPC   H2R21802   5.506   4.389   6.604  0.1420  1.2699 -2.1885
  189SLPC   H2S21803   5.374   4.490   6.554  3.6528  1.1811  0.1337
  189SLPC    C321804   5.347   3.974   6.525 -0.6092  0.2065 -0.3775
  189SLPC    HX21805   5.437   3.943   6.580  1.6240  1.1939 -3.2150
  189SLPC    HY21806   5.304   3.885   6.475  1.3687  0.2158 -2.2189
  189SLPC   O3121807   5.259   4.028   6.624  0.2475 -0.4640  0.0560
  189SLPC   C3121808   5.149   3.956   6.650  0.7830  0.1918  0.6629
  189SLPC   O3221809   5.117   3.849   6.602  1.0019 -0.0235 -0.8409
  189SLPC   C3221810   5.054   4.036   6.738  0.1504  0.2687  0.0248
  189SLPC   H2X21811   4.959   3.978   6.740  0.1330  0.1859 -1.8770
  189SLPC   H2Y21812   5.044   4.141   6.703  0.3789  0.7753  1.4242
  189SLPC   C2321813   5.327   4.399   6.742 -0.5178 -0.1547 -0.6211
  189SLPC   H3R21814   5.336   4.297   6.786 -0.9806  0.5592  1.2005
  189SLPC   H3S21815   5.219   4.423   6.733 -0.4827 -0.1631 -1.1446
  189SLPC   C2421816   5.400   4.513   6.821  0.1378 -0.4314  0.1502
  189SLPC   H4R21817   5.340   4.548   6.907  0.5784  0.6347  0.0397
  189SLPC   H4S21818   5.407   4.605   6.760 -2.2145  0.9309  1.7951
  189SLPC   C2521819   5.541   4.483   6.872 -0.1166  0.3430 -0.3360
  189SLPC   H5R21820   5.582   4.583   6.897  0.5654  0.0603 -0.3260
  189SLPC   H5S21821   5.604   4.441   6.791 -0.0579 -0.3702  0.0711
  189SLPC   C2621822   5.553   4.373   6.982 -0.7428  0.1588  0.0005
  189SLPC   H6R21823   5.662   4.368   7.001 -0.4915 -2.6368 -1.6285
  189SLPC   H6S21824   5.532   4.279   6.926 -0.4606  0.9168 -1.4191
  189SLPC   C2721825   5.471   4.388   7.106  0.4198 -0.4772 -0.2751
  189SLPC   H7R21826   5.446   4.286   7.142  2.3133 -1.2660 -1.0687
  189SLPC   H7S21827   5.374   4.433   7.076  1.0156 -0.5324 -2.4171
  189SLPC   C2821828   5.544   4.471   7.223  0.2803  0.3807 -0.0381
  189SLPC   H8R21829   5.642   4.421   7.237 -0.9337 -1.8428  1.0668
  189SLPC   H8S21830   5.499   4.436   7.318 -0.6521 -0.1294 -0.6584
  189SLPC   C2921831   5.552   4.613   7.198  0.1875 -1.1790 -0.0468
  189SLPC   H9R21832   5.587   4.642   7.098  2.4477 -1.2347  0.6641
  189SLPC  C21021833   5.532   4.716   7.292  0.3387  0.0275  0.4422
  189SLPC  H10R21834   5.554   4.821   7.270 -0.4296 -0.0250 -0.6609
  189SLPC  C21121835   5.491   4.703   7.435  0.0332 -0.3195  0.9085
  189SLPC  H11R21836   5.445   4.604   7.455  0.3342 -0.9046 -1.1095
  189SLPC  H11S21837   5.416   4.781   7.457 -1.7101 -1.1853 -1.5986
  189SLPC  C21221838   5.601   4.717   7.542  0.0354 -0.6447  0.9975
  189SLPC  H12R21839   5.692   4.763   7.500 -0.4905 -1.7378 -1.5258
  189SLPC  C21321840   5.598   4.681   7.670  0.0167  0.0699  0.1846
  189SLPC  H13R21841   5.679   4.678   7.745 -0.2797 -2.2137  0.4844
  189SLPC  C21421842   5.471   4.631   7.734 -0.1469 -0.3699 -0.1966
  189SLPC  H14R21843   5.395   4.619   7.654 -0.5608  0.8741 -0.0225
  189SLPC  H14S21844   5.424   4.716   7.788  1.4811  1.0481 -0.9073
  189SLPC  C21521845   5.482   4.511   7.821 -0.4554 -0.3925  0.4234
  189SLPC  H15R21846   5.544   4.534   7.910 -0.7031  2.0302  0.0588
  189SLPC  H15S21847   5.522   4.433   7.754  0.3978 -0.6780  1.2461
  189SLPC  C21621848   5.355   4.456   7.881  0.2305  0.1127 -0.6302
  189SLPC  H16R21849   5.371   4.368   7.947  0.0028 -0.3178 -1.1434
  189SLPC  H16S21850   5.290   4.426   7.796 -1.2984 -0.7350  0.7814
  189SLPC  C21721851   5.272   4.561   7.963 -0.2490 -0.0693  0.6326
  189SLPC  H17R21852   5.252   4.652   7.902  2.5340 -0.5283 -1.1900
  189SLPC  H17S21853   5.335   4.593   8.049 -1.0152 -0.6036  1.4119
  189SLPC  C21821854   5.139   4.504   8.025 -0.3381  0.0908 -0.1375
  189SLPC  H18R21855   5.103   4.581   8.097 -3.4393 -0.4208 -0.9847
  189SLPC  H18S21856   5.158   4.402   8.065 -1.2320 -1.5639 -3.5979
  189SLPC  H18T21857   5.075   4.496   7.935  1.1551 -0.4573 -1.1840
  189SLPC   C3321858   5.108   4.044   6.882  0.2644 -0.8098  0.2851
  189SLPC   H3X21859   5.204   4.100   6.883 -1.4703  2.4111 -0.0065
  189SLPC   H3Y21860   5.118   3.941   6.923 -1.8980 -0.5575  1.6322
  189SLPC   C3421861   5.002   4.093   6.979 -0.1759  0.4935 -0.0481
  189SLPC   H4X21862   4.935   4.007   6.995  1.1963 -0.6129 -0.0612
  189SLPC   H4Y21863   4.941   4.167   6.922  1.1209  0.6017 -1.3670
  189SLPC   C3521864   5.053   4.153   7.117 -0.2696  0.6983  0.3765
  189SLPC   H5X21865   4.965   4.194   7.172  0.1578  1.4386  0.5141
  189SLPC   H5Y21866   5.118   4.241   7.099  0.6565 -0.2988 -1.4767
  189SLPC   C3621867   5.137   4.058   7.208 -0.0409 -0.1442 -0.6072
  189SLPC   H6X21868   5.227   4.020   7.156  1.3332  1.7703  0.2388
  189SLPC   H6Y21869   5.076   3.969   7.234 -0.8262  0.2952 -0.9009
  189SLPC   C3721870   5.190   4.118   7.334 -0.1214  0.1157  0.9786
  189SLPC   H7X21871   5.113   4.189   7.371  0.3006  0.4126  1.2907
  189SLPC   H7Y21872   5.288   4.166   7.313 -1.0809  1.9903  0.5269
  189SLPC   C3821873   5.217   4.015   7.448 -0.7146  0.5088  0.3138
  189SLPC   H8X21874   5.273   3.927   7.411 -1.8742  0.6232 -1.8678
  189SLPC   H8Y21875   5.120   3.973   7.481  0.9937 -3.0532  1.2674
  189SLPC   C3921876   5.283   4.078   7.567 -0.5792 -0.3648 -0.1068
  189SLPC   H9X21877   5.216   4.162   7.597  0.0304 -0.2242  0.9001
  189SLPC   H9Y21878   5.386   4.114   7.543 -0.4529  0.9298  2.1145
  189SLPC  C31021879   5.289   3.982   7.691  0.3076  0.4923 -0.3104
  189SLPC  H10X21880   5.363   3.904   7.662  1.6380  2.1611 -1.6926
  189SLPC  H10Y21881   5.191   3.932   7.700  0.7471 -0.4030 -0.3361
  189SLPC  C31121882   5.350   4.050   7.818  0.4182  0.1870 -0.1338
  189SLPC  H11X21883   5.338   4.156   7.786  3.5087  0.1880 -1.5642
  189SLPC  H11Y21884   5.458   4.027   7.818  0.6125  0.9387 -2.0512
  189SLPC  C31221885   5.289   4.001   7.950  0.3372  0.5090 -0.4230
  189SLPC  H12X21886   5.311   3.892   7.957  2.0201  0.7812 -1.0687
  189SLPC  H12Y21887   5.180   4.020   7.935 -0.2225 -1.4923  0.6465
  189SLPC  C31321888   5.337   4.076   8.070  0.0921  0.0610 -0.0699
  189SLPC  H13X21889   5.261   4.059   8.150 -0.3959  0.0442 -0.5330
  189SLPC  H13Y21890   5.338   4.186   8.051  1.5419  0.2841  1.1519
  189SLPC  C31421891   5.481   4.028   8.120 -0.5387 -0.1987 -0.1716
  189SLPC  H14X21892   5.551   4.048   8.036  0.8877 -1.0287  0.7669
  189SLPC  H14Y21893   5.482   3.918   8.129 -0.8028 -0.1689  0.2586
  189SLPC  C31521894   5.524   4.094   8.250  0.3113  0.5899  0.5944
  189SLPC  H15X21895   5.603   4.029   8.293 -0.0994 -1.1960 -1.2223
  189SLPC  H15Y21896   5.438   4.082   8.319 -0.0748  1.1625  0.2218
  189SLPC  C31621897   5.565   4.243   8.227 -0.4384  0.3359 -0.1859
  189SLPC  H16X21898   5.481   4.292   8.174 -1.3770 -0.7125  0.3063
  189SLPC  H16Y21899   5.639   4.256   8.146 -1.3134  2.5186 -0.7002
  189SLPC  C31721900   5.601   4.308   8.358 -0.3478 -0.3515 -0.2472
  189SLPC  H17X21901   5.697   4.262   8.389 -0.0963  1.2060  1.4912
  189SLPC  H17Y21902   5.523   4.283   8.433  0.7532  1.8878  1.7911
  189SLPC  C31821903   5.615   4.461   8.372  0.4770 -0.0602 -0.0104
  189SLPC  H18X21904   5.522   4.519   8.357  1.2976  0.7384 -2.4963
  189SLPC  H18Y21905   5.686   4.490   8.292 -0.4154  1.0541 -0.4224
  189SLPC  H18Z21906   5.656   4.484   8.472  2.3406  1.0049 -0.9643
  190SLPC     N21907   5.940   4.115   6.206 -0.1924  0.2109  0.0001
  190SLPC   C1321908   5.967   4.255   6.178 -0.5749 -0.4855 -0.2457
  190SLPC  H13A21909   5.872   4.306   6.180 -1.7791 -2.4696 -2.2844
  190SLPC  H13B21910   6.024   4.305   6.254 -0.5389  0.3492 -0.8087
  190SLPC  H13C21911   6.019   4.278   6.086  0.9657  0.8966  0.9117
  190SLPC   C1421912   5.878   4.111   6.335 -0.3953  0.3905  0.3550
  190SLPC  H14A21913   5.774   4.136   6.321 -0.4861  0.2123  0.6995
  190SLPC  H14B21914   5.880   4.008   6.367  3.1751  0.2074 -0.0233
  190SLPC  H14C21915   5.924   4.169   6.414 -1.5960 -0.2110  1.5289
  190SLPC   C1521916   6.079   4.037   6.216 -0.1309 -0.6609 -0.1995
  190SLPC  H15A21917   6.055   3.934   6.238 -0.8192 -0.2931  0.9020
  190SLPC  H15B21918   6.134   4.040   6.124  0.6530  1.6074  0.2963
  190SLPC  H15C21919   6.140   4.082   6.293 -1.4666 -2.0808  1.8255
  190SLPC   C1221920   5.851   4.057   6.100  0.0993  0.0515  0.2782
  190SLPC  H12A21921   5.905   4.062   6.006 -0.0260  1.7966  0.2685
  190SLPC  H12B21922   5.766   4.118   6.074  0.0239 -0.1233  0.1093
  190SLPC   C1121923   5.795   3.913   6.136  0.2871 -0.1099 -0.2543
  190SLPC  H11A21924   5.735   3.868   6.054 -0.0285 -1.1809  0.5415
  190SLPC  H11B21925   5.727   3.925   6.223 -0.3963 -0.4517 -0.7341
  190SLPC     P21926   5.873   3.663   6.149  0.2857 -0.0453 -0.1683
  190SLPC   O1321927   5.732   3.635   6.107 -0.1888 -0.5262  0.2707
  190SLPC   O1421928   5.990   3.619   6.066 -0.1845  0.8443  0.4121
  190SLPC   O1221929   5.898   3.821   6.175 -0.3784  0.2290  0.2320
  190SLPC   O1121930   5.894   3.588   6.285 -0.4526 -0.6858  0.0296
  190SLPC    C121931   5.952   3.650   6.396  0.4199  0.7533 -0.1776
  190SLPC    HA21932   6.016   3.581   6.455 -0.1670  0.7130  0.4109
  190SLPC    HB21933   6.021   3.734   6.371  2.1623 -0.7131 -0.5908
  190SLPC    C221934   5.843   3.706   6.490  0.7526 -0.4675  0.0395
  190SLPC    HS21935   5.784   3.777   6.428 -0.0162  0.3782  1.6991
  190SLPC   O2121936   5.911   3.768   6.598  0.0876 -0.0862  0.0634
  190SLPC   C2121937   5.855   3.870   6.654  0.1976 -0.1485 -0.1958
  190SLPC   O2221938   5.769   3.938   6.602 -0.1019 -0.2299 -0.2952
  190SLPC   C2221939   5.897   3.864   6.806  0.7388 -0.1875 -0.9497
  190SLPC   H2R21940   5.904   3.757   6.837  2.7018  0.2303  0.2605
  190SLPC   H2S21941   6.003   3.897   6.812  0.7290 -0.2041 -0.6722
  190SLPC    C321942   5.742   3.597   6.537  0.4351  0.3824  0.1089
  190SLPC    HX21943   5.809   3.511   6.557 -1.1355 -1.4316 -1.8906
  190SLPC    HY21944   5.674   3.563   6.456  0.0902  0.0885  0.5165
  190SLPC   O3121945   5.670   3.629   6.661 -0.0021 -0.1828  0.3505
  190SLPC   C3121946   5.543   3.671   6.642 -0.3713  0.0112  0.4028
  190SLPC   O3221947   5.485   3.674   6.533 -0.1723  0.2321 -0.6216
  190SLPC   C3221948   5.486   3.695   6.786 -0.8123  0.1471  0.4273
  190SLPC   H2X21949   5.453   3.800   6.797  2.4199  1.4675 -1.1598
  190SLPC   H2Y21950   5.566   3.668   6.858  0.2696  2.0703  0.0030
  190SLPC   C2321951   5.794   3.939   6.890 -0.1565  0.0849  0.4104
  190SLPC   H3R21952   5.695   3.911   6.848  0.5985 -1.4274 -0.4422
  190SLPC   H3S21953   5.793   4.050   6.886  0.8994  0.0824 -0.3260
  190SLPC   C2421954   5.791   3.912   7.040 -0.6967  0.0775  0.1958
  190SLPC   H4R21955   5.863   3.970   7.102  1.2889 -1.9350 -0.0800
  190SLPC   H4S21956   5.809   3.803   7.049  0.4500  0.2835  0.6659
  190SLPC   C2521957   5.657   3.933   7.104  0.0247 -0.4151 -1.2695
  190SLPC   H5R21958   5.580   3.866   7.060 -2.2302  1.4632 -0.3494
  190SLPC   H5S21959   5.608   4.028   7.073 -1.7580 -0.5193  1.0262
  190SLPC   C2621960   5.652   3.929   7.265 -0.2933  0.7447 -0.3380
  190SLPC   H6R21961   5.736   3.863   7.296  0.0955  0.3404 -2.1073
  190SLPC   H6S21962   5.551   3.891   7.288 -0.2479  0.1841 -1.0359
  190SLPC   C2721963   5.670   4.067   7.343  0.1931 -0.0881 -0.3391
  190SLPC   H7R21964   5.588   4.130   7.304 -0.7236  0.4695  2.2564
  190SLPC   H7S21965   5.765   4.108   7.302 -0.2120  0.8847 -0.3242
  190SLPC   C2821966   5.670   4.059   7.494 -0.5870 -0.7246 -0.4282
  190SLPC   H8R21967   5.760   3.996   7.513 -0.2415 -0.0070  0.4436
  190SLPC   H8S21968   5.586   3.998   7.532 -0.5869  0.8625  2.4111
  190SLPC   C2921969   5.689   4.186   7.569  0.5588 -0.3255  0.4014
  190SLPC   H9R21970   5.666   4.276   7.511 -2.0318 -1.0224  0.2138
  190SLPC  C21021971   5.722   4.199   7.697  0.7389  0.4016 -0.9107
  190SLPC  H10R21972   5.738   4.295   7.748  0.7612  0.4752 -1.0547
  190SLPC  C21121973   5.757   4.076   7.782 -0.2895 -0.1744  0.3311
  190SLPC  H11R21974   5.691   3.987   7.774 -0.8848  0.1111  1.8263
  190SLPC  H11S21975   5.746   4.117   7.884 -1.6431  2.0167 -0.6292
  190SLPC  C21221976   5.907   4.051   7.772  0.0691  0.1625 -0.1303
  190SLPC  H12R21977   5.973   4.139   7.775 -1.0203  1.0171 -0.6740
  190SLPC  C21321978   5.965   3.934   7.747 -0.3179 -0.5441 -0.1434
  190SLPC  H13R21979   6.075   3.929   7.751 -0.0875  2.8463  1.6568
  190SLPC  C21421980   5.892   3.802   7.724  0.3915  0.2732 -0.1321
  190SLPC  H14R21981   5.791   3.815   7.680  0.7858  1.0171 -0.8494
  190SLPC  H14S21982   5.897   3.739   7.815  3.1779 -2.2139 -1.7809
  190SLPC  C21521983   5.973   3.720   7.615  0.3305 -0.2360 -0.4442
  190SLPC  H15R21984   5.917   3.625   7.599 -2.0117  1.4650 -3.3716
  190SLPC  H15S21985   6.078   3.694   7.641 -0.6028 -5.4244 -0.6737
  190SLPC  C21621986   5.985   3.791   7.477 -0.5315  0.3938 -0.0101
  190SLPC  H16R21987   6.040   3.887   7.492 -0.1048  0.2052 -0.3587
  190SLPC  H16S21988   5.880   3.817   7.453 -0.7027  1.3828  1.6383
  190SLPC  C21721989   6.055   3.705   7.372 -0.1353 -0.0645 -0.6018
  190SLPC  H17R21990   6.021   3.600   7.363  1.3008 -0.6089 -0.0777
  190SLPC  H17S21991   6.164   3.691   7.391 -0.4648 -0.7092  0.9681
  190SLPC  C21821992   6.053   3.765   7.234 -0.1269  0.1356 -0.1109
  190SLPC  H18R21993   5.953   3.767   7.187 -0.6385 -0.1694  0.9419
  190SLPC  H18S21994   6.122   3.715   7.163 -1.1218 -1.3552 -0.0730
  190SLPC  H18T21995   6.086   3.871   7.239 -2.2340  0.8389 -0.0816
  190SLPC   C3321996   5.367   3.607   6.812  0.5712 -0.2578 -0.1410
  190SLPC   H3X21997   5.411   3.509   6.838 -2.1347 -1.6523 -0.4970
  190SLPC   H3Y21998   5.293   3.602   6.729  0.7737  0.6098 -0.3856
  190SLPC   C3421999   5.285   3.651   6.937 -0.5755  0.3284 -0.0667
  190SLPC   H4X22000   5.290   3.761   6.949 -0.2036  0.2986  0.0552
  190SLPC   H4Y22001   5.334   3.617   7.030  1.4775  2.9210 -0.1050
  190SLPC   C3522002   5.138   3.609   6.928 -0.0976  0.1944  0.3446
  190SLPC   H5X22003   5.127   3.499   6.913 -1.9230  0.4363 -0.3795
  190SLPC   H5Y22004   5.105   3.664   6.837 -0.7530 -1.0204 -0.1882
  190SLPC   C3622005   5.055   3.642   7.050  0.3480  0.3608 -0.0433
  190SLPC   H6X22006   4.947   3.617   7.045  0.1288  1.2331  0.1089
  190SLPC   H6Y22007   5.062   3.751   7.071 -1.1493  0.7220 -1.2547
  190SLPC   C3722008   5.096   3.570   7.178 -0.1246 -0.0395  0.3428
  190SLPC   H7X22009   5.203   3.541   7.172  0.6472  2.4729  0.6590
  190SLPC   H7Y22010   5.034   3.478   7.185 -1.7421  0.9658 -0.4048
  190SLPC   C3822011   5.092   3.655   7.297  0.7672  0.4072 -0.0782
  190SLPC   H8X22012   4.993   3.644   7.346  0.8959  1.9963  0.5878
  190SLPC   H8Y22013   5.097   3.766   7.286 -1.6313  0.7080  1.1995
  190SLPC   C3922014   5.195   3.619   7.407 -0.2002  0.1014  0.3611
  190SLPC   H9X22015   5.296   3.659   7.382 -1.4456  3.1770 -0.1762
  190SLPC   H9Y22016   5.196   3.508   7.414  0.0024  0.1028  0.3775
  190SLPC  C31022017   5.146   3.691   7.531 -1.2602 -0.2409  0.2611
  190SLPC  H10X22018   5.097   3.789   7.513  1.0230  1.4493  2.4645
  190SLPC  H10Y22019   5.230   3.706   7.602 -1.9060  0.5946  0.8644
  190SLPC  C31122020   5.056   3.599   7.606  0.0667 -0.4367  0.6292
  190SLPC  H11X22021   5.110   3.503   7.621 -1.5002 -0.9544  3.7432
  190SLPC  H11Y22022   4.958   3.581   7.557 -0.8936 -1.5105  2.7889
  190SLPC  C31222023   5.038   3.667   7.740 -0.2822  0.8748 -0.7291
  190SLPC  H12X22024   4.999   3.771   7.738 -1.5093  0.4539  0.0050
  190SLPC  H12Y22025   5.137   3.696   7.781 -1.6764  1.7988  2.2436
  190SLPC  C31322026   4.957   3.592   7.838  0.6323  0.3580 -0.3308
  190SLPC  H13X22027   4.986   3.485   7.836 -0.9707 -0.1802  2.0096
  190SLPC  H13Y22028   4.853   3.609   7.805  0.5385 -1.3531 -1.0190
  190SLPC  C31422029   4.983   3.648   7.985 -0.4602 -0.6151  0.3437
  190SLPC  H14X22030   4.921   3.605   8.066 -1.5955  2.5374  1.2760
  190SLPC  H14Y22031   4.959   3.756   7.985  0.0962 -0.4878  0.5173
  190SLPC  C31522032   5.124   3.615   8.048  0.1482  0.2058  0.2110
  190SLPC  H15X22033   5.204   3.648   7.978  0.0089  0.3968  0.1416
  190SLPC  H15Y22034   5.139   3.505   8.052 -0.8778  0.0151 -0.9454
  190SLPC  C31622035   5.160   3.675   8.188 -0.1497 -0.0419 -0.0077
  190SLPC  H16X22036   5.205   3.777   8.179 -2.9263  1.4579  1.6629
  190SLPC  H16Y22037   5.239   3.610   8.231 -0.8343 -0.3901  0.7269
  190SLPC  C31722038   5.056   3.680   8.291 -0.3285 -0.4055  0.2699
  190SLPC  H17X22039   5.045   3.578   8.333 -0.1556 -0.6715 -0.3207
  190SLPC  H17Y22040   4.965   3.712   8.235  1.4107  0.0104 -2.5344
  190SLPC  C31822041   5.100   3.771   8.407 -0.1379 -0.5706  0.3222
  190SLPC  H18X22042   5.003   3.808   8.446 -0.6282 -1.9359  0.4422
  190SLPC  H18Y22043   5.157   3.861   8.377  0.2401 -0.5847  0.9809
  190SLPC  H18Z22044   5.149   3.716   8.490  3.0864 -0.4676 -1.3459
  191SLPC     N22045   4.100   6.691   5.908  0.1375 -0.5926  0.0515
  191SLPC   C1322046   3.965   6.688   5.844 -0.3645 -0.2282  0.3354
  191SLPC  H13A22047   3.919   6.591   5.857 -3.6927  1.2560  0.6239
  191SLPC  H13B22048   3.899   6.763   5.883  1.8829  1.9865  0.1009
  191SLPC  H13C22049   3.967   6.709   5.738 -2.3198  0.5501  0.4172
  191SLPC   C1422050   4.173   6.567   5.862  0.0413 -0.3132 -0.8191
  191SLPC  H14A22051   4.277   6.567   5.893 -0.1964 -0.0838  0.0095
  191SLPC  H14B22052   4.134   6.477   5.907  2.0638 -1.0352 -0.4113
  191SLPC  H14C22053   4.174   6.559   5.754  0.2195 -2.0416 -0.7257
  191SLPC   C1522054   4.083   6.688   6.061  0.0580  0.1860  0.2734
  191SLPC  H15A22055   4.173   6.679   6.120  1.3913  1.0667 -1.5398
  191SLPC  H15B22056   4.030   6.781   6.078  0.6908  0.6685 -0.3554
  191SLPC  H15C22057   4.021   6.610   6.102 -0.2761  0.4708  0.3135
  191SLPC   C1222058   4.173   6.813   5.871 -0.1545  0.3063  0.4084
  191SLPC  H12A22059   4.113   6.897   5.903 -1.0119 -0.3517  0.5548
  191SLPC  H12B22060   4.165   6.815   5.763 -0.8949 -0.3451  0.4496
  191SLPC   C1122061   4.322   6.817   5.917 -0.6179 -0.0400 -0.4269
  191SLPC  H11A22062   4.348   6.790   6.022 -0.5279 -0.2902 -0.5140
  191SLPC  H11B22063   4.357   6.923   5.916 -1.5461  0.2759 -0.6055
  191SLPC     P22064   4.532   6.652   5.872  0.4758  0.7333  0.1884
  191SLPC   O1322065   4.579   6.571   5.764  0.1252 -0.1042  0.3603
  191SLPC   O1422066   4.619   6.753   5.933  0.3829 -0.5324  0.5216
  191SLPC   O1222067   4.398   6.733   5.825  0.7919 -0.1006  0.4255
  191SLPC   O1122068   4.478   6.560   5.983 -0.1141  0.8488 -0.3149
  191SLPC    C122069   4.537   6.538   6.112 -0.1920  0.4698 -0.0065
  191SLPC    HA22070   4.618   6.463   6.100  0.4818  1.1400  0.2827
  191SLPC    HB22071   4.590   6.631   6.143  0.3835  0.5824 -1.2475
  191SLPC    C222072   4.437   6.480   6.214  0.3816  0.2484  0.9485
  191SLPC    HS22073   4.343   6.536   6.198  0.4227  0.4098  1.2561
  191SLPC   O2122074   4.495   6.519   6.348  0.6025  0.2931 -0.1897
  191SLPC   C2122075   4.455   6.636   6.390 -0.5492  0.5444  0.0804
  191SLPC   O2222076   4.362   6.698   6.346 -0.1818 -0.3062  0.1894
  191SLPC   C2222077   4.536   6.673   6.519  0.1257 -0.0436  0.0036
  191SLPC   H2R22078   4.642   6.643   6.508  0.0931  0.0518 -0.6159
  191SLPC   H2S22079   4.528   6.783   6.517 -1.2219 -0.1274 -1.4538
  191SLPC    C322080   4.414   6.328   6.187  0.2802  0.5695  0.0888
  191SLPC    HX22081   4.517   6.289   6.196  0.4488  1.3205  1.7090
  191SLPC    HY22082   4.372   6.308   6.086  0.3457 -3.4384  0.7080
  191SLPC   O3122083   4.323   6.260   6.273  0.2768  0.0209  0.3117
  191SLPC   C3122084   4.196   6.283   6.267 -0.8191 -0.2094 -0.0869
  191SLPC   O3222085   4.143   6.330   6.169  0.3825  0.4173  0.0696
  191SLPC   C3222086   4.122   6.226   6.384  0.3930 -0.2954 -0.7307
  191SLPC   H2X22087   4.155   6.123   6.406 -2.4686 -1.0335  0.6598
  191SLPC   H2Y22088   4.017   6.217   6.349  0.0349 -1.0985  0.4731
  191SLPC   C2322089   4.469   6.601   6.637  0.9097 -0.6703 -0.0645
  191SLPC   H3R22090   4.491   6.494   6.622  2.9411 -0.1450 -1.2240
  191SLPC   H3S22091   4.359   6.613   6.630  0.7431 -1.9968  0.1191
  191SLPC   C2422092   4.518   6.645   6.778 -0.2651  0.2652  0.8818
  191SLPC   H4R22093   4.476   6.747   6.793  1.9330  1.9958 -3.1675
  191SLPC   H4S22094   4.628   6.664   6.780 -0.2422  0.2086  3.0020
  191SLPC   C2522095   4.489   6.542   6.881 -0.2672  0.3685  0.1381
  191SLPC   H5R22096   4.561   6.458   6.877  0.9335  1.3432  0.7621
  191SLPC   H5S22097   4.388   6.497   6.872 -0.6918  1.5531 -1.6985
  191SLPC   C2622098   4.501   6.601   7.028 -0.1347  0.1660 -0.6631
  191SLPC   H6R22099   4.430   6.682   7.058  1.9478  1.5172  0.8553
  191SLPC   H6S22100   4.598   6.654   7.029  0.0476 -0.0687  2.1447
  191SLPC   C2722101   4.490   6.500   7.150 -0.7894 -0.5604  1.0139
  191SLPC   H7R22102   4.524   6.543   7.246 -0.5116  2.2769 -0.2449
  191SLPC   H7S22103   4.554   6.414   7.120 -1.3744 -0.0604 -2.0294
  191SLPC   C2822104   4.346   6.453   7.174  0.3081  0.0803  0.0093
  191SLPC   H8R22105   4.321   6.394   7.083  1.6819 -0.3600 -0.1046
  191SLPC   H8S22106   4.283   6.543   7.186 -1.0853 -1.2117  3.3576
  191SLPC   C2922107   4.328   6.362   7.296  0.0036 -0.7041  0.2950
  191SLPC   H9R22108   4.372   6.262   7.300 -1.4530 -1.3999 -0.3519
  191SLPC  C21022109   4.248   6.392   7.402 -0.5121 -0.5685 -0.2171
  191SLPC  H10R22110   4.252   6.325   7.489  4.2133  0.1789  0.3801
  191SLPC  C21122111   4.178   6.520   7.433 -0.0284 -0.2352 -0.4375
  191SLPC  H11R22112   4.116   6.509   7.525  1.0176 -0.8612  0.2138
  191SLPC  H11S22113   4.111   6.553   7.350 -0.7804 -2.0238 -0.5832
  191SLPC  C21222114   4.288   6.624   7.458 -0.3628  0.3835 -0.6708
  191SLPC  H12R22115   4.354   6.630   7.370 -0.8664 -0.8677 -1.1454
  191SLPC  C21322116   4.303   6.718   7.558  0.1882  0.7238  0.2535
  191SLPC  H13R22117   4.384   6.791   7.553 -1.3058  2.4844  0.7575
  191SLPC  C21422118   4.211   6.760   7.673  0.2396  0.2538  0.3174
  191SLPC  H14R22119   4.123   6.692   7.671  1.9364 -2.1000  0.1383
  191SLPC  H14S22120   4.185   6.867   7.656 -1.4499 -0.1644  0.0397
  191SLPC  C21522121   4.291   6.751   7.810 -0.2283  0.4212  0.5306
  191SLPC  H15R22122   4.393   6.789   7.785  0.1932 -1.1752 -0.3362
  191SLPC  H15S22123   4.310   6.643   7.831 -0.3055  0.0474 -1.2317
  191SLPC  C21622124   4.219   6.798   7.941 -0.0496  0.2023 -0.7443
  191SLPC  H16R22125   4.284   6.772   8.027  0.2766  0.2216 -0.9840
  191SLPC  H16S22126   4.123   6.746   7.963  0.4637 -0.4761 -0.0315
  191SLPC  C21722127   4.180   6.948   7.944  0.0594  0.7741  0.1333
  191SLPC  H17R22128   4.139   6.979   7.845  1.2507 -0.8296 -0.9055
  191SLPC  H17S22129   4.273   7.009   7.940 -1.1647  2.6792 -1.9073
  191SLPC  C21822130   4.091   6.982   8.062  0.1173  0.0972 -0.3372
  191SLPC  H18R22131   4.074   7.087   8.094 -1.1641  0.5071 -2.2311
  191SLPC  H18S22132   4.137   6.950   8.159 -2.1016 -1.2525  0.3300
  191SLPC  H18T22133   3.998   6.923   8.053  0.8786 -1.3552  0.8040
  191SLPC   C3322134   4.151   6.306   6.513 -0.1298 -0.3224  0.0696
  191SLPC   H3X22135   4.260   6.297   6.533 -0.1495  1.6850  1.3708
  191SLPC   H3Y22136   4.091   6.250   6.588 -0.5230 -2.3666 -1.6617
  191SLPC   C3422137   4.102   6.457   6.508 -0.0933  0.0746  1.0456
  191SLPC   H4X22138   4.007   6.457   6.451  0.5791 -0.3231 -0.1120
  191SLPC   H4Y22139   4.175   6.513   6.445 -1.1254  0.0810 -0.2090
  191SLPC   C3522140   4.098   6.531   6.638 -1.3987  0.0692 -0.0980
  191SLPC   H5X22141   4.180   6.511   6.710 -2.3277  1.8899  1.5626
  191SLPC   H5Y22142   4.010   6.502   6.699  0.1020  0.7842  2.5399
  191SLPC   C3622143   4.078   6.672   6.610 -0.4765  0.5825 -0.0530
  191SLPC   H6X22144   3.994   6.687   6.539 -0.5149 -1.6436 -0.5540
  191SLPC   H6Y22145   4.174   6.715   6.575 -0.4304  0.4197 -0.1296
  191SLPC   C3722146   4.039   6.756   6.731 -0.1956 -0.4239 -0.0261
  191SLPC   H7X22147   3.937   6.732   6.769 -0.7096 -2.2532 -2.3590
  191SLPC   H7Y22148   4.025   6.864   6.708  1.1908  0.0257  1.1080
  191SLPC   C3822149   4.142   6.735   6.845 -1.1814 -0.0051  0.3942
  191SLPC   H8X22150   4.242   6.753   6.801  0.1427 -2.4530  2.1435
  191SLPC   H8Y22151   4.131   6.634   6.890 -1.8165 -0.7217 -1.2942
  191SLPC   C3922152   4.134   6.836   6.956  0.2315  0.0816 -0.0271
  191SLPC   H9X22153   4.163   6.934   6.911  0.4146  0.3142  0.5779
  191SLPC   H9Y22154   4.201   6.816   7.042 -0.4166  0.8226  0.6736
  191SLPC  C31022155   3.985   6.844   7.009  0.1131  0.3942  0.3511
  191SLPC  H10X22156   3.937   6.743   7.014 -0.6265  0.7387  0.2799
  191SLPC  H10Y22157   3.930   6.900   6.931  0.3595  0.3642  0.1565
  191SLPC  C31122158   3.980   6.914   7.146 -0.7000  0.7741 -0.3267
  191SLPC  H11X22159   4.017   7.019   7.147  0.0325  0.5948  3.0301
  191SLPC  H11Y22160   4.047   6.859   7.216  0.6613  1.8040 -0.7736
  191SLPC  C31222161   3.840   6.917   7.207 -0.4583 -0.7213 -0.0005
  191SLPC  H12X22162   3.793   6.816   7.202 -1.9438 -0.0704  0.1632
  191SLPC  H12Y22163   3.771   6.991   7.161 -0.1406 -0.9077 -0.7896
  191SLPC  C31322164   3.857   6.963   7.355  0.6639 -0.0359  0.0142
  191SLPC  H13X22165   3.885   7.070   7.345  1.5464 -0.2367  0.2756
  191SLPC  H13Y22166   3.936   6.903   7.404  0.5410 -0.8668 -0.7706
  191SLPC  C31422167   3.722   6.965   7.435 -0.2002  0.3550 -0.4969
  191SLPC  H14X22168   3.699   6.860   7.462 -0.2704 -0.1640 -2.4208
  191SLPC  H14Y22169   3.635   6.990   7.369  1.7635  0.6487 -3.1643
  191SLPC  C31522170   3.728   7.043   7.576 -0.5216  0.2213 -0.6046
  191SLPC  H15X22171   3.635   7.027   7.635 -0.3387  0.5311 -0.2268
  191SLPC  H15Y22172   3.739   7.152   7.559 -3.6179  0.8993  0.9340
  191SLPC  C31622173   3.851   6.992   7.656  0.8784 -0.0085 -0.7960
  191SLPC  H16X22174   3.871   7.047   7.751  2.3262  0.1606 -1.1755
  191SLPC  H16Y22175   3.949   6.983   7.604 -0.3763 -0.7604 -3.1610
  191SLPC  C31722176   3.824   6.842   7.690  0.0637  0.2333 -0.1544
  191SLPC  H17X22177   3.898   6.796   7.759  0.1355 -0.3930 -0.6302
  191SLPC  H17Y22178   3.839   6.787   7.594 -1.1440 -1.7513  0.7307
  191SLPC  C31822179   3.690   6.797   7.754  0.6184 -0.2883 -0.3423
  191SLPC  H18X22180   3.701   6.702   7.810 -0.5011 -0.7638 -0.9081
  191SLPC  H18Y22181   3.609   6.791   7.679  0.4954  0.5641 -0.2879
  191SLPC  H18Z22182   3.652   6.866   7.833 -1.3568 -2.0747  0.3402
  192SLPC     N22183   5.824   6.549   6.505 -0.6131 -0.1045  0.2958
  192SLPC   C1322184   5.764   6.424   6.554 -0.0406 -0.4105  0.2384
  192SLPC  H13A22185   5.822   6.336   6.532 -1.4932 -1.4194  0.3624
  192SLPC  H13B22186   5.753   6.433   6.661  2.2298  2.0647  0.3700
  192SLPC  H13C22187   5.667   6.405   6.510  0.1391  1.1954 -0.9737
  192SLPC   C1422188   5.835   6.529   6.356 -0.4374 -0.1137  0.1278
  192SLPC  H14A22189   5.895   6.442   6.335  1.4218  1.6290 -2.4634
  192SLPC  H14B22190   5.744   6.512   6.302 -0.5606 -0.3725  0.4139
  192SLPC  H14C22191   5.896   6.605   6.309 -3.7212  1.6868 -1.5591
  192SLPC   C1522192   5.958   6.572   6.571  0.3175  0.0275  0.3237
  192SLPC  H15A22193   6.016   6.505   6.508 -0.2422  1.3347 -1.6665
  192SLPC  H15B22194   6.003   6.668   6.552  0.0011 -0.2283 -2.0912
  192SLPC  H15C22195   5.975   6.550   6.676  1.5849 -0.5463  0.0258
  192SLPC   C1222196   5.735   6.669   6.531  0.2167  0.1690  0.1698
  192SLPC  H12A22197   5.634   6.648   6.499  0.7193 -2.1639 -0.0393
  192SLPC  H12B22198   5.773   6.749   6.469 -0.3268  1.8200  1.8572
  192SLPC   C1122199   5.737   6.723   6.680 -0.3997 -0.5405  0.6393
  192SLPC  H11A22200   5.728   6.635   6.747  1.0593 -0.6237  0.7544
  192SLPC  H11B22201   5.644   6.784   6.688 -0.9212 -0.9728 -1.5174
  192SLPC     P22202   5.881   6.934   6.655  0.4821 -0.1807 -0.3700
  192SLPC   O1322203   5.979   7.001   6.737  0.1882  0.2007  0.2714
  192SLPC   O1422204   5.911   6.934   6.509 -0.4088 -0.0037  0.1644
  192SLPC   O1222205   5.860   6.793   6.718 -0.0759  0.3066  0.0273
  192SLPC   O1122206   5.736   7.000   6.679  0.1943 -0.8593  0.7471
  192SLPC    C122207   5.721   7.095   6.788 -0.0790  0.6535 -0.4214
  192SLPC    HA22208   5.815   7.141   6.824 -0.7220 -0.2384  2.7251
  192SLPC    HB22209   5.652   7.174   6.752 -3.3377 -2.1884 -0.9901
  192SLPC    C222210   5.645   7.029   6.905 -0.1137  0.1301 -0.6512
  192SLPC    HS22211   5.641   7.109   6.983  2.3480 -0.2311 -0.0758
  192SLPC   O2122212   5.719   6.915   6.951  0.3714 -0.0136 -0.1109
  192SLPC   C2122213   5.830   6.950   7.024 -0.0527  0.0812 -0.5073
  192SLPC   O2222214   5.853   7.061   7.067 -0.9718 -0.4189  0.5115
  192SLPC   C2222215   5.918   6.832   7.051 -0.3356  0.6867 -0.6750
  192SLPC   H2R22216   5.891   6.740   6.995 -0.5487  0.4363 -0.1691
  192SLPC   H2S22217   6.023   6.866   7.038  1.3482 -3.5377  0.3555
  192SLPC    C322218   5.507   6.983   6.866  0.6758  0.5129 -0.3667
  192SLPC    HX22219   5.487   6.892   6.927  1.5282  0.1383 -0.6423
  192SLPC    HY22220   5.520   6.963   6.758  0.4392  1.1511 -0.5134
  192SLPC   O3122221   5.416   7.092   6.903 -0.3184 -0.0782 -0.3345
  192SLPC   C3122222   5.297   7.062   6.854  0.1168  0.6214 -0.2749
  192SLPC   O3222223   5.277   6.975   6.774 -0.3832  0.3400 -0.0548
  192SLPC   C3222224   5.195   7.147   6.917  0.1384 -0.1658 -0.6000
  192SLPC   H2X22225   5.104   7.135   6.854 -1.1480 -1.3005  1.3552
  192SLPC   H2Y22226   5.234   7.248   6.895  1.3363 -0.7069 -1.0554
  192SLPC   C2322227   5.912   6.799   7.205 -0.1465 -0.9710 -0.9391
  192SLPC   H3R22228   5.938   6.884   7.272  1.6594 -2.5405  0.4751
  192SLPC   H3S22229   5.989   6.720   7.219 -1.9903 -2.7300 -0.1422
  192SLPC   C2422230   5.778   6.743   7.237  0.3982  0.2899 -0.2570
  192SLPC   H4R22231   5.772   6.659   7.164 -0.9858  2.2648 -2.5762
  192SLPC   H4S22232   5.697   6.817   7.221 -0.3196 -0.6643 -1.2647
  192SLPC   C2522233   5.755   6.692   7.377 -0.3040 -0.1862 -0.9468
  192SLPC   H5R22234   5.836   6.624   7.412 -1.9828 -1.5881  0.4040
  192SLPC   H5S22235   5.660   6.637   7.390  0.0608 -0.5060  0.5687
  192SLPC   C2622236   5.736   6.814   7.479  0.4161  0.7998 -0.9499
  192SLPC   H6R22237   5.643   6.872   7.461 -0.2463 -0.5420 -2.0348
  192SLPC   H6S22238   5.828   6.876   7.469  0.3103  1.2408  0.4951
  192SLPC   C2722239   5.732   6.757   7.622 -0.1088 -0.6090 -0.0326
  192SLPC   H7R22240   5.819   6.687   7.628  0.0149 -0.3898  0.9542
  192SLPC   H7S22241   5.636   6.704   7.642  0.7352 -1.1826  2.9885
  192SLPC   C2822242   5.733   6.870   7.712 -0.5021  0.0292 -0.2046
  192SLPC   H8R22243   5.629   6.909   7.714 -0.6507 -0.3267 -0.7856
  192SLPC   H8S22244   5.800   6.953   7.680 -0.1796  0.6962  2.0003
  192SLPC   C2922245   5.776   6.833   7.855 -0.1063 -0.5976 -0.2170
  192SLPC   H9R22246   5.709   6.758   7.899  0.7560 -0.6212  1.1088
  192SLPC  C21022247   5.856   6.900   7.939 -0.6230  0.8627  0.1282
  192SLPC  H10R22248   5.852   6.856   8.040 -2.1100 -0.8991 -0.6311
  192SLPC  C21122249   5.935   7.027   7.916 -0.3871  0.1362 -0.5024
  192SLPC  H11R22250   5.924   7.103   7.995  0.1094 -0.0891 -0.2135
  192SLPC  H11S22251   5.897   7.084   7.829  1.9762  2.5217 -0.0949
  192SLPC  C21222252   6.078   6.980   7.878 -0.5156  0.4196 -0.3098
  192SLPC  H12R22253   6.100   6.946   7.776 -0.5319 -1.6476  0.3211
  192SLPC  C21322254   6.191   6.994   7.950 -0.6439  0.6538 -0.3148
  192SLPC  H13R22255   6.283   6.950   7.909 -1.0602 -2.3472  1.6422
  192SLPC  C21422256   6.206   7.053   8.092 -0.1897 -0.1652 -0.3267
  192SLPC  H14R22257   6.110   7.050   8.148 -0.5572 -3.7395 -0.8653
  192SLPC  H14S22258   6.240   7.158   8.084  2.0557 -0.7338  0.7784
  192SLPC  C21522259   6.312   6.990   8.186 -0.1472 -0.5705  0.3395
  192SLPC  H15R22260   6.299   6.888   8.229  0.9826  0.3115  3.0455
  192SLPC  H15S22261   6.314   7.056   8.276  0.0619  0.4196 -0.3743
  192SLPC  C21622262   6.456   6.971   8.118  0.6145 -0.3528  0.1777
  192SLPC  H16R22263   6.487   7.072   8.083  2.3549 -1.0044 -0.2339
  192SLPC  H16S22264   6.460   6.904   8.030 -0.4332 -0.3908  0.1350
  192SLPC  C21722265   6.549   6.912   8.223  0.2799 -0.3666  0.4805
  192SLPC  H17R22266   6.527   6.967   8.317 -2.0921 -0.4885  0.0507
  192SLPC  H17S22267   6.519   6.806   8.240  0.4597 -0.5184 -0.1188
  192SLPC  C21822268   6.700   6.924   8.211 -0.2882 -0.3933 -0.1195
  192SLPC  H18R22269   6.738   6.893   8.112 -3.0160  0.8501 -1.6591
  192SLPC  H18S22270   6.757   6.877   8.294  0.8707  1.4077  0.1656
  192SLPC  H18T22271   6.716   7.029   8.245 -2.6349 -0.5547  1.8069
  192SLPC   C3322272   5.172   7.116   7.064  0.1039  0.8704  0.1290
  192SLPC   H3X22273   5.102   7.187   7.113  0.3596  0.7658  0.6523
  192SLPC   H3Y22274   5.272   7.126   7.112 -0.1553  1.2178  0.6068
  192SLPC   C3422275   5.115   6.974   7.084 -1.4245  0.0383 -0.4664
  192SLPC   H4X22276   5.183   6.914   7.020 -0.5202  0.2608  0.2738
  192SLPC   H4Y22277   5.007   6.969   7.057 -2.0192  3.9042  0.6037
  192SLPC   C3522278   5.130   6.938   7.232  0.0194 -0.1825 -0.4831
  192SLPC   H5X22279   5.236   6.964   7.255  0.0648 -0.7383 -0.0688
  192SLPC   H5Y22280   5.101   6.831   7.228 -0.2995 -0.0781 -1.1162
  192SLPC   C3622281   5.032   7.022   7.312 -0.2064 -0.0935  0.3649
  192SLPC   H6X22282   4.934   7.018   7.260  0.3326 -0.2025 -0.6665
  192SLPC   H6Y22283   5.062   7.129   7.311 -0.5695  0.0142 -0.8404
  192SLPC   C3722284   5.003   6.969   7.457 -0.9241 -0.1912 -0.2945
  192SLPC   H7X22285   4.943   6.876   7.452 -0.0000 -1.0042  2.2991
  192SLPC   H7Y22286   4.940   7.037   7.518 -0.4094 -0.9403  1.1116
  192SLPC   C3822287   5.123   6.944   7.547  0.2167 -0.8916 -0.3091
  192SLPC   H8X22288   5.194   6.878   7.494 -0.2600 -1.3155 -0.4321
  192SLPC   H8Y22289   5.087   6.889   7.637  1.3688  0.7137  1.1826
  192SLPC   C3922290   5.189   7.081   7.592 -0.0485 -0.2349  0.2153
  192SLPC   H9X22291   5.111   7.133   7.653  2.4012  2.0263  1.6221
  192SLPC   H9Y22292   5.203   7.153   7.509  1.2599 -1.1002 -0.3410
  192SLPC  C31022293   5.319   7.057   7.676 -0.7573  0.1485 -0.6488
  192SLPC  H10X22294   5.391   7.141   7.667 -1.0609  0.6643  1.1845
  192SLPC  H10Y22295   5.370   6.970   7.630 -0.1116 -0.1260  0.5410
  192SLPC  C31122296   5.302   7.032   7.826  0.0724 -0.0848 -0.0277
  192SLPC  H11X22297   5.271   6.927   7.844  1.9978 -0.7352 -0.2857
  192SLPC  H11Y22298   5.213   7.089   7.862  2.0135  3.1031  0.0348
  192SLPC  C31222299   5.425   7.063   7.909 -0.1566 -0.8927  0.9076
  192SLPC  H12X22300   5.448   7.170   7.894 -0.7764 -0.5601  2.2266
  192SLPC  H12Y22301   5.516   7.008   7.876  1.8255  0.9654  2.8988
  192SLPC  C31322302   5.426   7.034   8.061 -0.0881  0.1760 -0.0135
  192SLPC  H13X22303   5.396   6.928   8.068  2.8533 -0.6735  1.2096
  192SLPC  H13Y22304   5.351   7.102   8.106  0.7448  2.5931 -2.0303
  192SLPC  C31422305   5.567   7.050   8.119  0.0896 -0.6915  0.1762
  192SLPC  H14X22306   5.600   7.153   8.091  1.1359 -1.3485 -1.1318
  192SLPC  H14Y22307   5.637   6.976   8.074  2.1035 -0.4010  2.5866
  192SLPC  C31522308   5.562   7.018   8.270 -0.1592 -0.9493  0.1573
  192SLPC  H15X22309   5.566   6.912   8.304 -0.7494 -0.6342  1.2452
  192SLPC  H15Y22310   5.467   7.064   8.305  0.9379 -0.1916  2.2401
  192SLPC  C31622311   5.677   7.087   8.352 -0.2095  1.2242 -0.3393
  192SLPC  H16X22312   5.640   7.106   8.455  0.7142 -0.4028  0.3350
  192SLPC  H16Y22313   5.710   7.180   8.302  0.1240 -0.4485 -3.5128
  192SLPC  C31722314   5.804   6.991   8.358  0.2981 -1.3232  0.0664
  192SLPC  H17X22315   5.835   6.979   8.252 -0.4710  0.5253 -0.4005
  192SLPC  H17Y22316   5.777   6.894   8.406  0.6496 -0.5921  1.8516
  192SLPC  C31822317   5.914   7.051   8.449  0.4936 -0.4178  0.8583
  192SLPC  H18X22318   5.866   7.062   8.548  2.2659  2.4561  1.5136
  192SLPC  H18Y22319   5.931   7.157   8.420  0.9062  0.1114  2.9147
  192SLPC  H18Z22320   6.007   6.989   8.453  0.5442 -0.2928  1.9716
  193SOD    SOD22321   0.840   3.163   6.528  0.3463  0.2729  0.1437
  194SOD    SOD22322   4.610   5.456  13.818  0.2390  0.0587 -0.1594
  195SOD    SOD22323   3.974   1.027   5.893  0.4262  0.7657  0.1270
  196SOD    SOD22324   1.130   1.923  13.244 -0.4045  0.1138 -0.3421
  197SOD    SOD22325   1.824   4.717  15.756 -0.0594  0.1043 -0.2073
  198SOD    SOD22326   5.074   5.526   3.866  0.0289  0.0206  0.2790
  199SOD    SOD22327   6.032   0.810  12.389 -0.4077 -0.1383 -0.1062
  200SOD    SOD22328   4.291   3.145   0.024  0.2938 -0.7358 -0.5674
  201SOD    SOD22329   6.728   5.265  12.007 -0.3256  0.2638 -0.4642
  202SOD    SOD22330   5.974   4.043   0.226  0.0609  0.0817  0.5180
  203SOD    SOD22331   6.032   1.476  16.477 -0.0443  0.4497  0.3677
  204SOD    SOD22332   2.105   2.860  14.368  0.0654  0.1256 -0.2350
  205SOD    SOD22333   6.137   3.864   3.378 -0.2662 -0.3243  0.3577
  206SOD    SOD22334   0.479   4.788   6.088 -0.3610  0.3199  0.0072
  207SOD    SOD22335   1.460   5.949  14.283 -0.0045  0.1334 -0.6155
  208SOD    SOD22336   4.744   4.008  14.492 -0.3504  0.3389  0.2237
  209SOD    SOD22337   6.465   5.403   1.907  0.0899 -0.2176  0.1128
  210SOD    SOD22338   6.405   6.518  12.383  0.4926  0.0666 -0.2507
  211SOD    SOD22339   0.818   4.886  12.155 -0.3852 -0.0695  0.0108
  212SOD    SOD22340   6.418   5.913   5.192 -0.1226  0.3238  0.3438
  213SOD    SOD22341   3.630   6.645  12.029 -0.1228  0.0406  0.0958
  214SOD    SOD22342   0.836   4.610  11.271 -0.0053  0.0114  0.2857
  215SOD    SOD22343   0.734   0.625   1.169  0.2608 -0.0726  0.0795
  216SOD    SOD22344   2.068   1.074   3.684 -0.3259  0.4520 -0.4252
  217SOD    SOD22345   0.669   3.852   1.313 -0.6880 -0.1015  0.1522
  218SOD    SOD22346   3.908   0.610  16.919 -0.0139  0.4586  0.4442
  219SOD    SOD22347   5.121   3.772   2.125  0.3127  0.1804 -0.0206
  220SOD    SOD22348   0.643   4.751   0.566  0.3313  0.3557  0.2086
  221SOD    SOD22349   4.921   3.319   3.821  0.2770  0.3520 -0.1885
  222SOD    SOD22350   2.259   2.758   5.911 -0.0637 -0.3764 -0.2193
  223SOD    SOD22351   1.288   2.380  16.868  0.3088 -0.4129 -0.6855
  224SOD    SOD22352   6.762   4.002   1.752  0.2764 -0.0061 -0.0109
  225SOD    SOD22353   1.523   1.460  10.961  0.0970  0.2846 -0.1093
  226SOD    SOD22354   5.102   6.097  12.773  0.1737 -0.1294  0.5421
  227SOD    SOD22355   0.827   0.002  13.743  0.2866  0.0378  0.2314
  228SOD    SOD22356   4.955   2.430  16.454 -0.2270  0.2506 -0.1635
  229SOD    SOD22357   2.019   1.496  15.186 -0.3727 -0.1206  0.0296
  230SOD    SOD22358   4.044   5.421   0.295  0.0959 -0.0754  0.8326
  231SOD    SOD22359   4.385   3.379   1.235  0.1268 -0.3586  0.3544
  232SOD    SOD22360   6.449   2.827  15.529  0.0235  0.4376 -0.4997
  233SOD    SOD22361   5.023   2.855  11.959 -0.4828  0.2427  0.1696
  234SOD    SOD22362   1.037   1.188  11.289  0.4192  0.2020 -0.1893
  235SOD    SOD22363   6.421   6.518   0.161  0.4962  0.3539 -0.2047
  236SOD    SOD22364   3.933   3.733   5.916 -0.5833  0.2575  0.0177
  237SOD    SOD22365   2.040   0.475   0.245 -0.1080 -0.1549 -0.1421
  238SOD    SOD22366   6.616   5.660  15.786  0.6805 -0.1917  0.1082
  239SOD    SOD22367   3.835   1.418  14.889 -0.1314  0.4387 -0.1113
  240SOD    SOD22368   4.018   2.666  12.959  0.4004 -0.1576 -0.8332
  241SOD    SOD22369   6.773   4.573  13.232 -0.2060 -0.2196  0.2051
  242SOD    SOD22370   0.601   4.036   2.990 -0.1065  0.3276  0.4398
  243SOD    SOD22371   3.687   2.095   3.782  0.3560 -0.1870  0.4140
  244SOD    SOD22372   3.528   4.869  11.267  0.1014 -0.0373  0.0992
  245SOD    SOD22373   5.435   5.406   5.673  0.0696 -0.3243 -0.0716
  246SOD    SOD22374   1.778   2.018  16.785 -0.7400 -0.0264  0.5536
  247SOD    SOD22375   2.498   3.270   6.379  0.2720  0.1954 -0.1502
  248SOD    SOD22376   2.442   0.605   2.392  0.3982 -0.1782 -0.0010
  249SOD    SOD22377   2.432   3.962  16.726 -0.1075 -0.7129 -0.4476
  250SOD    SOD22378   5.221   0.782   4.918 -0.1273 -0.6705  0.3111
  251SOD    SOD22379   4.186   2.620   6.130 -0.1168 -0.3820 -0.6379
  252SOD    SOD22380   2.672   6.075  11.650  0.2864  0.4728  0.3982
  253SOD    SOD22381   3.676   5.691   2.014 -0.1453 -0.3606 -0.1624
  254SOD    SOD22382   1.738   4.696  12.713  0.0972 -0.1904  0.0253
  255SOD    SOD22383   2.459   1.866   3.547  0.4059 -0.3319 -0.5087
  256SOD    SOD22384   0.909   5.311   2.063 -0.3873  0.1819  0.1063
  257SOD    SOD22385   2.957   2.096  12.222  0.2780 -0.3128  0.2428
  258SOD    SOD22386   5.625   2.377   2.496 -0.1705 -0.4992 -0.2544
  259SOD    SOD22387   3.635   2.713  15.392 -0.3940 -0.3454  0.3054
  260SOD    SOD22388   6.142   2.205  11.631 -0.7566 -0.0529 -0.2906
  261SOD    SOD22389   1.713   2.221   6.471 -0.0177 -0.2404  0.1585
  262SOD    SOD22390   0.798   2.073   2.453  0.2543  0.4345 -0.5121
  263SOD    SOD22391   2.062   4.022   5.368 -0.4236  0.1832  0.2325
  264SOD    SOD22392   4.071   3.886   3.483 -0.0913  0.1060 -0.3865
  265SOD    SOD22393   2.732   1.943   5.641 -0.0419 -0.5873  0.3498
  266CLA    CLA22394   2.918   1.305  12.045 -0.2615  0.5097 -0.1735
  267CLA    CLA22395   3.821   6.190   1.061  0.2108 -0.1620  0.2203
  268CLA    CLA22396   1.613   6.164   2.490  0.5786  0.2126  0.0196
  269CLA    CLA22397   5.016   3.234   0.572  0.4994  0.3762  0.2183
  270CLA    CLA22398   0.809   5.250   1.335  0.1406  0.2953  0.4123
  271CLA    CLA22399   1.212   0.056  17.031 -0.2451 -0.0335  0.0098
  272CLA    CLA22400   6.616   4.784  14.045 -0.0884 -0.5772 -0.2117
  273CLA    CLA22401   6.485   4.415  12.547  0.0282 -0.2860 -0.2127
  274CLA    CLA22402   6.527   4.975   0.803  0.0882 -0.0336 -0.2662
  275CLA    CLA22403   3.600   1.633  14.433 -0.2034  0.0113 -0.1065
  276CLA    CLA22404   6.247   0.719   0.514  0.2111 -0.1462  0.2832
  277CLA    CLA22405   6.793   5.694   5.646  0.0616 -0.4625  0.2282
  278CLA    CLA22406   2.644   1.654   2.830  0.0813  0.0619  0.4365
  279CLA    CLA22407   2.485   6.861  12.327  0.3110  0.1424  0.2730
  280CLA    CLA22408   5.755   2.245   1.712  0.2404 -0.5109  0.3610
  281CLA    CLA22409   5.165   3.688  16.839 -0.3425  0.0356 -0.4474
  282CLA    CLA22410   4.169   0.404   2.444  0.0444  0.0179 -0.1484
  283CLA    CLA22411   3.538   0.511  15.028  0.1198  0.1947  0.1244
  284CLA    CLA22412   0.018   5.646   5.009 -0.2874 -0.0639  0.0897
  285CLA    CLA22413   4.882   2.640   2.274  0.2133 -0.2296  0.5645
  286CLA    CLA22414   1.818   1.697  14.307  0.1838  0.0574 -0.1154
  287CLA    CLA22415   1.608   3.110  15.168 -0.0147 -0.1356  0.2006
  288CLA    CLA22416   6.192   4.797   1.702  0.0099 -0.2050  0.0832
  289CLA    CLA22417   1.660   0.322  13.312 -0.0281  0.0520 -0.0498
  290CLA    CLA22418   4.500   6.659  16.064  0.0861  0.3782  0.2236
  291CLA    CLA22419   0.580   4.066  15.222 -0.3029 -0.2507 -0.2101
  292CLA    CLA22420   0.803   0.316   4.120 -0.2130 -0.4349 -0.1207
  293CLA    CLA22421   5.187   3.642   3.266  0.1542  0.0771  0.0543
  294CLA    CLA22422   0.810   2.069  15.142 -0.5753 -0.0978 -0.3964
  295CLA    CLA22423   0.931   3.354   0.957  0.0551  0.1888 -0.1297
  296CLA    CLA22424   0.114   0.056  12.791 -0.2001  0.1470 -0.6477
  297CLA    CLA22425   6.319   0.611   1.659 -0.4087  0.1905 -0.1678
  298CLA    CLA22426   2.606   3.823   4.468 -0.3521 -0.1975 -0.1792
  299CLA    CLA22427   4.711   3.002  14.845  0.5673 -0.2343 -0.1489
  300CLA    CLA22428   3.193   3.366  12.711 -0.1634 -0.0932 -0.2192
  301CLA    CLA22429   1.329   2.147  16.170  0.0860 -0.3185 -0.2175
  302CLA    CLA22430   2.200   4.711   5.394 -0.4095  0.1387 -0.1980
  303CLA    CLA22431   1.849   4.746  16.391 -0.2766  0.1482  0.1728
  304CLA    CLA22432   5.544   0.544  16.857  0.1527 -0.5076  0.0999
  305CLA    CLA22433   5.085   4.651  12.343  0.2171 -0.1268  0.0814
  306CLA    CLA22434   4.670   2.757  15.523  0.2216  0.1591 -0.2101
  307CLA    CLA22435   1.926   6.801   3.967  0.4712 -0.0621 -0.2941
  308CLA    CLA22436   5.953   4.180   2.198  0.2892 -0.2971  0.1452
  309CLA    CLA22437   5.310   5.529  16.131 -0.4429 -0.1137 -0.0661
  310CLA    CLA22438   2.770   4.192   4.217 -0.2524 -0.5713 -0.1695
  311CLA    CLA22439   2.868   5.731   0.075 -0.4607 -0.0194  0.1070
  312CLA    CLA22440   4.621   6.506  14.035  0.1102 -0.0684  0.3197
  313CLA    CLA22441   2.913   4.006   2.978 -0.0094  0.5062  0.2951
  314CLA    CLA22442   0.045   4.085  15.841 -0.2827 -0.1685 -0.0747
  315CLA    CLA22443   4.939   1.441   1.755  0.0309 -0.2021 -0.2575
  316CLA    CLA22444   2.006   4.123  16.963 -0.2001 -0.1513  0.1395
  317CLA    CLA22445   6.605   1.529   2.362  0.5450 -0.0223 -0.3039
  318CLA    CLA22446   5.443   4.739  13.248  0.0077 -0.0913  0.0827
  319TIP3   OH222447   4.710   1.346   0.713 -0.1159 -0.2334 -0.7791
  319TIP3    H122448   4.797   1.385   0.703 -0.9702  2.0177  0.1397
  319TIP3    H222449   4.666   1.364   0.630 -0.1486 -0.2080 -0.7564
  320TIP3   OH222450   2.180   2.184   1.691  0.4683 -0.0971  0.4016
  320TIP3    H122451   2.178   2.265   1.743  0.6075 -0.7876  1.5314
  320TIP3    H222452   2.216   2.119   1.751  0.2497 -1.0241 -0.4541
  321TIP3   OH222453   2.161   0.741   1.443  0.3024 -0.2976  0.4763
  321TIP3    H122454   2.166   0.828   1.481 -0.5181 -0.5653  1.2153
  321TIP3    H222455   2.165   0.681   1.517  0.1104 -0.8731  0.0329
  322TIP3   OH222456   6.319   2.290  11.032  0.1093  0.5646 -0.0330
  322TIP3    H122457   6.300   2.237  10.954  1.0800  1.4368 -0.8914
  322TIP3    H222458   6.354   2.372  10.998 -1.0633  1.6764  1.2802
  323TIP3   OH222459   3.859   0.982  12.786 -0.3042  0.1969 -0.4891
  323TIP3    H122460   3.768   1.012  12.781 -1.0047 -1.3422  1.4671
  323TIP3    H222461   3.907   1.056  12.824 -0.8019  0.8700 -1.1391
  324TIP3   OH222462   5.321   2.251  11.285  0.4518  0.3030  0.0558
  324TIP3    H122463   5.259   2.230  11.355 -1.6527 -0.7793 -1.9891
  324TIP3    H222464   5.279   2.321  11.236  1.6332  0.6755 -0.4446
  325TIP3   OH222465   6.065   4.243   4.274  0.4054 -0.5636  0.1608
  325TIP3    H122466   6.058   4.187   4.196 -1.4168  0.1922 -0.2869
  325TIP3    H222467   6.148   4.220   4.314  2.0900 -0.0308 -2.7682
  326TIP3   OH222468   4.073   5.935   1.806 -0.1820  0.0617  0.1692
  326TIP3    H122469   4.031   5.991   1.871 -1.6482  1.2441 -1.6809
  326TIP3    H222470   4.166   5.939   1.827 -0.6526 -0.1977  2.5884
  327TIP3   OH222471   1.163   5.027  16.572 -0.2602 -0.5957 -0.1050
  327TIP3    H122472   1.203   4.942  16.590  2.9685  0.8893  0.5397
  327TIP3    H222473   1.237   5.089  16.573 -2.5722  2.3980  0.5396
  328TIP3   OH222474   5.690   3.140  14.457  0.1138 -0.4407 -0.1067
  328TIP3    H122475   5.630   3.198  14.504 -0.4383  0.0435 -1.3661
  328TIP3    H222476   5.682   3.056  14.502 -2.1707 -0.6332 -0.7082
  329TIP3   OH222477   6.643   2.516   4.451 -0.2441  0.4305 -0.1109
  329TIP3    H122478   6.566   2.527   4.395  0.5736  0.3167 -1.3185
  329TIP3    H222479   6.664   2.423   4.444  1.2418  0.8196 -1.5746
  330TIP3   OH222480   4.640   0.925   0.155  0.6247 -0.2904  0.2196
  330TIP3    H122481   4.624   0.864   0.227 -0.1389  1.3997  1.5488
  330TIP3    H222482   4.601   0.882   0.079 -3.2850  0.0082  1.7870
  331TIP3   OH222483   1.007   4.119   4.620  0.0026  0.2263 -0.0219
  331TIP3    H122484   1.082   4.141   4.676  1.2681 -0.3687 -1.4019
  331TIP3    H222485   1.014   4.024   4.608 -0.3088  0.3297 -1.0853
  332TIP3   OH222486   3.576   4.672  10.002 -0.1350  0.8512  0.2065
  332TIP3    H122487   3.590   4.740  10.068  0.1096  0.9428  0.0624
  332TIP3    H222488   3.650   4.681   9.943  0.9057 -0.7427  1.2015
  333TIP3   OH222489   4.375   0.425  14.274 -0.6428 -0.8499  0.0370
  333TIP3    H122490   4.432   0.375  14.216 -0.0626  0.5411 -0.6245
  333TIP3    H222491   4.435   0.471  14.332 -0.8457  2.4375 -2.1141
  334TIP3   OH222492   2.580   4.592  13.131  0.2329 -0.3047  0.2206
  334TIP3    H122493   2.653   4.566  13.187 -0.5368 -1.8839  0.5665
  334TIP3    H222494   2.609   4.573  13.042 -0.8942 -4.3431  0.5258
  335TIP3   OH222495   0.620   6.574  16.634  0.3087  0.7022  0.0375
  335TIP3    H122496   0.707   6.582  16.593  0.2942  1.9591  0.2219
  335TIP3    H222497   0.591   6.665  16.646 -0.7558  0.3004  0.5758
  336TIP3   OH222498   4.577   0.329  13.489 -0.4652 -0.2674 -0.3492
  336TIP3    H122499   4.607   0.371  13.408 -0.8886 -0.5211 -0.6394
  336TIP3    H222500   4.616   0.382  13.558 -0.0814 -0.0584 -0.7165
  337TIP3   OH222501   5.264   2.923  11.340  0.3130 -0.3553  1.0298
  337TIP3    H122502   5.281   3.000  11.285  0.7421 -1.4116 -0.3871
  337TIP3    H222503   5.296   2.849  11.288 -0.2228 -1.5191  2.2879
  338TIP3   OH222504   2.768   2.587  12.954 -0.5032  0.1851  0.3313
  338TIP3    H122505   2.749   2.507  12.904 -0.3946 -0.0539  0.6735
  338TIP3    H222506   2.802   2.648  12.888  0.0894 -0.2854  0.1912
  339TIP3   OH222507   6.008   2.653   2.963  0.2062 -0.1390  0.4904
  339TIP3    H122508   5.946   2.688   3.028  0.0690  0.6367 -0.0394
  339TIP3    H222509   6.061   2.591   3.012 -0.1497  0.1456  1.2596
  340TIP3   OH222510   4.937   0.826  13.259  0.4994 -0.0199 -0.3613
  340TIP3    H122511   4.952   0.732  13.242  1.4086  0.1971 -0.8687
  340TIP3    H222512   4.893   0.857  13.180  1.1270  0.1774 -0.6441
  341TIP3   OH222513   2.265   1.228  13.189  0.3709  0.3566 -0.0396
  341TIP3    H122514   2.185   1.260  13.148  1.3851  0.4463 -2.1180
  341TIP3    H222515   2.253   1.134  13.198  0.7732  0.0199 -2.3498
  342TIP3   OH222516   2.661   6.606  14.110 -0.2809 -0.6498  0.0682
  342TIP3    H122517   2.728   6.621  14.043  2.3053 -1.1750  2.3914
  342TIP3    H222518   2.686   6.523  14.151 -1.3471 -0.0205  2.1278
  343TIP3   OH222519   3.353   3.920   4.477  0.5070 -0.0942 -0.1886
  343TIP3    H122520   3.339   3.937   4.571  2.7220  0.4390  0.0914
  343TIP3    H222521   3.277   3.959   4.435 -1.0222 -1.1421  1.4196
  344TIP3   OH222522   3.369   1.550   3.444 -0.0917  0.0977 -0.2752
  344TIP3    H122523   3.414   1.512   3.520 -0.0083  0.6522 -0.0402
  344TIP3    H222524   3.338   1.635   3.476 -0.7154  0.0063 -0.6397
  345TIP3   OH222525   6.011   5.494   1.336  0.0328  0.0123  0.7732
  345TIP3    H122526   5.956   5.420   1.362  2.4984 -1.6555  1.5786
  345TIP3    H222527   6.059   5.464   1.259  1.1033  0.7408  1.1276
  346TIP3   OH222528   5.774   5.046   5.031  0.0808 -0.4773  0.4486
  346TIP3    H122529   5.692   5.066   4.984  2.4056  1.1844 -3.4763
  346TIP3    H222530   5.804   5.131   5.063  1.3517 -0.6366 -0.2576
  347TIP3   OH222531   2.881   4.354   4.460  0.0581 -0.0746 -0.0014
  347TIP3    H122532   2.831   4.286   4.416 -0.3330  0.2944 -0.1335
  347TIP3    H222533   2.941   4.387   4.393  0.9282 -0.9387  0.3247
  348TIP3   OH222534   6.725   5.151   5.487  0.5303  0.9129 -0.2457
  348TIP3    H122535   6.791   5.153   5.556 -0.7166  0.2607  0.9944
  348TIP3    H222536   6.708   5.244   5.467  0.0157  1.1531  1.2071
  349TIP3   OH222537   6.287   3.327   0.952 -0.0666  0.6553 -0.0746
  349TIP3    H122538   6.309   3.253   0.895  0.7585  0.7345  0.1191
  349TIP3    H222539   6.238   3.387   0.896  2.8005  1.8866 -1.4868
  350TIP3   OH222540   3.998   1.287  11.730  0.3236  0.1711 -0.5434
  350TIP3    H122541   3.997   1.350  11.658  0.8734  0.4367 -0.3286
  350TIP3    H222542   4.055   1.327  11.796  0.1269 -0.2373 -0.1155
  351TIP3   OH222543   6.578   4.465  15.873  0.3468  0.2980 -0.3856
  351TIP3    H122544   6.582   4.463  15.778  1.1277  1.0639 -0.3803
  351TIP3    H222545   6.489   4.493  15.893 -0.2572 -1.1934 -0.8494
  352TIP3   OH222546   6.410   5.695  11.775  0.4841 -0.3240  0.5399
  352TIP3    H122547   6.478   5.752  11.739  0.2066  0.4359  1.1764
  352TIP3    H222548   6.330   5.748  11.772  0.2693 -0.5912  1.3444
  353TIP3   OH222549   5.879   1.414  14.988  0.4671  0.0283 -0.6771
  353TIP3    H122550   5.794   1.436  15.027  0.6138  0.1121 -0.4067
  353TIP3    H222551   5.912   1.498  14.955  0.8987  0.1714  0.1043
  354TIP3   OH222552   0.547   0.976  14.434  0.6590 -0.3692  0.9775
  354TIP3    H122553   0.544   0.886  14.467  1.0591 -0.8291 -0.1968
  354TIP3    H222554   0.493   1.025  14.496 -1.0561 -1.7305  0.6626
  355TIP3   OH222555   0.287   2.515  11.434 -0.0122  0.0078  0.0908
  355TIP3    H122556   0.354   2.450  11.455  0.4016  0.1605 -0.7093
  355TIP3    H222557   0.322   2.562  11.358  0.0503  1.6629  1.0937
  356TIP3   OH222558   6.243   4.391   2.870  0.1072 -0.0407 -0.3822
  356TIP3    H122559   6.318   4.334   2.856  2.0052  2.4839 -1.2202
  356TIP3    H222560   6.176   4.359   2.810  0.9449 -1.5657 -0.5407
  357TIP3   OH222561   2.712   2.984  13.156 -0.0224  0.3677  0.0805
  357TIP3    H122562   2.755   2.976  13.071  2.2541 -0.7766  1.2494
  357TIP3    H222563   2.740   3.069  13.190 -0.0650  0.3608  0.1335
  358TIP3   OH222564   2.385   5.572  11.942 -0.3036  1.0559  0.3744
  358TIP3    H122565   2.350   5.497  11.989 -0.2412  1.3891  0.9639
  358TIP3    H222566   2.440   5.617  12.006  0.8867  0.7667 -0.4280
  359TIP3   OH222567   5.973   1.579  15.429  0.8313 -0.3202  0.3849
  359TIP3    H122568   5.939   1.556  15.516 -0.2468 -0.5458 -0.0804
  359TIP3    H222569   5.993   1.494  15.389  1.6334 -0.2006  0.5339
  360TIP3   OH222570   0.117   4.400   5.750  0.0442  0.0660 -0.5756
  360TIP3    H122571   0.099   4.467   5.816  1.1384  0.6844 -0.8696
  360TIP3    H222572   0.045   4.338   5.758 -0.4876  0.7759  0.3608
  361TIP3   OH222573   6.421   6.692   3.227  0.0348  0.1472  0.5191
  361TIP3    H122574   6.386   6.657   3.308  0.9623 -1.1805  0.3778
  361TIP3    H222575   6.513   6.665   3.227  0.6213  1.9790  0.0418
  362TIP3   OH222576   4.247   6.304   2.664 -0.3337 -0.4020 -0.4989
  362TIP3    H122577   4.161   6.339   2.642 -0.5833  1.8132  3.2062
  362TIP3    H222578   4.308   6.372   2.633  0.0905 -1.4551 -2.1185
  363TIP3   OH222579   6.460   3.142   4.556  0.5826  0.1470  0.4442
  363TIP3    H122580   6.439   3.195   4.479  1.6804  0.8838  0.6285
  363TIP3    H222581   6.413   3.060   4.542 -0.5073  0.8585 -0.2366
  364TIP3   OH222582   1.839   4.892   6.487 -0.0438 -0.0034 -0.2774
  364TIP3    H122583   1.773   4.831   6.519  0.0887  0.8635  1.7764
  364TIP3    H222584   1.789   4.960   6.443 -0.6338  0.9478  1.7575
  365TIP3   OH222585   3.902   5.704   0.642 -0.4552 -0.2995  0.5010
  365TIP3    H122586   3.988   5.669   0.618 -0.3659 -0.5649  1.1727
  365TIP3    H222587   3.844   5.627   0.641 -0.8883  0.0179 -0.8045
  366TIP3   OH222588   1.459   0.824   5.840 -0.1700 -0.1620 -0.2665
  366TIP3    H122589   1.552   0.802   5.838 -0.7511 -3.1490 -2.8916
  366TIP3    H222590   1.443   0.870   5.758 -1.3084 -1.4914 -0.8223
  367TIP3   OH222591   3.132   1.436  14.883 -0.2432 -0.2540 -0.2160
  367TIP3    H122592   3.086   1.405  14.961  1.9036  0.4139  1.4113
  367TIP3    H222593   3.064   1.479  14.830 -1.8613 -1.2585  0.9635
  368TIP3   OH222594   5.346   4.890   3.775  0.1474  0.1909 -0.1233
  368TIP3    H122595   5.303   4.817   3.821  0.5679 -0.0934 -0.1763
  368TIP3    H222596   5.420   4.849   3.729 -0.5837  0.3697 -1.5157
  369TIP3   OH222597   6.099   3.525   1.070  0.3724  0.3141  0.1716
  369TIP3    H122598   6.126   3.435   1.090 -1.3627 -0.3574 -0.2940
  369TIP3    H222599   6.064   3.520   0.982  0.5476  1.5460  0.0123
  370TIP3   OH222600   3.669   0.453  13.173  0.0126  0.4165  0.5964
  370TIP3    H122601   3.735   0.451  13.242  0.4888  1.3379  0.1994
  370TIP3    H222602   3.702   0.519  13.111 -2.3023  2.5087  1.4204
  371TIP3   OH222603   1.240   5.794   4.789 -0.2504 -0.5981 -0.0855
  371TIP3    H122604   1.330   5.820   4.773 -0.1765 -0.4682  0.5318
  371TIP3    H222605   1.199   5.871   4.829 -0.8933 -0.3234 -1.2384
  372TIP3   OH222606   4.935   6.778   1.682  0.4480 -0.8684  0.2061
  372TIP3    H122607   4.978   6.837   1.744 -1.3683 -0.8570  1.5184
  372TIP3    H222608   5.001   6.762   1.615  1.0046  2.7263 -0.3012
  373TIP3   OH222609   3.188   1.503   3.253 -0.3871 -0.0673 -0.1670
  373TIP3    H122610   3.145   1.440   3.310 -0.5765  1.1963  1.1293
  373TIP3    H222611   3.272   1.520   3.295 -0.7428  1.2714  0.0271
  374TIP3   OH222612   3.532   1.529   0.997  0.2937  0.3646  0.3059
  374TIP3    H122613   3.587   1.468   1.047 -0.9631  0.4111  1.8392
  374TIP3    H222614   3.592   1.571   0.936  1.5640 -0.9925  0.5553
  375TIP3   OH222615   5.521   2.372   1.845 -0.1314  0.0292 -0.0602
  375TIP3    H122616   5.595   2.331   1.799  0.0005 -0.2707  0.4146
  375TIP3    H222617   5.447   2.315   1.828 -0.2661  0.3470 -0.5632
  376TIP3   OH222618   5.254   2.926   2.429 -0.0258  0.0611  0.5711
  376TIP3    H122619   5.297   2.984   2.367 -0.6279 -1.6890 -1.6018
  376TIP3    H222620   5.162   2.927   2.403 -0.2711 -0.8138  1.3589
  377TIP3   OH222621   0.242   6.387  11.267  1.0916 -0.2779 -0.3454
  377TIP3    H122622   0.265   6.427  11.351  0.8629 -0.5681 -0.1429
  377TIP3    H222623   0.313   6.413  11.208 -0.0333  2.0768 -0.7582
  378TIP3   OH222624   6.232   6.143  16.538  0.6720 -0.4483 -0.7834
  378TIP3    H122625   6.158   6.105  16.586  0.0828  1.9582  0.3509
  378TIP3    H222626   6.193   6.175  16.456 -0.0909  2.5572  0.6228
  379TIP3   OH222627   1.065   1.790  11.552  0.1952 -0.3483  0.5954
  379TIP3    H122628   1.095   1.725  11.488  2.1586  0.0944  0.9948
  379TIP3    H222629   0.973   1.804  11.531  0.5462 -0.9204 -1.5048
  380TIP3   OH222630   2.760   0.303  12.101  0.0452  0.1299  0.3279
  380TIP3    H122631   2.812   0.226  12.123  1.9464  1.6081  1.3798
  380TIP3    H222632   2.686   0.301  12.161  0.3434 -0.6055  0.6824
  381TIP3   OH222633   4.211   5.296  16.399  0.3051  0.0416 -0.1211
  381TIP3    H122634   4.122   5.261  16.389 -0.0392  0.7930  0.3147
  381TIP3    H222635   4.255   5.270  16.318 -1.0996  1.9974 -1.5898
  382TIP3   OH222636   2.123   4.971   1.875  0.4445  0.0542  0.5553
  382TIP3    H122637   2.169   4.967   1.791 -0.0204  2.2922  0.1526
  382TIP3    H222638   2.032   4.952   1.853  0.5151 -0.5541  0.7631
  383TIP3   OH222639   2.252   0.908   5.516 -0.1599  0.2108  0.2961
  383TIP3    H122640   2.203   0.900   5.598 -1.6064 -1.2480 -0.6400
  383TIP3    H222641   2.305   0.828   5.512 -1.1768 -0.4354 -0.8258
  384TIP3   OH222642   3.848   5.934   6.010  0.4921  0.1725 -0.1378
  384TIP3    H122643   3.842   5.897   6.098  1.9523  0.2651  0.0260
  384TIP3    H222644   3.766   5.907   5.967 -0.1423 -0.0631  1.1611
  385TIP3   OH222645   0.636   2.979   0.375 -0.1885 -0.5401  0.0769
  385TIP3    H122646   0.636   2.889   0.408  2.0802 -0.8493 -0.6023
  385TIP3    H222647   0.728   2.999   0.358 -0.7201  1.6028 -0.6711
  386TIP3   OH222648   3.810   6.030   3.341  0.0322 -0.0433 -0.6285
  386TIP3    H122649   3.783   6.066   3.426 -0.8734  1.3253 -1.4476
  386TIP3    H222650   3.760   5.949   3.333 -1.9420  1.1186 -0.9386
  387TIP3   OH222651   2.298   6.314   4.422 -0.1800 -0.3056 -0.6634
  387TIP3    H122652   2.371   6.284   4.368 -0.3253 -0.5814 -0.7099
  387TIP3    H222653   2.287   6.406   4.399  1.3599  0.2808  0.6913
  388TIP3   OH222654   1.865   6.087   5.728 -0.1675  0.0949  0.1020
  388TIP3    H122655   1.898   6.025   5.663  1.0833 -1.4171  2.0597
  388TIP3    H222656   1.774   6.102   5.703 -0.0760 -1.3777 -1.2781
  389TIP3   OH222657   0.836   0.690   0.284  0.2459  0.3704 -0.0682
  389TIP3    H122658   0.847   0.641   0.202  1.0865  0.3673  0.0376
  389TIP3    H222659   0.922   0.729   0.300 -0.2834  1.5037  0.0942
  390TIP3   OH222660   3.159   1.322   6.708 -0.3970 -0.6666 -0.6053
  390TIP3    H122661   3.158   1.228   6.691 -0.0755 -0.7103 -0.3920
  390TIP3    H222662   3.067   1.344   6.725 -0.2967 -1.2000  0.7122
  391TIP3   OH222663   0.786   3.595  13.103  0.2741 -0.0096 -0.4931
  391TIP3    H122664   0.714   3.534  13.093  0.3987 -0.2313 -0.0735
  391TIP3    H222665   0.864   3.540  13.105  0.4281  0.2025 -0.6231
  392TIP3   OH222666   5.992   6.857  12.604  0.0980 -0.3026  0.0795
  392TIP3    H122667   5.962   6.813  12.525  0.8894  0.0153 -0.4057
  392TIP3    H222668   5.943   6.940  12.606 -0.5929 -0.7085  0.4196
  393TIP3   OH222669   1.319   3.450   3.719  0.5221  0.1233 -0.9980
  393TIP3    H122670   1.332   3.385   3.649 -1.2221 -0.1765 -1.0885
  393TIP3    H222671   1.231   3.484   3.703  0.8113  1.3885 -0.0085
  394TIP3   OH222672   3.022   0.208  14.017  0.5292 -0.3417  0.3650
  394TIP3    H122673   2.935   0.168  14.021  1.1633 -1.7611  0.7320
  394TIP3    H222674   3.034   0.248  14.103  0.7687 -1.3935  0.8478
  395TIP3   OH222675   6.155   3.893  14.469  0.2384  0.6062  0.5645
  395TIP3    H122676   6.203   3.880  14.387  0.9276  0.2853  1.0131
  395TIP3    H222677   6.144   3.805  14.505  1.5958  0.8706  1.7335
  396TIP3   OH222678   2.753   4.119   2.738 -0.2198 -0.6051  0.4291
  396TIP3    H122679   2.804   4.068   2.801  1.0548  1.3568  1.0811
  396TIP3    H222680   2.771   4.077   2.654  1.1558 -0.9750  0.8832
  397TIP3   OH222681   6.138   3.962   2.848  0.8231  0.0936  0.5718
  397TIP3    H122682   6.230   3.985   2.851  0.3992  1.9040  2.4130
  397TIP3    H222683   6.123   3.931   2.759  2.9071  1.0175 -0.1585
  398TIP3   OH222684   1.981   2.621   2.189  0.7173  0.2655 -0.1254
  398TIP3    H122685   1.921   2.695   2.178  0.6989  0.2570 -0.0827
  398TIP3    H222686   2.068   2.660   2.181  0.6987  0.1780 -0.8145
  399TIP3   OH222687   4.783   2.785   6.617  0.0504  0.0581  0.1416
  399TIP3    H122688   4.824   2.700   6.598 -0.0978  0.5520 -2.7756
  399TIP3    H222689   4.843   2.850   6.579 -0.4835  1.1915  1.1654
  400TIP3   OH222690   5.530   4.884   3.438  0.0924  0.9051  0.1187
  400TIP3    H122691   5.590   4.811   3.421  0.4790  0.3202  3.3254
  400TIP3    H222692   5.585   4.951   3.479 -0.8863  1.6424  0.2522
  401TIP3   OH222693   6.316   2.224   5.088  0.2684  0.6156 -0.1821
  401TIP3    H122694   6.375   2.179   5.148 -0.2229 -0.3180 -0.3784
  401TIP3    H222695   6.233   2.228   5.135  0.5353  2.1617  0.2029
  402TIP3   OH222696   2.749   5.871   0.824  0.3972  0.1857  0.2804
  402TIP3    H122697   2.815   5.872   0.754  0.9436  1.8022  0.7878
  402TIP3    H222698   2.702   5.954   0.814  1.5662  1.2457  2.8080
  403TIP3   OH222699   0.921   5.352   0.017 -0.1215 -0.0845 -0.1111
  403TIP3    H122700   0.893   5.261   0.023 -0.7989  0.0674 -0.7718
  403TIP3    H222701   0.927   5.381   0.108  2.6629 -1.5098  0.2622
  404TIP3   OH222702   0.751   4.820  11.342 -0.1382  0.2904 -0.2101
  404TIP3    H122703   0.659   4.819  11.369 -0.1718 -0.3781 -0.3494
  404TIP3    H222704   0.752   4.876  11.265 -0.1852  1.4868  0.6156
  405TIP3   OH222705   5.435   0.578   4.060  0.5859 -0.3756 -0.3748
  405TIP3    H122706   5.450   0.492   4.020 -1.5971 -0.7829 -0.4607
  405TIP3    H222707   5.471   0.570   4.148  0.5204 -1.3519 -0.4266
  406TIP3   OH222708   0.455   0.332  16.100 -0.1359  0.0343 -0.2624
  406TIP3    H122709   0.411   0.257  16.141  1.1864 -0.2324  0.7071
  406TIP3    H222710   0.454   0.310  16.006 -1.0026 -0.5158 -0.1453
  407TIP3   OH222711   6.223   0.702   6.071  0.6235 -0.2362 -0.4918
  407TIP3    H122712   6.303   0.686   6.120 -0.0669 -0.4835  0.5957
  407TIP3    H222713   6.213   0.625   6.016  0.5876 -0.6969  0.1457
  408TIP3   OH222714   3.487   0.992   0.232 -0.0624 -0.0358 -0.0157
  408TIP3    H122715   3.409   1.043   0.213 -0.4158 -0.2903  0.7074
  408TIP3    H222716   3.456   0.921   0.289  0.5497 -0.6152 -0.3854
  409TIP3   OH222717   1.207   6.667   0.761 -0.0110 -0.7246 -0.0243
  409TIP3    H122718   1.208   6.631   0.850  0.7705 -3.1473 -0.9198
  409TIP3    H222719   1.174   6.756   0.771  1.0679 -0.5379  2.8213
  410TIP3   OH222720   5.951   0.136  12.340  0.0631  0.0143 -0.4875
  410TIP3    H122721   5.886   0.198  12.372  1.6842  1.3965  0.2684
  410TIP3    H222722   5.902   0.077  12.283 -2.1312  0.0211  1.2686
  411TIP3   OH222723   0.864   4.484   5.419 -0.0651  0.2118 -0.2122
  411TIP3    H122724   0.829   4.422   5.356 -0.7219 -1.6020  1.8105
  411TIP3    H222725   0.957   4.462   5.428 -0.2622 -0.3939  0.3856
  412TIP3   OH222726   6.727   3.752   1.152 -0.0505 -0.4596  0.0015
  412TIP3    H122727   6.708   3.746   1.245  0.2725 -0.7382  0.0528
  412TIP3    H222728   6.823   3.753   1.146 -0.0705 -0.0216 -0.3023
  413TIP3   OH222729   2.661   6.001   5.681  0.4162 -0.2718  0.2045
  413TIP3    H122730   2.716   6.067   5.639  0.4393  0.6887  1.6854
  413TIP3    H222731   2.720   5.930   5.704  0.5975 -0.2985 -0.3258
  414TIP3   OH222732   3.501   2.152  14.189 -0.1560 -0.7123  0.8458
  414TIP3    H122733   3.565   2.208  14.144 -0.0945  0.1045  1.9196
  414TIP3    H222734   3.430   2.212  14.213 -1.3615 -1.6136 -0.3399
  415TIP3   OH222735   1.630   6.028  16.052 -0.5608 -0.4944 -0.1819
  415TIP3    H122736   1.541   6.006  16.079  0.5137 -3.1657  1.6312
  415TIP3    H222737   1.640   5.984  15.967 -0.9814 -0.1470 -0.4138
  416TIP3   OH222738   3.335   5.846   1.999  0.5346 -0.2362 -0.6892
  416TIP3    H122739   3.347   5.837   1.904  1.4666  0.0726 -0.6066
  416TIP3    H222740   3.366   5.763   2.035 -1.8796 -1.2765 -0.7817
  417TIP3   OH222741   6.721   5.713   2.718  0.0068  0.0052  0.1008
  417TIP3    H122742   6.795   5.767   2.746 -0.3096  2.1224 -2.6702
  417TIP3    H222743   6.655   5.724   2.787  1.6204 -0.6546  1.8363
  418TIP3   OH222744   1.017   3.804   2.590 -1.0250  0.2575  0.2550
  418TIP3    H122745   0.925   3.832   2.590 -1.0877  0.0655  1.0964
  418TIP3    H222746   1.046   3.817   2.680  0.7211  3.3651 -0.5902
  419TIP3   OH222747   2.686   0.608   1.103 -0.0238 -0.4555  0.0795
  419TIP3    H122748   2.636   0.633   1.025 -0.0139 -0.1630  0.1642
  419TIP3    H222749   2.621   0.568   1.161 -0.2864  0.4182  0.4167
  420TIP3   OH222750   1.512   2.157  14.533 -0.0449 -0.1972 -0.3090
  420TIP3    H122751   1.421   2.183  14.549 -0.0167  0.1583 -0.7140
  420TIP3    H222752   1.540   2.119  14.616 -0.7148 -0.7635 -0.3275
  421TIP3   OH222753   5.963   4.193   3.540 -0.1388 -0.0459  0.4629
  421TIP3    H122754   5.953   4.145   3.458 -0.1317 -1.0675  1.0444
  421TIP3    H222755   5.952   4.127   3.608  1.3980  0.4900  1.2714
  422TIP3   OH222756   5.513   1.623  13.870 -0.2449 -0.4020 -0.8275
  422TIP3    H122757   5.427   1.586  13.851 -0.4180 -0.2001 -0.4514
  422TIP3    H222758   5.570   1.587  13.802 -0.4927 -1.0380 -0.7105
  423TIP3   OH222759   4.157   6.831  16.287 -0.6098  0.5496 -0.5958
  423TIP3    H122760   4.253   6.828  16.279 -0.6153  1.5155 -1.2793
  423TIP3    H222761   4.126   6.798  16.203 -0.9409 -1.7073  0.3440
  424TIP3   OH222762   5.347   3.147  15.884  0.0217 -0.3516  0.2586
  424TIP3    H122763   5.441   3.162  15.885  0.1869 -1.0115 -1.6605
  424TIP3    H222764   5.310   3.223  15.839 -0.3904 -0.0326  1.1145
  425TIP3   OH222765   1.812   5.551  12.181  0.0450  0.3195  0.0574
  425TIP3    H122766   1.745   5.608  12.143  0.5162  0.7363 -0.1521
  425TIP3    H222767   1.814   5.577  12.273 -0.8822 -0.4834  0.3232
  426TIP3   OH222768   0.863   1.713   0.149 -0.1718 -0.0456  0.6745
  426TIP3    H122769   0.797   1.776   0.179 -1.5789 -0.2455 -1.7067
  426TIP3    H222770   0.813   1.648   0.099  1.6344 -1.2753  0.3565
  427TIP3   OH222771   4.900   4.891   5.357 -0.0173  0.6999  0.1560
  427TIP3    H122772   4.962   4.849   5.297  1.0652  1.9091  0.3698
  427TIP3    H222773   4.909   4.842   5.439 -2.0616 -1.4504 -0.8024
  428TIP3   OH222774   6.681   3.357  14.101 -0.2535  0.4204  0.1904
  428TIP3    H122775   6.755   3.343  14.161 -1.7523  0.6688  2.1864
  428TIP3    H222776   6.696   3.443  14.064  0.2496  0.6534  0.9173
  429TIP3   OH222777   2.055   4.506   4.833 -0.2563  0.4601  0.6379
  429TIP3    H122778   2.005   4.559   4.896 -1.9591 -1.3667  0.9351
  429TIP3    H222779   2.046   4.552   4.750 -0.8545  1.1653  1.0809
  430TIP3   OH222780   6.447   0.011   3.573 -0.2878  0.3097  0.3507
  430TIP3    H122781   6.523   0.055   3.610  0.4052 -1.3588  0.9904
  430TIP3    H222782   6.389   0.082   3.546  1.3548  1.6097  0.1092
  431TIP3   OH222783   6.676   6.323  11.652 -0.1412  0.3817  0.5512
  431TIP3    H122784   6.601   6.359  11.605 -0.3315  0.3038  0.7972
  431TIP3    H222785   6.752   6.357  11.605 -0.3127  1.2322  0.8731
  432TIP3   OH222786   2.650   5.377  15.525  0.8624  0.2309 -0.0691
  432TIP3    H122787   2.680   5.433  15.454  0.5623  1.7653  0.9569
  432TIP3    H222788   2.586   5.318  15.484  0.9444  0.8554 -1.1266
  433TIP3   OH222789   0.073   4.415   5.000 -0.0454  0.0467 -0.4702
  433TIP3    H122790   0.025   4.376   4.927  0.9352  0.2070 -1.2268
  433TIP3    H222791   0.056   4.509   4.992  2.0039  0.3557 -2.0188
  434TIP3   OH222792   0.594   3.848  14.272  0.5096 -0.4637  0.3190
  434TIP3    H122793   0.538   3.813  14.341  0.7397  0.9378  1.2577
  434TIP3    H222794   0.676   3.798  14.281  1.0373  0.6073  2.0017
  435TIP3   OH222795   1.850   4.273   2.510  0.2118  0.0706  0.5256
  435TIP3    H122796   1.861   4.302   2.600  1.3522  1.3338  0.0064
  435TIP3    H222797   1.756   4.285   2.492 -0.0970 -0.5862  1.6526
  436TIP3   OH222798   1.843   2.708  13.131 -0.3073  0.1668  0.3915
  436TIP3    H122799   1.929   2.707  13.172  0.1158  0.6448 -0.4577
  436TIP3    H222800   1.828   2.800  13.110 -1.0027  0.0797  0.4731
  437TIP3   OH222801   1.008   5.580  11.264 -0.3739  0.0398 -0.3553
  437TIP3    H122802   1.080   5.583  11.328  0.0111  0.3320 -0.7939
  437TIP3    H222803   1.046   5.538  11.187 -1.2305 -1.6189  0.0848
  438TIP3   OH222804   6.017   0.299   3.691  1.0368  0.0431 -0.2357
  438TIP3    H122805   5.938   0.262   3.732  0.3687  0.7597 -0.8513
  438TIP3    H222806   6.025   0.252   3.608  1.6431 -0.4858  0.1104
  439TIP3   OH222807   3.104   2.842  14.952 -0.7353  0.0722 -0.3707
  439TIP3    H122808   3.125   2.919  14.898  0.1767  0.3262  0.3241
  439TIP3    H222809   3.155   2.771  14.913 -1.4546 -0.1603 -0.9140
  440TIP3   OH222810   6.301   5.260  14.322  0.1339  0.0305  0.1485
  440TIP3    H122811   6.328   5.349  14.345  0.5964 -0.4040  1.3648
  440TIP3    H222812   6.209   5.269  14.298 -0.2884  0.6271  1.8032
  441TIP3   OH222813   3.861   5.571   3.162 -0.1136  0.5791 -0.3193
  441TIP3    H122814   3.857   5.541   3.071  0.0317  1.5192 -0.6439
  441TIP3    H222815   3.898   5.497   3.210 -3.1631 -1.2109 -0.4348
  442TIP3   OH222816   3.700   6.610   3.725 -0.9131  0.4765  0.0784
  442TIP3    H122817   3.726   6.628   3.815 -1.4086 -0.8915  0.5230
  442TIP3    H222818   3.767   6.550   3.692 -0.9864  0.6066 -0.3098
  443TIP3   OH222819   6.317   6.152  13.901 -0.1205  0.6459 -0.3949
  443TIP3    H122820   6.255   6.082  13.881 -2.2417  1.3800  2.7869
  443TIP3    H222821   6.262   6.227  13.925  1.9997  1.7923  1.2457
  444TIP3   OH222822   0.189   6.230  16.067  0.2968 -0.1087 -0.4478
  444TIP3    H122823   0.254   6.220  15.998  0.9946 -1.9372  0.4099
  444TIP3    H222824   0.236   6.212  16.148 -1.0157 -0.3828  0.2974
  445TIP3   OH222825   5.954   4.740  11.619  0.0279  0.0849  0.3187
  445TIP3    H122826   6.036   4.787  11.629  2.3803 -3.7813  1.2259
  445TIP3    H222827   5.909   4.754  11.703  1.4868 -0.6266  1.2615
  446TIP3   OH222828   4.863   6.166  14.602  0.2648 -0.1750 -0.1574
  446TIP3    H122829   4.780   6.213  14.600 -0.6245 -1.7146 -1.0131
  446TIP3    H222830   4.864   6.121  14.687 -0.1293 -0.7276 -0.4379
  447TIP3   OH222831   5.047   6.046   1.901 -0.1869  0.5200  0.2074
  447TIP3    H122832   4.986   6.114   1.929 -1.0930 -0.0658 -0.3098
  447TIP3    H222833   5.103   6.031   1.977  0.5447  2.3849  0.0875
  448TIP3   OH222834   0.951   1.038   0.158  0.0365 -0.6760  0.0713
  448TIP3    H122835   0.910   1.063   0.241 -1.7218  0.2499 -1.0144
  448TIP3    H222836   0.877   1.025   0.098  1.2881 -0.1159 -1.6697
  449TIP3   OH222837   2.087   1.696   0.163  0.3988 -0.6118 -0.2287
  449TIP3    H122838   2.175   1.697   0.200  1.0034  2.4794 -1.3912
  449TIP3    H222839   2.036   1.753   0.220 -0.3175 -0.7785 -0.6850
  450TIP3   OH222840   1.783   5.934   0.684  0.1801  0.3156  0.4949
  450TIP3    H122841   1.742   5.912   0.601 -2.0214  1.6170  1.1424
  450TIP3    H222842   1.775   5.854   0.737  0.3519 -0.0783 -0.0659
  451TIP3   OH222843   4.417   5.468  10.830  0.7202  0.4351 -0.2325
  451TIP3    H122844   4.410   5.460  10.735  1.9299 -2.3553 -0.2022
  451TIP3    H222845   4.458   5.554  10.844  1.5784  0.4194 -2.3053
  452TIP3   OH222846   5.053   6.646  16.404 -0.3197 -0.3120  0.5721
  452TIP3    H122847   4.957   6.643  16.398 -0.3840  0.5306  0.9747
  452TIP3    H222848   5.071   6.724  16.457  0.5821 -0.6255  0.7458
  453TIP3   OH222849   4.025   0.264   0.354 -0.1529 -0.1269 -0.1284
  453TIP3    H122850   4.002   0.302   0.269  0.0129 -0.4732 -0.3305
  453TIP3    H222851   3.941   0.246   0.396 -0.2344  0.1193 -0.1845
  454TIP3   OH222852   5.479   6.756   4.102 -0.4126 -0.4593  0.0991
  454TIP3    H122853   5.548   6.791   4.159  0.9389 -0.7551 -1.3040
  454TIP3    H222854   5.525   6.730   4.022 -2.0688 -1.2649 -0.6260
  455TIP3   OH222855   5.546   3.438   6.098  0.0950 -0.9378  0.1068
  455TIP3    H122856   5.609   3.508   6.087  2.2256 -2.6536  0.6386
  455TIP3    H222857   5.563   3.404   6.186 -0.7050 -2.2456 -0.2058
  456TIP3   OH222858   1.447   1.612   4.452 -0.1774  0.1161  0.1710
  456TIP3    H122859   1.520   1.670   4.427 -0.5168  0.0949 -0.9230
  456TIP3    H222860   1.377   1.635   4.391 -1.2658  0.4570  1.4969
  457TIP3   OH222861   5.272   2.935  10.953 -0.2002 -0.3886  0.4943
  457TIP3    H122862   5.251   2.974  10.868  0.5910 -0.3939  0.2800
  457TIP3    H222863   5.366   2.953  10.964 -0.6146  0.9511  2.0793
  458TIP3   OH222864   4.220   4.777   6.469 -0.6725 -0.2273  0.3421
  458TIP3    H122865   4.296   4.728   6.501  0.1361  1.2838  0.7964
  458TIP3    H222866   4.246   4.868   6.474 -2.5691  0.3386  0.6008
  459TIP3   OH222867   4.137   5.245   0.412 -0.3477  0.1860 -0.5371
  459TIP3    H122868   4.105   5.157   0.396  0.0258 -0.0173 -0.1924
  459TIP3    H222869   4.167   5.243   0.503  1.0880  0.2222 -0.9839
  460TIP3   OH222870   1.788   4.363   5.349 -0.5806 -0.2031 -0.2557
  460TIP3    H122871   1.838   4.356   5.430  0.6647  1.7710 -0.7803
  460TIP3    H222872   1.820   4.443   5.308 -1.5392 -0.8657 -2.4627
  461TIP3   OH222873   0.416   2.588  15.132  0.2397 -0.7227 -0.1588
  461TIP3    H122874   0.508   2.572  15.110  0.0167 -1.0137 -0.8892
  461TIP3    H222875   0.377   2.501  15.140  0.3834 -0.6552  1.7773
  462TIP3   OH222876   2.873   4.018   2.470 -0.0486 -0.1040  0.1879
  462TIP3    H122877   2.956   4.054   2.438  0.1240  0.9870  1.7888
  462TIP3    H222878   2.897   3.965   2.546 -0.7217 -0.6921  0.0057
  463TIP3   OH222879   4.300   3.549  12.183 -0.0885  0.5954 -0.0043
  463TIP3    H122880   4.328   3.460  12.204 -0.5436 -0.0391 -1.8491
  463TIP3    H222881   4.365   3.579  12.118  0.3742  1.8337  0.9948
  464TIP3   OH222882   6.689   5.143   3.267  0.1101 -0.9507 -0.1848
  464TIP3    H122883   6.667   5.064   3.317  2.5241 -0.8323  1.2362
  464TIP3    H222884   6.607   5.168   3.225 -1.0596 -3.4371  0.4018
  465TIP3   OH222885   0.591   3.083  12.488  0.3927  0.1794 -0.1900
  465TIP3    H122886   0.501   3.073  12.517  1.0088 -3.4239  1.0162
  465TIP3    H222887   0.639   3.111  12.566  1.0035 -3.0321  0.7344
  466TIP3   OH222888   2.522   1.706  16.465 -0.4206 -0.4494  0.2886
  466TIP3    H122889   2.544   1.666  16.381  0.0774 -0.8490  0.5983
  466TIP3    H222890   2.479   1.788  16.443 -0.8200 -0.8215 -0.3619
  467TIP3   OH222891   3.316   1.560  14.502  0.1983 -0.1427  0.4501
  467TIP3    H122892   3.406   1.578  14.474  1.0818 -2.6331  1.4174
  467TIP3    H222893   3.262   1.582  14.425  1.9018 -1.1489 -1.1059
  468TIP3   OH222894   3.092   5.982   4.201 -0.1932  0.5394  0.4255
  468TIP3    H122895   3.148   5.963   4.276  0.4833  0.9505  0.0339
  468TIP3    H222896   3.122   6.068   4.170 -1.5351  1.1316  0.6599
  469TIP3   OH222897   1.345   5.926  15.197 -0.2031  0.4578 -0.2036
  469TIP3    H122898   1.397   6.004  15.211 -2.4701  2.0756 -0.1823
  469TIP3    H222899   1.261   5.959  15.164 -0.7142 -2.0806 -1.6831
  470TIP3   OH222900   3.170   3.984  14.372  0.4247 -0.4764 -0.5129
  470TIP3    H122901   3.242   4.011  14.428  1.0786 -1.1504 -1.0205
  470TIP3    H222902   3.184   3.891  14.357 -0.9888 -0.7995  0.0194
  471TIP3   OH222903   4.930   0.659   6.327  0.0007 -0.2101  0.4157
  471TIP3    H122904   4.916   0.571   6.292 -1.3278 -0.5996  1.8293
  471TIP3    H222905   4.996   0.698   6.269  1.3666 -2.4722  0.3365
  472TIP3   OH222906   0.383   1.055  11.239 -0.3327 -0.3121 -1.2331
  472TIP3    H122907   0.424   0.972  11.263 -1.3824 -0.5251 -0.0283
  472TIP3    H222908   0.359   1.044  11.147 -0.0869 -1.1830 -1.2058
  473TIP3   OH222909   1.301   1.771  13.169  0.8386 -0.3144 -0.1035
  473TIP3    H122910   1.315   1.678  13.157  2.5294 -0.4353  2.1194
  473TIP3    H222911   1.363   1.813  13.108  2.1625 -0.7232  0.9157
  474TIP3   OH222912   6.656   4.740   3.792 -0.3075  0.0659 -0.1423
  474TIP3    H122913   6.663   4.835   3.801  0.4569  0.1769 -1.5846
  474TIP3    H222914   6.661   4.725   3.698  2.1855 -1.5675  0.1509
  475TIP3   OH222915   2.973   1.654  15.012 -0.5810  0.0958  0.4595
  475TIP3    H122916   2.971   1.672  14.917  0.3652  0.5965  0.5174
  475TIP3    H222917   2.933   1.568  15.021 -0.2364 -0.1699 -0.4501
  476TIP3   OH222918   0.426   5.674  11.146 -0.0087  0.4441 -0.3455
  476TIP3    H122919   0.488   5.608  11.177 -0.5731 -0.2604 -0.6839
  476TIP3    H222920   0.363   5.683  11.217 -0.5054 -0.1349 -0.7062
  477TIP3   OH222921   2.018   4.378   1.008  0.7737  0.4632  0.4688
  477TIP3    H122922   2.049   4.391   0.919  0.3088  1.1463  0.3985
  477TIP3    H222923   2.044   4.458   1.054 -0.3209  0.7934  0.5581
  478TIP3   OH222924   4.396   5.139  11.789 -0.4276 -0.2281  0.1820
  478TIP3    H122925   4.481   5.102  11.768 -0.6599 -0.3469 -0.5785
  478TIP3    H222926   4.411   5.193  11.866  0.2875 -0.4187  0.1768
  479TIP3   OH222927   0.200   2.895  11.707  0.1206  0.2593  0.5995
  479TIP3    H122928   0.155   2.968  11.664 -1.7386 -0.8469  0.5633
  479TIP3    H222929   0.172   2.900  11.798 -1.1758 -1.1896  0.3196
  480TIP3   OH222930   4.314   6.467   4.177 -0.0050  0.2604  0.3516
  480TIP3    H122931   4.405   6.492   4.190  0.1413 -0.1775  0.1869
  480TIP3    H222932   4.313   6.371   4.186 -0.2281  0.1249 -0.8262
  481TIP3   OH222933   0.275   6.334  16.345 -0.6590  0.5436  0.6313
  481TIP3    H122934   0.312   6.304  16.428  0.8980  1.3260  0.2624
  481TIP3    H222935   0.254   6.426  16.360 -3.3993 -0.0638  1.0984
  482TIP3   OH222936   1.983   6.127   3.549 -0.5024 -0.0503 -0.1437
  482TIP3    H122937   1.901   6.083   3.572 -0.9072  0.4669 -0.5752
  482TIP3    H222938   2.049   6.059   3.558 -0.4708  0.2614  3.3655
  483TIP3   OH222939   0.444   5.244   2.008  0.6375 -0.1610 -0.2021
  483TIP3    H122940   0.444   5.217   1.916  1.9450 -0.2181 -0.1972
  483TIP3    H222941   0.393   5.325   2.008 -2.5073 -1.9769 -0.3541
  484TIP3   OH222942   1.732   1.531   1.284 -0.2111 -0.0792 -0.0772
  484TIP3    H122943   1.714   1.444   1.248 -1.3828  0.2812 -0.4144
  484TIP3    H222944   1.826   1.542   1.274  0.2515 -1.9892  1.5430
  485TIP3   OH222945   2.092   6.615   4.646  0.1599 -0.1111  0.2021
  485TIP3    H122946   2.088   6.693   4.591 -1.4887 -0.7785 -0.6704
  485TIP3    H222947   2.053   6.546   4.593 -0.5737 -1.0003  1.8469
  486TIP3   OH222948   0.343   3.702   1.481  0.0348 -0.1891  0.2079
  486TIP3    H122949   0.410   3.756   1.438  0.1256  0.5148  1.1836
  486TIP3    H222950   0.390   3.657   1.551  0.2239 -2.5690 -1.3593
  487TIP3   OH222951   5.097   4.732   4.616  0.3695 -0.6168  0.2199
  487TIP3    H122952   5.171   4.675   4.596  1.0058  0.3761 -0.3336
  487TIP3    H222953   5.030   4.706   4.554 -0.0143 -1.9606  1.1427
  488TIP3   OH222954   6.823   1.557   1.434 -0.0981  0.4431  0.4648
  488TIP3    H122955   6.906   1.564   1.481  0.9401 -1.2724 -0.9548
  488TIP3    H222956   6.785   1.475   1.465 -0.2716  0.2064 -0.3376
  489TIP3   OH222957   0.189   3.319   5.004 -0.3038 -0.2737  0.0366
  489TIP3    H122958   0.277   3.291   4.979 -0.2818 -0.5830  0.4499
  489TIP3    H222959   0.131   3.270   4.945 -0.1947 -0.0039 -0.2941
  490TIP3   OH222960   1.621   2.267  13.856  0.3847  0.1777 -0.0212
  490TIP3    H122961   1.684   2.208  13.815 -1.0911 -0.6804 -1.1562
  490TIP3    H222962   1.633   2.253  13.950  1.9569  0.1427 -0.2018
  491TIP3   OH222963   1.934   6.269  14.666  0.4296 -0.1408 -0.7595
  491TIP3    H122964   1.870   6.212  14.625 -1.4358  1.6420 -0.4980
  491TIP3    H222965   1.911   6.357  14.636  1.6229  0.7646  0.7963
  492TIP3   OH222966   0.492   6.275  13.019 -0.0806 -0.1221 -0.2425
  492TIP3    H122967   0.462   6.296  12.931 -0.2346 -0.0690 -0.1791
  492TIP3    H222968   0.414   6.242  13.064 -0.2277  0.6930  0.1383
  493TIP3   OH222969   1.368   3.300   3.050 -0.2229 -0.4307  0.5597
  493TIP3    H122970   1.344   3.305   2.957 -0.5923 -0.7335  0.6354
  493TIP3    H222971   1.456   3.337   3.054 -0.5086  0.2957  0.2071
  494TIP3   OH222972   3.096   3.965   4.410 -0.1075 -0.1896 -0.3952
  494TIP3    H122973   3.089   3.931   4.499  0.1933 -1.4596 -0.8448
  494TIP3    H222974   3.021   3.929   4.363 -0.4283  0.7038 -0.6029
  495TIP3   OH222975   6.672   2.846  12.133 -0.0507  0.4584 -0.1301
  495TIP3    H122976   6.599   2.822  12.191 -1.8252  1.3559 -1.8896
  495TIP3    H222977   6.648   2.810  12.048  2.1212 -0.1393 -0.5586
  496TIP3   OH222978   4.177   4.645   0.487  0.8179 -0.7207 -0.1594
  496TIP3    H122979   4.233   4.721   0.471  0.3109 -0.5132 -1.0359
  496TIP3    H222980   4.127   4.635   0.406  1.2114 -2.2889 -0.2403
  497TIP3   OH222981   3.372   0.870  17.038 -0.3710 -0.4703  0.0516
  497TIP3    H122982   3.439   0.823  17.089 -1.0406 -0.8019  0.6416
  497TIP3    H222983   3.289   0.833  17.067 -0.7933 -0.4499 -1.0774
  498TIP3   OH222984   2.561   4.910  15.982 -0.0026  0.7072 -0.3028
  498TIP3    H122985   2.631   4.952  15.932 -0.7612  2.2059 -0.1706
  498TIP3    H222986   2.496   4.979  15.994  0.4380  0.6881  3.3732
  499TIP3   OH222987   0.198   3.438   0.769 -0.0847  0.2059 -0.4362
  499TIP3    H122988   0.186   3.378   0.695 -0.0537 -1.4242  0.8389
  499TIP3    H222989   0.176   3.387   0.846  0.7850  1.5819  0.7909
  500TIP3   OH222990   0.109   3.997   4.841 -0.4316 -0.2264 -0.0080
  500TIP3    H122991   0.182   3.935   4.845  1.1030  1.5997  1.9350
  500TIP3    H222992   0.088   4.015   4.933 -0.3379  2.6635 -0.4886
  501TIP3   OH222993   3.091   4.486   0.913  0.0403 -0.3563 -0.2863
  501TIP3    H122994   3.121   4.395   0.908  0.1781 -0.4112  1.0982
  501TIP3    H222995   3.085   4.514   0.822  2.3064 -1.0003 -0.7058
  502TIP3   OH222996   0.441   2.422  10.877  0.1590  0.1321 -0.6715
  502TIP3    H122997   0.471   2.408  10.967 -1.4057  0.8109 -0.0141
  502TIP3    H222998   0.454   2.515  10.862  0.5662 -0.0099 -1.2280
  503TIP3   OH222999   5.749   2.938   2.897  0.4183  0.4684  0.8394
  503TIP3    H123000   5.756   2.842   2.899  2.6845  0.5684  0.4708
  503TIP3    H223001   5.667   2.956   2.943 -0.8599 -1.6917 -0.4027
  504TIP3   OH223002   2.357   3.730   0.348 -0.8828 -0.1451 -1.0350
  504TIP3    H123003   2.412   3.804   0.322 -2.6720  1.2183 -1.0800
  504TIP3    H223004   2.418   3.671   0.394  0.5875  1.3348 -0.9730
  505TIP3   OH223005   4.040   4.874   1.261  0.1027  0.7821 -0.4953
  505TIP3    H123006   3.992   4.816   1.202  0.5063 -0.3418  0.2528
  505TIP3    H223007   3.971   4.917   1.313 -0.1612  0.1111 -0.2780
  506TIP3   OH223008   2.255   3.189   4.985 -0.0978 -0.0431  0.1993
  506TIP3    H123009   2.348   3.176   4.970  0.0975  1.1249  0.3227
  506TIP3    H223010   2.232   3.264   4.929 -0.6704  0.5184  1.1619
  507TIP3   OH223011   3.237   4.529  13.511 -0.1980  0.4049 -0.0348
  507TIP3    H123012   3.213   4.590  13.441 -0.9408 -2.2153 -2.2585
  507TIP3    H223013   3.162   4.470  13.517  1.5069 -1.8718  0.0668
  508TIP3   OH223014   4.373   3.806  14.399  0.0802 -0.2000  0.1211
  508TIP3    H123015   4.439   3.875  14.390  0.0720 -0.3275 -1.1544
  508TIP3    H223016   4.408   3.748  14.467  1.4220 -0.3787 -0.6837
  509TIP3   OH223017   6.689   2.878  15.156  0.6227 -0.5038  0.5326
  509TIP3    H123018   6.743   2.805  15.125  0.4596  0.3001 -1.9137
  509TIP3    H223019   6.637   2.903  15.079  1.8878  3.2833  0.7026
  510TIP3   OH223020   1.016   5.066   0.132 -0.3724 -0.0507 -0.2121
  510TIP3    H123021   1.023   4.971   0.136 -0.6221 -0.0481  0.6766
  510TIP3    H223022   0.928   5.082   0.098 -0.4638 -0.1483 -0.0258
  511TIP3   OH223023   0.977   6.364  15.211  0.3553  0.1948  0.0608
  511TIP3    H123024   0.983   6.273  15.183  1.0615  0.3330 -0.2531
  511TIP3    H223025   0.911   6.402  15.154 -0.5105 -0.3009  0.7074
  512TIP3   OH223026   4.152   3.561  10.537  0.2897  0.5721 -0.6492
  512TIP3    H123027   4.182   3.605  10.457  1.5996  2.2532  0.6740
  512TIP3    H223028   4.231   3.555  10.591 -0.8304  0.8411  1.0962
  513TIP3   OH223029   0.197   4.714   0.009  0.2133 -0.3839  0.1076
  513TIP3    H123030   0.252   4.711  -0.070  0.1685 -2.4622  0.1167
  513TIP3    H223031   0.107   4.714  -0.025  0.1969 -0.5722  0.1526
  514TIP3   OH223032   5.895   5.154  11.755  0.5659 -0.2023  0.6001
  514TIP3    H123033   5.976   5.163  11.704  0.9764  0.3521  1.3262
  514TIP3    H223034   5.857   5.242  11.755  0.1802 -0.3669  0.6248
  515TIP3   OH223035   3.202   4.237   0.872 -0.1695 -0.3048 -0.0661
  515TIP3    H123036   3.225   4.240   0.965  2.3929 -2.9899 -0.4895
  515TIP3    H223037   3.143   4.162   0.865 -0.0133 -0.3760 -0.6638
  516TIP3   OH223038   0.975   5.766   2.115 -0.5840  0.6545  0.4729
  516TIP3    H123039   1.042   5.793   2.178  0.6083  1.5940 -1.1229
  516TIP3    H223040   0.905   5.830   2.126 -0.4054  0.7899  0.8574
  517TIP3   OH223041   6.183   0.594   2.064 -0.2420  0.1271 -0.7171
  517TIP3    H123042   6.264   0.636   2.094 -0.6330 -0.2631  1.0086
  517TIP3    H223043   6.147   0.653   1.998  0.0489  1.6946  0.4790
  518TIP3   OH223044   2.432   6.672   0.237 -0.5305 -0.1598  0.6140
  518TIP3    H123045   2.512   6.708   0.199 -0.3064 -0.0181  1.2125
  518TIP3    H223046   2.453   6.580   0.254 -1.3135 -0.8151 -1.5279
  519TIP3   OH223047   5.210   1.291   0.159  0.2975 -0.2403 -0.4582
  519TIP3    H123048   5.168   1.307   0.243  0.3617 -0.3452 -0.4057
  519TIP3    H223049   5.167   1.351   0.098 -0.4377 -0.8655 -0.5597
  520TIP3   OH223050   0.612   1.294  16.448 -0.0053  0.5837  0.1435
  520TIP3    H123051   0.643   1.383  16.433  2.9555 -0.4725 -0.5532
  520TIP3    H223052   0.563   1.271  16.369  2.1044  0.4870 -1.2012
  521TIP3   OH223053   4.081   2.863   4.278 -0.0885 -0.5700 -0.5266
  521TIP3    H123054   4.012   2.805   4.245  0.5826 -0.2662 -2.6189
  521TIP3    H223055   4.163   2.820   4.256  0.4941 -1.0637  2.1927
  522TIP3   OH223056   3.662   0.295  16.121  0.1391  0.0880 -0.8184
  522TIP3    H123057   3.701   0.375  16.087 -0.1972  0.5491 -0.1476
  522TIP3    H223058   3.735   0.234  16.131  1.1075  1.5341  2.2070
  523TIP3   OH223059   4.102   2.713  13.738 -0.7986 -0.1161 -0.5341
  523TIP3    H123060   4.045   2.679  13.808  1.5900 -1.7161  0.7839
  523TIP3    H223061   4.111   2.640  13.677  1.0621 -0.5252  0.1456
  524TIP3   OH223062   4.580   0.407   1.275 -0.4937 -0.8950  0.0941
  524TIP3    H123063   4.575   0.485   1.220 -0.0493  0.2147  1.5824
  524TIP3    H223064   4.505   0.354   1.248 -0.5477 -0.1751 -1.2463
  525TIP3   OH223065   0.532   0.496  12.244 -0.1326 -0.2784  0.7357
  525TIP3    H123066   0.605   0.439  12.224 -0.1499 -0.4829  1.2523
  525TIP3    H223067   0.514   0.482  12.337  0.3044  1.0660  1.0513
  526TIP3   OH223068   5.964   6.662  14.854  0.2953  0.3568  0.3680
  526TIP3    H123069   6.058   6.641  14.860  0.1668  0.1858  2.0830
  526TIP3    H223070   5.926   6.588  14.807  0.8948  0.0157  0.4069
  527TIP3   OH223071   1.597   3.072   6.034  0.2663  0.1300 -0.3939
  527TIP3    H123072   1.534   3.133   5.996  0.8279  1.8151  1.2134
  527TIP3    H223073   1.670   3.127   6.063  1.2674 -1.4339  0.2376
  528TIP3   OH223074   0.276   2.908   4.174 -0.9832 -0.0106 -0.3096
  528TIP3    H123075   0.340   2.910   4.246 -0.8672  0.7472 -0.4269
  528TIP3    H223076   0.330   2.902   4.095 -1.0528  0.5115 -0.4019
  529TIP3   OH223077   5.475   2.594  11.825  0.2076  0.0880  0.0247
  529TIP3    H123078   5.390   2.563  11.793  1.0550  0.3994 -2.8388
  529TIP3    H223079   5.455   2.639  11.907 -2.3958  0.0537 -0.5027
  530TIP3   OH223080   6.638   4.284  11.719  0.2775 -0.2512  0.1299
  530TIP3    H123081   6.604   4.216  11.660  0.4064  1.4629 -2.0651
  530TIP3    H223082   6.611   4.366  11.678  1.4083  1.0704  1.8979
  531TIP3   OH223083   4.050   2.317   5.858  0.2046 -0.0338 -0.2391
  531TIP3    H123084   4.045   2.341   5.950 -0.5052 -0.8668 -0.0560
  531TIP3    H223085   4.100   2.389   5.818 -0.6776  1.0475  0.5334
  532TIP3   OH223086   5.820   6.448   5.390  0.0992  0.3631 -0.2880
  532TIP3    H123087   5.811   6.435   5.485  0.1721  1.9097 -0.0311
  532TIP3    H223088   5.902   6.497   5.381  1.0827 -1.3875 -1.3506
  533TIP3   OH223089   0.749   5.697   0.780  0.0410 -0.2185  0.1352
  533TIP3    H123090   0.713   5.680   0.693 -1.5425  0.9625  0.5154
  533TIP3    H223091   0.699   5.639   0.838 -0.8164  0.9495  0.5890
  534TIP3   OH223092   0.816   2.692   3.875  0.3572  0.3132 -0.0415
  534TIP3    H123093   0.902   2.653   3.888  0.3823  0.7149  1.1403
  534TIP3    H223094   0.833   2.771   3.822  1.1012  1.7295  2.1639
  535TIP3   OH223095   4.478   4.686   4.036 -0.0155  0.2836 -0.9985
  535TIP3    H123096   4.573   4.682   4.027  0.4436  0.7295  2.3122
  535TIP3    H223097   4.447   4.606   3.994  2.0416 -0.9665 -0.3067
  536TIP3   OH223098   5.844   4.802   0.647 -0.3535  0.1702 -0.2676
  536TIP3    H123099   5.772   4.756   0.689 -0.0377  0.1783  0.2836
  536TIP3    H223100   5.889   4.847   0.718  0.3856 -0.0883 -0.5635
  537TIP3   OH223101   5.242   2.488  11.744 -0.1509 -0.2573 -0.5047
  537TIP3    H123102   5.225   2.399  11.777  0.0894  0.3006  1.1899
  537TIP3    H223103   5.199   2.489  11.659  0.0879 -2.0965 -0.7040
  538TIP3   OH223104   2.535   5.301   2.748  1.1040  0.1116 -0.0765
  538TIP3    H123105   2.593   5.332   2.679  0.9874  2.3000  0.7274
  538TIP3    H223106   2.541   5.368   2.816 -0.3385 -0.9494  1.1605
  539TIP3   OH223107   1.908   2.811   0.856 -0.1211 -0.0589  0.4242
  539TIP3    H123108   1.963   2.878   0.817  1.8683 -1.2032  1.1412
  539TIP3    H223109   1.827   2.857   0.880  0.3093  1.5535 -1.0813
  540TIP3   OH223110   4.665   4.166   2.354 -0.4381  0.3647  0.0315
  540TIP3    H123111   4.613   4.120   2.288  0.2160 -0.4097  0.0367
  540TIP3    H223112   4.754   4.130   2.344  0.0026  1.3402  0.3141
  541TIP3   OH223113   0.030   0.959   5.274 -0.1975  0.0226 -0.3307
  541TIP3    H123114   0.102   0.948   5.336 -0.5340 -0.7469 -0.0542
  541TIP3    H223115   0.059   1.029   5.216  0.4230  0.2816  0.2682
  542TIP3   OH223116   3.866   0.526   2.477 -0.1486 -0.0544 -0.1684
  542TIP3    H123117   3.896   0.615   2.494  0.9301 -0.2329 -0.9813
  542TIP3    H223118   3.945   0.479   2.447 -0.4603 -1.5635  1.2166
  543TIP3   OH223119   5.053   1.315  15.062  0.0506  0.5611  0.4187
  543TIP3    H123120   5.060   1.335  14.969  1.3978 -0.2709  0.3135
  543TIP3    H223121   5.134   1.268  15.083 -0.5441  0.1087  1.8533
  544TIP3   OH223122   3.752   4.900  11.176  0.2943  0.6457 -0.2683
  544TIP3    H123123   3.814   4.835  11.210  0.9021  0.8331 -0.9964
  544TIP3    H223124   3.790   4.984  11.201  0.0099  0.7487 -0.1795
  545TIP3   OH223125   2.627   3.210  14.115  0.6189 -0.0968  0.3043
  545TIP3    H123126   2.606   3.139  14.055  0.7170 -0.5158  0.7570
  545TIP3    H223127   2.710   3.182  14.156  0.8751  0.4724  0.1786
  546TIP3   OH223128   3.124   2.621   2.869  0.3873 -0.2933 -0.1702
  546TIP3    H123129   3.146   2.531   2.844  1.9270 -0.0028  0.0630
  546TIP3    H223130   3.136   2.622   2.964  2.6394  0.7209 -0.4172
  547TIP3   OH223131   1.886   2.660  14.485 -0.4245 -0.0495 -0.0415
  547TIP3    H123132   1.795   2.687  14.474 -0.1205  0.5112 -1.4002
  547TIP3    H223133   1.890   2.622  14.573 -1.8765  0.2591  0.1739
  548TIP3   OH223134   1.763   1.381   3.835 -0.4856  0.0241  0.7239
  548TIP3    H123135   1.821   1.421   3.771  0.6462 -1.5841  0.6669
  548TIP3    H223136   1.702   1.328   3.782 -0.1511 -0.5578  0.9097
  549TIP3   OH223137   2.113   3.818  14.294 -0.3592 -0.4292 -0.5622
  549TIP3    H123138   2.177   3.749  14.276 -0.5496 -0.2383 -2.0670
  549TIP3    H223139   2.150   3.866  14.368 -0.1765 -2.0547  0.4511
  550TIP3   OH223140   3.070   4.788   0.181  0.7291  0.0084 -0.3027
  550TIP3    H123141   3.090   4.842   0.258 -0.3853  0.3569 -0.2480
  550TIP3    H223142   3.153   4.785   0.133  0.6090  2.5987 -0.8091
  551TIP3   OH223143   3.247   1.008   0.804  0.3056 -0.1080 -0.1718
  551TIP3    H123144   3.217   1.097   0.820  1.6549  0.3019  0.2410
  551TIP3    H223145   3.341   1.017   0.788  0.1164 -1.2174 -2.2976
  552TIP3   OH223146   3.252   0.261   1.367 -0.0055  0.4380  0.4887
  552TIP3    H123147   3.268   0.236   1.458  2.7413 -1.1239 -0.3157
  552TIP3    H223148   3.264   0.356   1.366  0.5548  0.3981  1.6370
  553TIP3   OH223149   1.297   3.567  13.983  0.1561 -0.2546  0.3377
  553TIP3    H123150   1.251   3.515  14.048  0.5104 -1.3324 -0.2510
  553TIP3    H223151   1.288   3.518  13.901  0.6979  0.4851 -0.1821
  554TIP3   OH223152   5.842   6.036   3.494 -0.3883 -0.0285  0.2501
  554TIP3    H123153   5.927   6.008   3.529 -0.9291 -0.8868  0.9247
  554TIP3    H223154   5.804   6.088   3.565 -0.0387  1.1631 -0.4146
  555TIP3   OH223155   2.498   2.947   1.601  0.0364 -0.0570  0.1153
  555TIP3    H123156   2.550   2.906   1.532  0.1860  1.9453 -1.0348
  555TIP3    H223157   2.438   2.879   1.630  0.9167 -1.3508 -1.0149
  556TIP3   OH223158   4.722   3.314   0.528 -0.1635  0.2142  1.0821
  556TIP3    H123159   4.811   3.287   0.503 -0.7623 -0.6268 -0.2650
  556TIP3    H223160   4.711   3.281   0.617 -0.0272 -2.0212  0.3328
  557TIP3   OH223161   4.067   5.894  11.831  0.6672  0.0632 -0.1213
  557TIP3    H123162   4.125   5.951  11.781  1.6632 -0.2681  0.6332
  557TIP3    H223163   4.073   5.809  11.787 -0.1218  0.2951 -0.7042
  558TIP3   OH223164   5.655   4.806   4.671 -0.2398  0.0418 -0.1825
  558TIP3    H123165   5.600   4.772   4.741  0.8941 -0.2959  0.5691
  558TIP3    H223166   5.593   4.834   4.603 -1.4071  1.0951  1.2509
  559TIP3   OH223167   5.379   0.854  13.290  0.1924 -0.1078  0.0116
  559TIP3    H123168   5.376   0.883  13.198  0.6561  0.7978  0.2700
  559TIP3    H223169   5.427   0.772  13.287  3.7868  1.7972 -0.1568
  560TIP3   OH223170   2.998   1.874  13.588 -0.3371 -0.2360 -0.8719
  560TIP3    H123171   2.999   1.779  13.586  1.5194 -0.2789  0.1197
  560TIP3    H223172   3.087   1.900  13.561 -0.0852  1.1067  1.0344
  561TIP3   OH223173   1.194   2.000  13.018 -0.3210 -0.1395 -0.0287
  561TIP3    H123174   1.144   2.051  12.954  0.1417  0.3841  0.0144
  561TIP3    H223175   1.284   2.031  13.008 -0.4620  1.1066  1.9211
  562TIP3   OH223176   0.433   4.210  11.611  0.0063 -0.5396 -0.0153
  562TIP3    H123177   0.490   4.137  11.635 -0.6794 -1.0875 -0.0093
  562TIP3    H223178   0.351   4.168  11.585 -0.3496  0.2268 -0.1479
  563TIP3   OH223179   5.221   1.208  11.784  0.1741  0.1697  0.6008
  563TIP3    H123180   5.179   1.250  11.709  1.6311 -0.3186 -0.5267
  563TIP3    H223181   5.276   1.276  11.823 -0.0124  0.2190  0.7786
  564TIP3   OH223182   4.663   3.322   3.175  0.1809  0.3462 -0.0396
  564TIP3    H123183   4.753   3.292   3.186  0.2475  0.8989  1.0892
  564TIP3    H223184   4.615   3.244   3.146  1.4393  0.5983 -3.1798
  565TIP3   OH223185   2.066   2.108  14.346  0.6917 -0.1470  1.1772
  565TIP3    H123186   1.989   2.079  14.396  0.5070 -2.1216 -0.1128
  565TIP3    H223187   2.052   2.071  14.259  2.2645  0.9692  0.4125
  566TIP3   OH223188   3.077   2.802  12.967  0.1837 -0.3252  0.3466
  566TIP3    H123189   3.035   2.733  13.019  0.2783  0.2880  1.2630
  566TIP3    H223190   3.010   2.870  12.960  1.1783  0.9816  2.4428
  567TIP3   OH223191   0.460   6.435   0.466  0.4558  0.5690  0.3251
  567TIP3    H123192   0.475   6.343   0.485  0.1172  0.2808 -0.7127
  567TIP3    H223193   0.525   6.456   0.398  0.5182  1.0833  0.5392
  568TIP3   OH223194   5.435   5.735  16.771 -0.2493  0.1918 -0.1806
  568TIP3    H123195   5.366   5.671  16.756  0.3493 -0.3416 -0.6655
  568TIP3    H223196   5.516   5.686  16.760  0.2290  0.4722  1.7545
  569TIP3   OH223197   4.253   1.699   3.782 -0.3440  0.1038 -0.3748
  569TIP3    H123198   4.276   1.671   3.694 -0.5150 -0.1247 -0.3480
  569TIP3    H223199   4.209   1.783   3.771  1.0930  0.8798 -0.3782
  570TIP3   OH223200   2.613   6.427   5.442 -0.3844 -0.0119 -0.1913
  570TIP3    H123201   2.526   6.394   5.466 -0.3503 -0.2918 -0.4516
  570TIP3    H223202   2.665   6.417   5.522 -0.8488  1.0743  0.2684
  571TIP3   OH223203   0.499   0.389   3.597  0.3714  0.1821  0.0506
  571TIP3    H123204   0.560   0.355   3.532  1.7213  1.7646  0.4299
  571TIP3    H223205   0.461   0.311   3.638  1.4910 -0.8383 -0.7964
  572TIP3   OH223206   2.161   6.458   3.003  0.1916  0.1494  0.3027
  572TIP3    H123207   2.116   6.391   2.952 -1.9311  0.9459  1.0084
  572TIP3    H223208   2.253   6.430   3.005 -0.3503 -1.8673 -0.7166
  573TIP3   OH223209   0.346   3.034  10.520 -0.6803  0.3465 -0.1767
  573TIP3    H123210   0.263   3.072  10.547 -0.1804  0.4919  1.2525
  573TIP3    H223211   0.372   3.084  10.442 -2.4560 -0.4696 -1.3566
  574TIP3   OH223212   2.788   6.228  10.900  0.7523 -0.3444  0.3848
  574TIP3    H123213   2.849   6.284  10.851 -0.5240  1.0385  0.3011
  574TIP3    H223214   2.705   6.235  10.852  0.2546 -1.3915  1.0544
  575TIP3   OH223215   5.910   0.791   1.878  0.3896 -0.2641  0.1058
  575TIP3    H123216   5.823   0.760   1.903  0.5493  0.0140  1.0205
  575TIP3    H223217   5.935   0.734   1.805 -0.9079  0.1840 -0.7502
  576TIP3   OH223218   2.315   6.783   3.336  0.4457  0.2798  0.2603
  576TIP3    H123219   2.302   6.705   3.281  1.9273 -0.5627  1.0469
  576TIP3    H223220   2.227   6.817   3.350 -0.4168 -2.0546  1.0179
  577TIP3   OH223221   3.992   6.466  10.138 -0.1727 -0.0222  0.5134
  577TIP3    H123222   3.931   6.539  10.132  0.3873  0.4066 -0.1676
  577TIP3    H223223   4.040   6.481  10.219 -0.9119 -0.3242  1.0176
  578TIP3   OH223224   1.254   6.555   3.561  0.0676 -0.0954  0.0186
  578TIP3    H123225   1.286   6.633   3.516  1.7006 -1.1982 -0.8228
  578TIP3    H223226   1.167   6.580   3.592  1.5388  3.0258  2.2678
  579TIP3   OH223227   6.232   1.239   0.200  0.4526 -0.4605  0.2360
  579TIP3    H123228   6.264   1.149   0.188  2.0911  0.0150  0.7512
  579TIP3    H223229   6.216   1.271   0.112 -1.7170 -1.7382  0.0755
  580TIP3   OH223230   5.221   5.228   0.103  0.1183  0.2323  0.8072
  580TIP3    H123231   5.264   5.314   0.104  1.1088 -0.2344  0.5597
  580TIP3    H223232   5.271   5.176   0.166 -0.4247 -0.1879  0.8975
  581TIP3   OH223233   1.529   3.062   4.091  0.2336  0.4749  0.7891
  581TIP3    H123234   1.457   3.023   4.041 -0.2841  1.9550  0.3347
  581TIP3    H223235   1.487   3.100   4.168  0.4542  1.6159  0.3671
  582TIP3   OH223236   2.221   1.413   3.018  0.5755  0.0564 -0.9174
  582TIP3    H123237   2.311   1.383   3.027  1.1514  1.4648 -1.7044
  582TIP3    H223238   2.227   1.493   2.965 -1.1002  0.3427 -0.7370
  583TIP3   OH223239   3.653   6.329  16.132  0.1047 -0.0104 -0.3373
  583TIP3    H123240   3.614   6.405  16.089 -1.0519 -0.8214 -0.7477
  583TIP3    H223241   3.698   6.366  16.208  2.1464  1.4513 -2.1377
  584TIP3   OH223242   4.473   5.244  10.637 -0.2925 -0.1673  0.0805
  584TIP3    H123243   4.423   5.318  10.603  0.0373 -0.0664 -0.1964
  584TIP3    H223244   4.451   5.172  10.577 -0.0574 -0.1050 -0.0825
  585TIP3   OH223245   4.595   3.083   0.645 -0.1924 -0.4559 -0.2760
  585TIP3    H123246   4.651   3.073   0.722 -1.1237 -0.2512  0.4505
  585TIP3    H223247   4.509   3.052   0.674 -0.4624 -0.7669 -1.3657
  586TIP3   OH223248   2.369   1.988  15.498  0.3190 -0.3957 -0.4238
  586TIP3    H123249   2.334   1.941  15.422 -1.0663 -0.9404  0.5277
  586TIP3    H223250   2.358   1.928  15.571 -0.1090  0.8458  0.5601
  587TIP3   OH223251   1.363   3.193  10.979  0.0433  1.1951 -0.4205
  587TIP3    H123252   1.280   3.204  10.934 -0.5300 -0.2472  0.2221
  587TIP3    H223253   1.425   3.171  10.909 -0.3011  1.4183 -0.7996
  588TIP3   OH223254   1.509   4.513   4.726  0.5335  0.1273 -0.1876
  588TIP3    H123255   1.490   4.420   4.729  1.2025  0.0006  0.1144
  588TIP3    H223256   1.601   4.519   4.702  0.2572  0.7298 -1.1902
  589TIP3   OH223257   4.269   3.318   0.746  0.0640 -0.0738 -0.0967
  589TIP3    H123258   4.355   3.282   0.723 -0.3086  0.7322 -3.1414
  589TIP3    H223259   4.279   3.412   0.736 -1.5159 -0.0449 -2.1411
  590TIP3   OH223260   1.675   1.267   0.129  0.0635 -0.1991 -0.1314
  590TIP3    H123261   1.693   1.181   0.168  1.1221 -0.1076 -0.3802
  590TIP3    H223262   1.712   1.261   0.041  0.1290  0.5032 -0.1544
  591TIP3   OH223263   1.644   6.422   5.775  0.0392 -0.6193 -0.5094
  591TIP3    H123264   1.613   6.439   5.864  0.6065  2.6079 -0.8128
  591TIP3    H223265   1.739   6.419   5.783  0.1746  1.0526 -1.1380
  592TIP3   OH223266   3.372   2.843   5.101 -0.5130 -0.5973  0.2589
  592TIP3    H123267   3.440   2.894   5.057 -0.2701 -0.7259  0.4864
  592TIP3    H223268   3.322   2.907   5.152  0.4339 -0.7209  1.3774
  593TIP3   OH223269   0.826   0.459  11.315  0.2635  0.1074 -0.1683
  593TIP3    H123270   0.780   0.411  11.246  0.0763 -2.1446  1.3966
  593TIP3    H223271   0.769   0.449  11.392  0.5747  2.3355  0.4193
  594TIP3   OH223272   5.472   3.453  15.213  0.2349 -0.0591  0.3875
  594TIP3    H123273   5.463   3.467  15.119  1.0441 -1.3906  0.0993
  594TIP3    H223274   5.382   3.438  15.244 -0.1833  1.5965  0.0606
  595TIP3   OH223275   0.073   1.441   1.137  0.3219  0.6116  0.2109
  595TIP3    H123276   0.023   1.469   1.214  1.0824 -0.4361  1.1158
  595TIP3    H223277   0.107   1.355   1.160 -1.6624 -0.9909 -2.3357
  596TIP3   OH223278   5.937   1.748   3.190 -0.2134 -0.8439 -0.0759
  596TIP3    H123279   6.033   1.745   3.188 -0.0394  1.7395  0.5689
  596TIP3    H223280   5.912   1.785   3.105 -0.4927 -0.0783  0.3208
  597TIP3   OH223281   1.862   5.524  14.232 -0.3073  0.1557  0.7002
  597TIP3    H123282   1.803   5.494  14.300  0.2589 -0.4419  0.9422
  597TIP3    H223283   1.931   5.572  14.279 -0.8495  1.2931  0.3776
  598TIP3   OH223284   0.321   3.851  10.937  0.1256 -0.5836 -0.1709
  598TIP3    H123285   0.372   3.882  10.862 -1.0541  0.2403 -0.6520
  598TIP3    H223286   0.299   3.930  10.986  1.1528 -1.1329  1.2603
  599TIP3   OH223287   3.789   1.294  13.667  0.0482 -0.5996  0.3035
  599TIP3    H123288   3.738   1.228  13.713 -0.0238  0.8681  2.4481
  599TIP3    H223289   3.783   1.268  13.575 -3.0338 -1.5134  0.6438
  600TIP3   OH223290   5.714   0.552   3.702 -0.1850 -0.1030 -0.3105
  600TIP3    H123291   5.686   0.641   3.723  1.3991  0.2007  0.6607
  600TIP3    H223292   5.791   0.537   3.756 -0.2878 -2.0092 -0.6004
  601TIP3   OH223293   6.778   1.459  15.022 -0.3210 -0.0752 -0.3887
  601TIP3    H123294   6.835   1.526  15.061 -0.7135  0.9749 -1.5395
  601TIP3    H223295   6.703   1.454  15.082 -0.4672  0.8118 -0.4793
  602TIP3   OH223296   6.394   5.583  13.259  0.0627 -0.4802 -0.0178
  602TIP3    H123297   6.392   5.488  13.263  0.8730 -0.4713  1.0676
  602TIP3    H223298   6.487   5.605  13.254 -0.1017  0.2587  0.0504
  603TIP3   OH223299   5.146   1.925  12.683 -0.5861  0.0282  0.1927
  603TIP3    H123300   5.209   1.911  12.754 -0.1371  3.3267  0.6141
  603TIP3    H223301   5.062   1.894  12.718  0.2848 -1.9730  0.6194
  604TIP3   OH223302   0.849   2.686   1.135 -0.6526  0.1507  0.0675
  604TIP3    H123303   0.939   2.714   1.122 -0.5844  0.0269  0.2763
  604TIP3    H223304   0.838   2.685   1.230 -0.8771  0.1771  0.0423
  605TIP3   OH223305   6.500   1.675   1.030  0.4866  0.1048  0.3021
  605TIP3    H123306   6.552   1.754   1.015  0.3813 -0.1871 -1.9039
  605TIP3    H223307   6.564   1.605   1.037  0.5069  0.0734 -0.1335
  606TIP3   OH223308   1.390   1.881  12.196 -0.1380 -0.1021 -0.2517
  606TIP3    H123309   1.365   1.973  12.190  0.4844  0.0638 -0.3428
  606TIP3    H223310   1.474   1.876  12.151  1.0154 -0.2670  1.8333
  607TIP3   OH223311   3.717   2.127   4.810  0.5616 -0.4424  0.2924
  607TIP3    H123312   3.794   2.174   4.777  0.5956 -0.7525 -0.0813
  607TIP3    H223313   3.753   2.054   4.860  0.5078 -0.1300  0.8000
  608TIP3   OH223314   0.956   3.159  12.889 -0.0634  0.4987 -0.1037
  608TIP3    H123315   0.941   3.132  12.980 -1.0144  1.2452 -0.0264
  608TIP3    H223316   1.004   3.242  12.896  2.0843 -0.6599 -0.3323
  609TIP3   OH223317   5.197   1.893   6.298 -0.3920  0.1725  0.1723
  609TIP3    H123318   5.224   1.804   6.273  1.2027  0.5906  0.2940
  609TIP3    H223319   5.218   1.947   6.222  1.8341  0.9724  1.2640
  610TIP3   OH223320   4.701   1.735   2.896  0.3624  0.4015  0.2387
  610TIP3    H123321   4.755   1.800   2.850 -0.4149  0.4261 -0.6581
  610TIP3    H223322   4.689   1.665   2.832  0.5430 -0.2740  0.9378
  611TIP3   OH223323   3.701   2.115   1.126  0.0401  0.4442 -0.0869
  611TIP3    H123324   3.681   2.188   1.066 -2.3518  1.4127  1.7352
  611TIP3    H223325   3.775   2.146   1.177 -0.4808  1.3152  0.1619
  612TIP3   OH223326   4.787   1.893   4.600 -0.1127 -0.1249  0.2284
  612TIP3    H123327   4.745   1.883   4.686  1.5770  0.4746  1.1788
  612TIP3    H223328   4.785   1.805   4.563 -1.5009 -0.2572  0.5576
  613TIP3   OH223329   5.319   3.016   1.950  0.5388  0.6846  0.0727
  613TIP3    H123330   5.336   3.085   1.886  0.1894  0.6932 -0.0130
  613TIP3    H223331   5.282   3.063   2.025 -1.2061  0.4145 -0.5868
  614TIP3   OH223332   6.046   5.936  15.989 -0.1365 -0.2176  0.2890
  614TIP3    H123333   5.955   5.912  16.008 -0.1769 -1.1350 -0.8908
  614TIP3    H223334   6.043   6.029  15.967 -1.1428 -0.6524 -1.5995
  615TIP3   OH223335   1.333   1.248   1.662  0.5707 -0.4715 -0.3782
  615TIP3    H123336   1.316   1.261   1.569  1.1048 -0.4327 -0.4783
  615TIP3    H223337   1.272   1.180   1.689  0.4467 -0.5159 -0.7712
  616TIP3   OH223338   2.565   2.920   0.871 -0.1191 -0.9253 -0.3043
  616TIP3    H123339   2.550   2.982   0.800 -2.5306  0.4522  1.3057
  616TIP3    H223340   2.632   2.961   0.926  0.0329 -0.9072 -0.4997
  617TIP3   OH223341   2.623   1.815  13.613 -0.2081  1.1858 -0.0316
  617TIP3    H123342   2.611   1.909  13.604 -2.9063  0.8273 -1.0343
  617TIP3    H223343   2.682   1.792  13.541  0.0888  2.0196 -0.0703
  618TIP3   OH223344   5.750   3.903   4.806 -0.4523  0.4522  0.1062
  618TIP3    H123345   5.755   3.808   4.807 -0.8993  0.4247 -0.0120
  618TIP3    H223346   5.796   3.930   4.886 -0.2632  0.1427  0.1034
  619TIP3   OH223347   0.762   5.230  13.480  1.0401 -0.1243  0.2094
  619TIP3    H123348   0.833   5.176  13.447  0.7780 -0.7584  0.6509
  619TIP3    H223349   0.748   5.199  13.569 -0.3780 -0.6296 -0.1614
  620TIP3   OH223350   0.024   0.014  16.364 -0.3497  0.0477 -0.9778
  620TIP3    H123351   0.063   0.102  16.359  0.6274 -0.2518  0.4691
  620TIP3    H223352   0.091  -0.044  16.327  0.0146 -0.3156  0.2023
  621TIP3   OH223353   0.277   4.306   4.708 -0.1283 -0.2801 -0.5199
  621TIP3    H123354   0.214   4.351   4.653 -0.3080 -0.4421 -0.4457
  621TIP3    H223355   0.307   4.374   4.770 -0.9593 -0.4518  0.0775
  622TIP3   OH223356   1.800   4.497   3.470 -0.3685 -0.1250 -0.0832
  622TIP3    H123357   1.767   4.428   3.412 -2.5311  0.3178  0.5288
  622TIP3    H223358   1.895   4.491   3.462 -0.5486 -1.2810 -2.2441
  623TIP3   OH223359   1.907   2.750   3.086  0.2572 -1.2606  0.1971
  623TIP3    H123360   1.874   2.781   3.170  0.9982  1.2039 -0.3283
  623TIP3    H223361   2.003   2.752   3.097  0.4752  1.2785 -1.2915
  624TIP3   OH223362   5.255   4.304  16.019 -0.6869 -0.5984  0.2660
  624TIP3    H123363   5.269   4.364  15.946  0.5179 -1.1182  0.0515
  624TIP3    H223364   5.177   4.337  16.063  0.0433  1.2539  0.2615
  625TIP3   OH223365   1.452   6.418  11.365 -0.1071 -0.1701 -0.1803
  625TIP3    H123366   1.406   6.502  11.363  0.2156  0.0104 -0.0882
  625TIP3    H223367   1.489   6.413  11.453 -1.5572 -1.1934  0.4164
  626TIP3   OH223368   0.400   4.021   5.175 -0.0874 -0.4015  0.3712
  626TIP3    H123369   0.405   4.094   5.113 -0.4097  0.0067  0.8189
  626TIP3    H223370   0.477   3.967   5.155 -1.0729 -1.2065 -1.5173
  627TIP3   OH223371   5.595   1.466   4.969 -0.3725  0.4096 -0.2831
  627TIP3    H123372   5.643   1.539   5.009  2.4722 -0.8320 -1.1584
  627TIP3    H223373   5.547   1.427   5.042  1.0725  0.9201  0.9946
  628TIP3   OH223374   1.844   5.054   0.128 -0.4534 -0.6972  0.1130
  628TIP3    H123375   1.929   5.038   0.088 -0.7224  0.0424 -0.7956
  628TIP3    H223376   1.796   4.972   0.117 -0.0549 -0.9304  0.1212
  629TIP3   OH223377   4.988   2.951  15.436 -0.0655 -0.0628 -0.4073
  629TIP3    H123378   4.894   2.971  15.443  0.2650  1.9182 -1.2142
  629TIP3    H223379   5.016   2.936  15.526 -1.2945 -1.5555 -0.2192
  630TIP3   OH223380   6.133   5.096  16.477  0.4684  0.1181 -0.0237
  630TIP3    H123381   6.050   5.065  16.511  1.0365 -0.5608  0.7981
  630TIP3    H223382   6.150   5.177  16.525 -0.0224  0.6058 -0.6618
  631TIP3   OH223383   4.083   2.340   1.139 -0.3065 -0.1975  0.7749
  631TIP3    H123384   4.175   2.361   1.156 -0.3593 -0.2631  1.1450
  631TIP3    H223385   4.086   2.283   1.062 -0.3240  3.1145 -1.9052
  632TIP3   OH223386   0.527   0.821  16.644 -0.4879 -0.6880 -0.0938
  632TIP3    H123387   0.575   0.741  16.663  0.0633 -0.1610  0.8150
  632TIP3    H223388   0.589   0.875  16.594 -0.9110 -0.8691 -0.8419
  633TIP3   OH223389   2.830   0.482   4.195 -0.0044  0.5323 -0.7348
  633TIP3    H123390   2.742   0.476   4.156 -0.4208  1.0075  0.1117
  633TIP3    H223391   2.859   0.391   4.201  0.7517  0.4855 -3.5877
  634TIP3   OH223392   0.460   0.122   5.722  0.3975  0.6675 -0.4456
  634TIP3    H123393   0.397   0.070   5.671  2.3985 -1.6064 -0.7826
  634TIP3    H223394   0.413   0.144   5.802 -0.6296 -1.6749 -0.3206
  635TIP3   OH223395   1.915   0.498  13.876 -0.0293  0.5436 -0.4304
  635TIP3    H123396   1.891   0.449  13.955 -2.5311  0.2393 -1.3022
  635TIP3    H223397   1.891   0.589  13.895  2.0046  1.0277  0.1350
  636TIP3   OH223398   1.135   2.593  12.847 -0.5527  0.5881 -0.3775
  636TIP3    H123399   1.220   2.634  12.863 -0.7230  0.9356 -0.3277
  636TIP3    H223400   1.137   2.567  12.756 -0.0977 -0.1225 -0.1701
  637TIP3   OH223401   1.110   6.261   5.368  0.2962 -0.4211  0.1107
  637TIP3    H123402   1.162   6.248   5.448  1.6413 -2.2071 -0.9652
  637TIP3    H223403   1.031   6.306   5.398  2.0692  1.7017  1.9608
  638TIP3   OH223404   3.437   0.161   0.157 -0.6404  0.1516  0.0509
  638TIP3    H123405   3.502   0.209   0.106  0.1027 -0.1424  0.6973
  638TIP3    H223406   3.453   0.069   0.134 -1.5954  0.1525 -0.6555
  639TIP3   OH223407   1.736   4.785   0.123  0.1543  0.0568  0.0860
  639TIP3    H123408   1.750   4.766   0.216 -0.6311 -0.5569  0.0895
  639TIP3    H223409   1.708   4.702   0.086  2.0898 -0.1466 -1.0660
  640TIP3   OH223410   5.665   5.606  10.361  0.0289 -0.5053 -0.2245
  640TIP3    H123411   5.607   5.575  10.431  0.9474 -1.1306  0.2739
  640TIP3    H223412   5.752   5.575  10.386  0.8633  1.7374 -0.1452
  641TIP3   OH223413   5.757   3.110   0.700  0.5921 -0.0678 -0.2914
  641TIP3    H123414   5.769   3.164   0.622  1.5959 -0.5908 -0.5080
  641TIP3    H223415   5.699   3.040   0.673  1.6554 -0.7586 -0.8323
  642TIP3   OH223416   3.531   3.501   3.073  0.2256 -0.1826 -0.3558
  642TIP3    H123417   3.491   3.522   2.988 -1.0794 -2.5711 -0.4157
  642TIP3    H223418   3.457   3.480   3.130  1.1573 -4.1517 -0.2829
  643TIP3   OH223419   4.302   1.811   1.398 -0.1524 -0.7254 -0.5600
  643TIP3    H123420   4.231   1.852   1.447  0.9139 -1.3153  1.6179
  643TIP3    H223421   4.382   1.849   1.435  0.8238 -3.6105  0.5904
  644TIP3   OH223422   3.330   2.166  12.750  0.1587 -0.1051 -0.8254
  644TIP3    H123423   3.402   2.159  12.688 -1.0896 -1.9686 -2.1742
  644TIP3    H223424   3.372   2.187  12.834  1.8464  3.0261 -2.3037
  645TIP3   OH223425   1.438   0.884  12.883  0.4336  0.1434 -0.0512
  645TIP3    H123426   1.497   0.817  12.848 -0.4817 -1.4915  1.3625
  645TIP3    H223427   1.390   0.839  12.952 -0.7226  2.1091  0.4913
  646TIP3   OH223428   0.311   6.510   2.743 -0.5723 -0.2166 -0.2393
  646TIP3    H123429   0.312   6.587   2.687  0.9504 -0.8531 -1.1453
  646TIP3    H223430   0.335   6.437   2.686 -2.2796 -1.4515  0.5194
  647TIP3   OH223431   4.904   5.221  10.549 -0.8237  0.1347 -0.3867
  647TIP3    H123432   4.917   5.166  10.472  1.2516 -1.3912  0.8949
  647TIP3    H223433   4.971   5.289  10.542  0.4697 -0.9377  0.7189
  648TIP3   OH223434   4.454   5.523   6.032 -0.3922  0.5623 -0.1641
  648TIP3    H123435   4.436   5.610   5.996  1.2209  0.7197 -0.6944
  648TIP3    H223436   4.504   5.541   6.112  2.8667  0.1737 -1.9640
  649TIP3   OH223437   2.259   2.053  16.304 -0.1907 -0.6883 -0.3439
  649TIP3    H123438   2.258   2.024  16.213  0.9973  3.0523 -1.7621
  649TIP3    H223439   2.345   2.095  16.314 -0.0476 -1.5088  2.7401
  650TIP3   OH223440   3.051   2.058   1.166 -0.7655  0.1727 -0.1265
  650TIP3    H123441   3.036   2.048   1.072 -0.0667 -0.0703 -0.2225
  650TIP3    H223442   3.008   1.983   1.206  0.5704 -0.7963 -0.4371
  651TIP3   OH223443   0.382   3.556  15.101 -0.0420  0.1115  0.7694
  651TIP3    H123444   0.332   3.633  15.074 -0.2581 -0.0415  0.7324
  651TIP3    H223445   0.442   3.589  15.169  1.3075  0.7420 -0.6570
  652TIP3   OH223446   5.067   2.524  14.935  0.1445  0.5240  0.9838
  652TIP3    H123447   5.056   2.461  15.006  2.6333  1.1178  1.9717
  652TIP3    H223448   5.087   2.471  14.858 -1.5611 -0.0574  0.9031
  653TIP3   OH223449   0.379   6.515  12.891 -0.2198  0.3250 -0.1358
  653TIP3    H123450   0.298   6.563  12.909  0.2180  1.4426 -1.0536
  653TIP3    H223451   0.448   6.572  12.923  0.2205 -0.7394  0.8807
  654TIP3   OH223452   1.287   3.208   1.777 -0.3345  0.1509  0.1192
  654TIP3    H123453   1.313   3.275   1.840  1.4929  1.0568 -1.4550
  654TIP3    H223454   1.336   3.130   1.803 -0.1198  0.3211  0.2247
  655TIP3   OH223455   5.835   6.527  13.978 -0.2816 -0.3179 -0.6526
  655TIP3    H123456   5.792   6.507  14.061  1.3766 -1.1855  0.0622
  655TIP3    H223457   5.905   6.589  14.002 -0.9831  0.9369 -1.7383
  656TIP3   OH223458   5.884   3.860  13.818  0.1960 -0.3206  0.8597
  656TIP3    H123459   5.951   3.792  13.805  1.9214  1.3861  0.3622
  656TIP3    H223460   5.825   3.851  13.743  2.2466  0.7146 -0.9740
  657TIP3   OH223461   0.252   5.102  11.667  0.0771  0.0130 -0.1459
  657TIP3    H123462   0.266   5.060  11.582  0.2582  2.1101 -1.2181
  657TIP3    H223463   0.164   5.138  11.662 -0.1198 -0.3027  0.8004
  658TIP3   OH223464   0.625   4.845  16.432  0.0490  0.4915 -0.3119
  658TIP3    H123465   0.634   4.845  16.527  0.9511  0.2801 -0.3890
  658TIP3    H223466   0.532   4.862  16.416 -0.0987  0.5577  0.6030
  659TIP3   OH223467   4.157   6.683   1.475  0.1753  0.5679  0.1813
  659TIP3    H123468   4.088   6.669   1.540 -0.0932 -0.9625 -0.3916
  659TIP3    H223469   4.129   6.632   1.399  2.2767 -0.7010  0.1766
  660TIP3   OH223470   2.473   2.176   4.354  0.4972 -0.0979 -0.2687
  660TIP3    H123471   2.482   2.157   4.261  0.2799 -1.8167  0.0308
  660TIP3    H223472   2.484   2.091   4.397 -0.8302  0.4096  1.1780
  661TIP3   OH223473   1.581   3.637   5.085  0.2168  0.1191 -0.5215
  661TIP3    H123474   1.505   3.648   5.143 -0.2880 -0.0529 -1.1465
  661TIP3    H223475   1.625   3.559   5.118  0.1592  0.2539 -0.1199
  662TIP3   OH223476   1.404   4.501  15.886  0.1109 -0.2713 -0.1007
  662TIP3    H123477   1.426   4.543  15.969  3.1960  0.3887 -1.1107
  662TIP3    H223478   1.428   4.409  15.898  1.1130 -0.0622 -0.3909
  663TIP3   OH223479   2.648   4.791   6.429 -0.3526  0.1775  0.3985
  663TIP3    H123480   2.656   4.884   6.448  0.8788 -0.0560  1.1410
  663TIP3    H223481   2.736   4.764   6.403 -0.9160 -0.5780 -0.8111
  664TIP3   OH223482   0.226   2.577  16.044  0.0381  0.4659  0.5222
  664TIP3    H123483   0.249   2.573  16.137  1.2842  0.9011  0.2573
  664TIP3    H223484   0.270   2.502  16.005  0.8980  1.1968  0.0351
  665TIP3   OH223485   5.916   3.445   5.608 -0.8375  0.1364 -0.3246
  665TIP3    H123486   5.871   3.528   5.592 -0.5239  0.3579 -0.0712
  665TIP3    H223487   5.927   3.442   5.703  2.5451  1.6277 -0.5268
  666TIP3   OH223488   2.929   2.104   6.110  0.2453 -0.1378 -0.7298
  666TIP3    H123489   2.928   2.120   6.016 -1.8146 -1.4559 -0.9966
  666TIP3    H223490   2.893   2.016   6.120 -2.8336  1.1582  1.4038
  667TIP3   OH223491   5.287   3.606   0.707 -0.5813  0.1913  0.1657
  667TIP3    H123492   5.283   3.510   0.702  2.2347 -0.1384  1.9914
  667TIP3    H223493   5.216   3.630   0.767  0.3376 -1.0736  1.8378
  668TIP3   OH223494   6.861   5.946   0.106  0.1848 -0.1391 -0.7248
  668TIP3    H123495   6.794   6.012   0.126 -1.0886 -1.3511 -0.8162
  668TIP3    H223496   6.927   5.958   0.175 -0.3675  0.7575 -0.3286
  669TIP3   OH223497   3.952   0.757  12.532 -0.2121 -0.2895  0.3155
  669TIP3    H123498   3.900   0.831  12.564 -0.7866 -0.7617  0.4955
  669TIP3    H223499   3.930   0.751  12.439 -0.3484 -0.3844  0.3540
  670TIP3   OH223500   1.953   3.136  11.319  0.0728 -0.6504  0.3278
  670TIP3    H123501   1.943   3.095  11.232 -1.0950 -1.3467  0.7654
  670TIP3    H223502   1.864   3.140  11.354  0.5173 -0.2933  1.4596
  671TIP3   OH223503   1.527   6.479   5.416  0.0744 -0.1663 -0.3153
  671TIP3    H123504   1.504   6.527   5.496  0.1902 -0.1002 -0.3206
  671TIP3    H223505   1.514   6.541   5.345  1.3735  0.2527 -0.2160
  672TIP3   OH223506   2.056   3.676   6.529  1.1469  0.1040  0.4939
  672TIP3    H123507   2.063   3.772   6.528  2.0753  0.0451  0.7230
  672TIP3    H223508   2.102   3.648   6.450 -1.5200 -0.0442 -1.1458
  673TIP3   OH223509   4.119   4.476  15.664  0.3732 -0.1745  0.5456
  673TIP3    H123510   4.050   4.532  15.628  0.5327 -0.8015 -0.8032
  673TIP3    H223511   4.118   4.493  15.758 -0.2609  1.3225  0.2909
  674TIP3   OH223512   2.970   2.391   4.107  0.1231 -0.0728  0.4159
  674TIP3    H123513   2.887   2.413   4.149 -0.3050 -2.9775  1.2957
  674TIP3    H223514   3.034   2.449   4.147 -1.1794  0.9767  1.0512
  675TIP3   OH223515   0.439   2.843   2.096  0.6008  0.3299  0.4127
  675TIP3    H123516   0.512   2.846   2.035  1.7927 -0.5423  1.7152
  675TIP3    H223517   0.389   2.923   2.078  1.6619  0.7629 -0.7635
  676TIP3   OH223518   5.928   4.979   2.529  0.1674 -0.2712 -0.3577
  676TIP3    H123519   5.865   4.995   2.600 -0.3268 -0.0142 -0.8461
  676TIP3    H223520   5.904   4.893   2.496 -0.5534  0.2229 -1.1661
  677TIP3   OH223521   2.557   3.459   5.879 -0.1099 -0.0653 -0.1874
  677TIP3    H123522   2.639   3.505   5.899  0.0040 -0.2890 -0.1394
  677TIP3    H223523   2.585   3.376   5.839 -0.3328  0.7842 -2.2315
  678TIP3   OH223524   1.076   2.158  11.266 -0.1859 -0.1887 -0.0547
  678TIP3    H123525   1.115   2.244  11.251 -0.7105 -0.0131 -0.4698
  678TIP3    H223526   1.026   2.169  11.347  0.4219 -0.3444  0.3445
  679TIP3   OH223527   1.324   1.086  11.925  0.0144 -0.5708 -0.0138
  679TIP3    H123528   1.340   1.178  11.945 -1.5689  0.1912 -1.8938
  679TIP3    H223529   1.280   1.052  12.003 -0.7494  0.6865  0.1242
  680TIP3   OH223530   1.876   1.596  12.741 -0.0734  0.8826  0.3059
  680TIP3    H123531   1.903   1.628  12.827  0.9917  0.2387  0.2301
  680TIP3    H223532   1.877   1.500  12.750  0.1809  0.8069 -0.4639
  681TIP3   OH223533   3.947   1.558   4.168  0.4964  0.3700 -0.1489
  681TIP3    H123534   3.908   1.470   4.167  0.8073  0.2316 -0.6344
  681TIP3    H223535   3.909   1.602   4.093  0.3141  0.6681  0.1153
  682TIP3   OH223536   3.706   5.147  14.093 -0.4170 -0.0410  0.0441
  682TIP3    H123537   3.700   5.055  14.117  1.1208  0.1034  1.0718
  682TIP3    H223538   3.740   5.191  14.171 -2.9832  1.7637  0.3026
  683TIP3   OH223539   6.382   5.675  14.325  0.5064  0.3428  0.6152
  683TIP3    H123540   6.407   5.706  14.412  1.7594 -2.5912  1.4249
  683TIP3    H223541   6.439   5.600  14.309 -1.1798 -0.5429 -1.8105
  684TIP3   OH223542   3.600   1.656   5.341 -0.1915  0.1024 -0.1353
  684TIP3    H123543   3.623   1.606   5.262  1.2640  0.0405  0.2905
  684TIP3    H223544   3.560   1.591   5.399 -0.8921  0.0603 -0.6515
  685TIP3   OH223545   2.878   5.147  12.476 -0.0256 -0.2080 -0.3052
  685TIP3    H123546   2.922   5.220  12.432  0.9275 -0.6341 -0.0750
  685TIP3    H223547   2.820   5.189  12.540  0.8622  0.3446  0.1562
  686TIP3   OH223548   2.584   6.586   5.787 -0.9110  0.0555 -0.1079
  686TIP3    H123549   2.539   6.556   5.708 -0.2155 -0.3538 -0.3540
  686TIP3    H223550   2.599   6.505   5.837 -0.3841  0.1770 -0.0650
  687TIP3   OH223551   4.131   3.475   1.243  0.2321  0.3057  0.5714
  687TIP3    H123552   4.042   3.452   1.270  0.1813  1.0500  1.0617
  687TIP3    H223553   4.127   3.478   1.147  0.2156 -1.5467  0.4782
  688TIP3   OH223554   5.253   4.215  14.372  0.2663 -0.0585  0.2086
  688TIP3    H123555   5.280   4.193  14.461  1.9995  2.7008  0.4989
  688TIP3    H223556   5.194   4.289  14.382 -1.0205 -0.8767 -0.9168
  689TIP3   OH223557   1.691   6.487   3.779  0.3835  0.0706 -0.1434
  689TIP3    H123558   1.637   6.476   3.857 -1.4719  1.7934 -1.0943
  689TIP3    H223559   1.629   6.488   3.706  1.9565 -0.3424 -1.5461
  690TIP3   OH223560   5.039   3.163   4.266  0.2728 -0.5966 -0.8331
  690TIP3    H123561   4.956   3.154   4.221  0.2294 -0.8903 -0.6955
  690TIP3    H223562   5.032   3.105   4.343 -0.1158  0.7918  0.2215
  691TIP3   OH223563   5.093   0.346  11.385 -0.7238  0.4520  0.2443
  691TIP3    H123564   5.185   0.372  11.386 -0.6829  0.3362 -0.1470
  691TIP3    H223565   5.086   0.287  11.310 -1.1481  0.5869  0.1736
  692TIP3   OH223566   0.719   1.115  15.590  0.1957 -0.1799 -0.2683
  692TIP3    H123567   0.765   1.195  15.618  2.2281 -1.3280 -0.1365
  692TIP3    H223568   0.751   1.100  15.501 -2.3792  0.6571 -1.4440
  693TIP3   OH223569   3.284   2.155   2.027 -0.1855  0.6244  0.6355
  693TIP3    H123570   3.373   2.119   2.030  0.4635  2.0790 -0.0015
  693TIP3    H223571   3.271   2.178   1.935 -0.8247  1.3782  0.9056
  694TIP3   OH223572   0.319   4.856   5.911 -0.0709 -0.6854  0.6040
  694TIP3    H123573   0.249   4.795   5.936 -1.3721  0.9158  1.1073
  694TIP3    H223574   0.355   4.820   5.830 -2.6576 -0.7127 -0.6495
  695TIP3   OH223575   1.027   0.419  12.601  0.9908  0.1559 -0.3071
  695TIP3    H123576   0.942   0.425  12.643 -0.3566 -0.7449 -2.7072
  695TIP3    H223577   1.079   0.362  12.659 -0.0291  0.6142  1.1137
  696TIP3   OH223578   1.652   5.743   2.218  0.4774 -0.1801 -0.0003
  696TIP3    H123579   1.580   5.790   2.260 -1.0329 -1.9750 -0.4303
  696TIP3    H223580   1.640   5.759   2.125  0.0348 -1.2266 -0.1408
  697TIP3   OH223581   3.225   2.347   4.909  0.2346 -0.5531  0.1312
  697TIP3    H123582   3.178   2.427   4.887  2.5862  0.4711 -1.6593
  697TIP3    H223583   3.205   2.331   5.001 -0.5512  1.9293  0.4599
  698TIP3   OH223584   2.240   5.650  11.707 -0.4710  0.3417  0.0545
  698TIP3    H123585   2.280   5.608  11.783 -0.1034 -0.2945 -0.4886
  698TIP3    H223586   2.216   5.578  11.649  0.1840  0.8641 -0.8972
  699TIP3   OH223587   2.015   5.446  16.734 -0.0316 -0.5864  0.0631
  699TIP3    H123588   1.953   5.486  16.672 -0.8493 -0.1727  1.1285
  699TIP3    H223589   1.998   5.490  16.817  1.7482 -0.4278  0.3708
  700TIP3   OH223590   4.315   4.225  16.309 -0.2046  0.5238  0.1828
  700TIP3    H123591   4.280   4.161  16.370 -0.0040  0.8133  0.6081
  700TIP3    H223592   4.406   4.238  16.337 -0.0853  0.6016 -0.2245
  701TIP3   OH223593   5.252   4.522  13.924  0.6974  0.1174  0.2317
  701TIP3    H123594   5.313   4.550  13.992 -0.8037  2.0179  0.8706
  701TIP3    H223595   5.206   4.601  13.898 -0.8737 -1.0876 -0.8805
  702TIP3   OH223596   2.607   6.600  15.420 -0.0964 -0.3475  0.7014
  702TIP3    H123597   2.540   6.549  15.466 -2.1976  0.9510 -0.7794
  702TIP3    H223598   2.637   6.663  15.486 -2.4986  0.9754  0.6589
  703TIP3   OH223599   5.027   1.539   0.356 -0.2351 -0.3678  1.3013
  703TIP3    H123600   5.102   1.530   0.297 -0.0539 -0.6236  1.5691
  703TIP3    H223601   4.951   1.548   0.298 -0.0918 -0.8975  1.0242
  704TIP3   OH223602   2.131   1.859  15.250  0.0739  0.3853 -0.3824
  704TIP3    H123603   2.125   1.900  15.163  1.9965  1.4909 -0.0420
  704TIP3    H223604   2.175   1.776  15.235  1.6982  1.2005 -0.3347
  705TIP3   OH223605   2.266   3.744  10.474 -0.1676 -0.2055 -0.0830
  705TIP3    H123606   2.313   3.803  10.415  0.0821  1.0257  1.2941
  705TIP3    H223607   2.183   3.789  10.490  0.7832  0.8009  2.4918
  706TIP3   OH223608   4.327   2.592  13.450  0.4154 -0.0314  0.4915
  706TIP3    H123609   4.382   2.611  13.526 -1.1204 -1.0472  1.9065
  706TIP3    H223610   4.246   2.556  13.486 -0.4244 -0.4327 -1.6238
  707TIP3   OH223611   0.443   0.928   2.537 -0.3649  0.4789 -0.3811
  707TIP3    H123612   0.441   0.877   2.618  0.4647 -1.7239 -1.6581
  707TIP3    H223613   0.463   0.864   2.469 -1.0249  2.2523 -2.3531
  708TIP3   OH223614   1.620   4.554   3.653 -0.1950  0.3179  0.4574
  708TIP3    H123615   1.648   4.640   3.686 -0.0085  0.0263  1.0885
  708TIP3    H223616   1.673   4.540   3.575  1.2660 -0.1019  1.4828
  709TIP3   OH223617   1.882   6.099   3.246 -0.2723 -0.0777 -0.1437
  709TIP3    H123618   1.808   6.159   3.241  0.5569  1.0695  0.7641
  709TIP3    H223619   1.912   6.105   3.337  0.7347 -0.7737 -0.4101
  710TIP3   OH223620   0.084   3.617   6.485 -0.0713 -0.1909 -0.5078
  710TIP3    H123621   0.130   3.698   6.463  0.1806  0.3228  1.7067
  710TIP3    H223622  -0.009   3.638   6.472 -0.5419  2.1852  4.3390
  711TIP3   OH223623   6.076   1.057  11.933  0.4216 -0.2375  0.2515
  711TIP3    H123624   6.149   1.093  11.984  1.7027 -0.8404 -1.0658
  711TIP3    H223625   6.103   0.967  11.915 -0.9329 -0.6525  0.2111
  712TIP3   OH223626   6.561   2.696   3.721  0.1122  0.3331  0.1647
  712TIP3    H123627   6.620   2.761   3.683 -1.1845  1.1275 -0.5438
  712TIP3    H223628   6.608   2.662   3.797  1.6571  0.6329 -0.6206
  713TIP3   OH223629   5.029   4.130   0.728  0.3117 -0.1266 -0.2212
  713TIP3    H123630   5.032   4.206   0.785  1.2783 -0.9106  0.8129
  713TIP3    H223631   5.107   4.139   0.673 -0.6665  0.6793 -1.5350
  714TIP3   OH223632   3.235   2.540   1.017 -0.3927  0.1790  0.4347
  714TIP3    H123633   3.161   2.479   1.010 -1.1513  1.2624 -2.0260
  714TIP3    H223634   3.211   2.613   0.960  2.3484  0.8157 -0.0195
  715TIP3   OH223635   3.692   4.064   3.745  0.5187 -0.3090  0.0512
  715TIP3    H123636   3.610   4.025   3.713  0.7935 -0.6887 -0.2038
  715TIP3    H223637   3.691   4.153   3.711  0.6339 -0.5924 -0.7305
  716TIP3   OH223638   1.120   5.755  12.088 -0.5411  0.4015  0.7840
  716TIP3    H123639   1.206   5.776  12.126 -0.9914  1.1220  1.4279
  716TIP3    H223640   1.116   5.659  12.092  1.1509  0.1522 -1.3405
  717TIP3   OH223641   6.504   0.967  16.947 -0.0548  0.1877 -0.2288
  717TIP3    H123642   6.462   0.941  16.865 -0.7415  2.0617 -0.5196
  717TIP3    H223643   6.585   0.916  16.950 -0.4699 -0.5934 -1.6022
  718TIP3   OH223644   6.519   0.304   0.948  0.0043 -0.3825 -0.2219
  718TIP3    H123645   6.464   0.373   0.911 -0.2866  0.1397  1.1219
  718TIP3    H223646   6.490   0.296   1.038  2.3293  0.1725  0.6586
  719TIP3   OH223647   1.423   1.330  10.468 -0.5087  0.4489 -0.1904
  719TIP3    H123648   1.329   1.343  10.473 -0.3632  1.2401  0.7478
  719TIP3    H223649   1.453   1.394  10.403 -0.5922  0.2489 -0.4321
  720TIP3   OH223650   3.426   3.692   1.460 -0.1715 -0.4117  0.4514
  720TIP3    H123651   3.500   3.751   1.450  0.4593 -1.3090 -0.2995
  720TIP3    H223652   3.460   3.618   1.510 -1.1136  0.1108  1.9343
  721TIP3   OH223653   2.409   4.463  12.802 -0.1944  0.8025 -0.5630
  721TIP3    H123654   2.385   4.494  12.715  0.0359 -0.5486 -1.1352
  721TIP3    H223655   2.346   4.393  12.821  0.4105  0.3676 -0.1030
  722TIP3   OH223656   1.522   4.055  14.908  0.2244  0.4703 -0.1342
  722TIP3    H123657   1.481   3.984  14.859 -0.2448  0.5583  0.1297
  722TIP3    H223658   1.451   4.096  14.956  0.4693  1.2152 -0.3925
  723TIP3   OH223659   3.773   3.689   0.290 -0.2995  0.2216 -0.1331
  723TIP3    H123660   3.708   3.710   0.223 -1.8138 -0.0965  1.1835
  723TIP3    H223661   3.824   3.617   0.251 -0.1054  1.0785 -1.5448
  724TIP3   OH223662   4.342   0.847   5.667  0.0495 -0.7032  1.0499
  724TIP3    H123663   4.436   0.863   5.658  0.4278 -1.3089  3.1945
  724TIP3    H223664   4.334   0.751   5.667 -0.7120 -0.6551 -0.0983
  725TIP3   OH223665   5.372   3.195  13.473  0.1200  0.1565 -0.6117
  725TIP3    H123666   5.361   3.284  13.438  0.0957  0.6619  0.6324
  725TIP3    H223667   5.406   3.208  13.561  1.2595 -1.1216 -0.8363
  726TIP3   OH223668   2.894   3.312   3.052 -0.0405 -0.2672  0.1656
  726TIP3    H123669   2.821   3.263   3.015 -0.6971  0.6304  0.2403
  726TIP3    H223670   2.854   3.393   3.084  0.7481 -0.3674  1.4790
  727TIP3   OH223671   4.508   4.025  11.103 -0.0880 -0.4788 -0.0633
  727TIP3    H123672   4.603   4.011  11.107  0.0148 -0.1826 -1.1459
  727TIP3    H223673   4.472   3.940  11.078  0.0230 -0.2394 -1.0464
  728TIP3   OH223674   5.566   1.977  11.883 -0.0571 -0.4551 -0.4946
  728TIP3    H123675   5.512   1.898  11.880  0.1168 -0.5776 -0.4156
  728TIP3    H223676   5.512   2.041  11.929  0.6159 -1.1739  1.4127
  729TIP3   OH223677   1.988   0.213   4.807 -0.1551  0.0741  0.6767
  729TIP3    H123678   1.906   0.200   4.855  0.1203 -0.3187  1.0465
  729TIP3    H223679   1.968   0.187   4.717 -0.2916 -0.5116  0.8770
  730TIP3   OH223680   3.653   0.324   5.427  0.4560 -0.0163  0.0325
  730TIP3    H123681   3.748   0.332   5.436  0.6280  1.1955 -2.0848
  730TIP3    H223682   3.628   0.397   5.371 -1.5611 -1.0151 -0.4714
  731TIP3   OH223683   0.536   1.005  15.750  0.5682  0.0370  0.7337
  731TIP3    H123684   0.473   1.035  15.684  0.1597 -1.2301  0.5153
  731TIP3    H223685   0.621   1.037  15.718  0.3795 -0.5435 -0.4340
  732TIP3   OH223686   0.470   4.182   2.441  0.1124 -0.5828  0.1357
  732TIP3    H123687   0.462   4.258   2.384 -0.9656 -0.4293  0.4688
  732TIP3    H223688   0.487   4.109   2.381  0.2609 -0.2268 -0.2597
  733TIP3   OH223689   2.032   0.868  13.036 -0.0937 -0.1458 -0.0666
  733TIP3    H123690   2.020   0.948  12.986  2.0699  1.2840  1.5349
  733TIP3    H223691   2.091   0.815  12.983  0.2357  0.2837 -0.1290
  734TIP3   OH223692   1.692   2.346  14.751  0.2228 -0.1881  0.1225
  734TIP3    H123693   1.761   2.411  14.770 -0.3574  0.6537 -0.5606
  734TIP3    H223694   1.618   2.398  14.720 -0.6142 -1.1114  0.5277
  735TIP3   OH223695   6.029   4.250  12.842 -0.0752 -0.2277  0.1079
  735TIP3    H123696   6.080   4.281  12.767 -0.5197  1.0005  0.2801
  735TIP3    H223697   6.036   4.321  12.906 -1.5524 -0.2588  0.3426
  736TIP3   OH223698   2.063   0.538   0.467 -0.7115  0.2942 -0.1111
  736TIP3    H123699   2.086   0.490   0.547  0.7044  0.5797 -0.3332
  736TIP3    H223700   2.036   0.624   0.499  1.2124  0.8974  0.0119
  737TIP3   OH223701   4.931   5.969   2.358 -0.3149 -0.0777 -0.0143
  737TIP3    H123702   4.932   5.892   2.300  0.5875  0.0322 -0.1649
  737TIP3    H223703   5.011   5.960   2.409 -0.5440  0.4218  0.4313
  738TIP3   OH223704   2.739   5.379  12.139  0.0484  0.2427 -0.1920
  738TIP3    H123705   2.707   5.306  12.086 -0.9896 -0.0661  0.8325
  738TIP3    H223706   2.827   5.353  12.166 -0.3046 -0.6263  0.1439
  739TIP3   OH223707   3.920   0.250   5.517 -0.5583 -0.0551 -0.3643
  739TIP3    H123708   4.003   0.266   5.472  0.7285 -1.1332  1.4922
  739TIP3    H223709   3.891   0.165   5.483  0.4192 -0.8752  0.7806
  740TIP3   OH223710   1.703   1.319   1.082 -0.2611 -0.9480 -0.2256
  740TIP3    H123711   1.610   1.294   1.084 -1.0252  1.6624  0.8261
  740TIP3    H223712   1.715   1.361   0.997 -1.1717  2.1758  1.0383
  741TIP3   OH223713   1.974   2.540   1.910  0.0466  0.1955 -0.3485
  741TIP3    H123714   1.943   2.556   1.999 -2.1766 -1.8127 -0.6438
  741TIP3    H223715   1.932   2.609   1.857 -0.2596  0.2079 -0.0931
  742TIP3   OH223716   5.339   1.384   5.087  0.4752  0.3958  0.4056
  742TIP3    H123717   5.322   1.478   5.086 -0.6376  0.2061  0.4905
  742TIP3    H223718   5.266   1.347   5.136  0.3199 -0.6329 -0.5803
  743TIP3   OH223719   5.905   3.137   1.653  0.4868 -0.1981 -0.4884
  743TIP3    H123720   5.874   3.049   1.631 -0.5997  0.3964 -1.4468
  743TIP3    H223721   5.961   3.162   1.579  0.5680  0.0174 -0.3551
  744TIP3   OH223722   5.987   6.026  15.190 -0.2800  0.3637 -0.2792
  744TIP3    H123723   5.947   6.008  15.275  0.7293  1.7290  0.5351
  744TIP3    H223724   5.976   6.121  15.179  1.2267  0.5032 -0.7845
  745TIP3   OH223725   2.805   3.459  11.693 -0.2923  0.3752  0.1447
  745TIP3    H123726   2.853   3.393  11.742 -1.5219 -0.3133  0.4874
  745TIP3    H223727   2.843   3.456  11.605  0.2228 -0.2055  0.3762
  746TIP3   OH223728   1.563   0.032   2.996  0.9344 -0.3766 -0.3230
  746TIP3    H123729   1.478   0.067   2.970  2.1180  0.7422 -3.0334
  746TIP3    H223730   1.603   0.101   3.048 -0.3495 -1.5390  2.3897
  747TIP3   OH223731   3.108   2.766   3.829  0.3283 -0.8067  0.4666
  747TIP3    H123732   3.192   2.731   3.801  0.8995 -0.6374  1.8776
  747TIP3    H223733   3.051   2.754   3.754  1.3180 -1.9300 -0.1459
  748TIP3   OH223734   5.279   0.631   2.796 -0.0568 -0.1959  0.2037
  748TIP3    H123735   5.330   0.587   2.864  1.1746  0.5013 -0.2243
  748TIP3    H223736   5.269   0.564   2.727  0.6830 -0.2172  0.1057
  749TIP3   OH223737   0.024   0.534   6.631  0.5093  0.3910  0.0069
  749TIP3    H123738  -0.040   0.466   6.610 -1.4632  1.9635  0.5459
  749TIP3    H223739  -0.027   0.615   6.629  2.0806  1.5379  2.2754
  750TIP3   OH223740   0.691   1.466   5.904  0.4302 -0.1433  0.4378
  750TIP3    H123741   0.775   1.421   5.900  0.7150  0.2651  1.5213
  750TIP3    H223742   0.711   1.557   5.883 -0.1322 -0.4676 -1.6704
  751TIP3   OH223743   1.873   5.695   2.702 -0.1709  0.0229  0.0044
  751TIP3    H123744   1.810   5.665   2.637  0.3840 -1.4440  0.1109
  751TIP3    H223745   1.840   5.781   2.729 -1.3648 -0.1127 -0.9221
  752TIP3   OH223746   2.362   5.881   3.280  0.3043  0.3703 -0.2384
  752TIP3    H123747   2.380   5.910   3.191 -0.9259  0.7637 -0.3791
  752TIP3    H223748   2.283   5.930   3.306  0.0195 -0.5290  0.6678
  753TIP3   OH223749   4.175   3.996  10.559  0.1032 -0.1968  0.1118
  753TIP3    H123750   4.142   4.017  10.471  1.7020 -0.4797 -0.5934
  753TIP3    H223751   4.116   3.928  10.591  0.6293 -1.5097 -1.5718
  754TIP3   OH223752   2.053   5.982   0.607 -0.0759 -0.1220  0.2614
  754TIP3    H123753   1.960   5.958   0.611 -0.3590  0.5992 -1.3494
  754TIP3    H223754   2.099   5.903   0.636 -1.1747 -0.7036  0.4737
  755TIP3   OH223755   6.506   6.366  15.069  0.4741 -0.0629 -0.8493
  755TIP3    H123756   6.504   6.459  15.046 -1.2236 -0.0146 -0.6796
  755TIP3    H223757   6.598   6.348  15.090  0.5545  2.0738  1.0501
  756TIP3   OH223758   4.045   1.678   0.950 -0.2724 -0.4297 -0.2342
  756TIP3    H123759   4.134   1.671   0.915 -0.5905 -0.0563 -1.1311
  756TIP3    H223760   4.057   1.678   1.045  0.8016  0.9024 -0.3429
  757TIP3   OH223761   0.548   1.448   1.202 -0.1306  0.8800  0.1761
  757TIP3    H123762   0.502   1.501   1.268 -0.8046  0.0921  0.3699
  757TIP3    H223763   0.617   1.404   1.251 -0.1804  0.8422  0.2128
  758TIP3   OH223764   1.826   1.606   0.017 -0.0190 -0.2221 -0.5411
  758TIP3    H123765   1.829   1.681   0.076  0.8086 -0.8215  0.1992
  758TIP3    H223766   1.746   1.619  -0.035 -0.6690  0.4033  0.5839
  759TIP3   OH223767   0.747   6.058   3.079  0.0938 -0.1371 -0.5856
  759TIP3    H123768   0.685   6.047   3.007 -0.3830  0.5750 -0.2996
  759TIP3    H223769   0.746   5.975   3.126 -0.2526 -0.3053 -0.8912
  760TIP3   OH223770   4.123   0.859   5.801  0.6741 -0.2837  0.1717
  760TIP3    H123771   4.153   0.779   5.844  1.8131 -0.8754 -1.6034
  760TIP3    H223772   4.200   0.891   5.753 -0.2650  0.8500 -0.6579
  761TIP3   OH223773   0.394   3.628  11.710 -0.0751  0.1796  0.5386
  761TIP3    H123774   0.363   3.715  11.683 -2.1494  0.1064  2.3692
  761TIP3    H223775   0.396   3.578  11.628 -0.2385  1.5495 -0.3499
  762TIP3   OH223776   0.943   1.123  14.685  0.0739  0.2098  0.1073
  762TIP3    H123777   0.885   1.063  14.731  4.2442 -3.5959  1.0571
  762TIP3    H223778   0.921   1.111  14.592  1.0670 -3.4210  0.2116
  763TIP3   OH223779   1.861   4.946  13.920 -0.3858 -0.1425  0.5359
  763TIP3    H123780   1.825   4.987  13.841 -1.0124 -1.2363  0.2392
  763TIP3    H223781   1.956   4.956  13.910 -0.4494 -0.4574 -0.4645
  764TIP3   OH223782   3.112   1.852   3.713 -0.0857  0.4652  0.1689
  764TIP3    H123783   3.042   1.822   3.771  0.1478  1.1677  0.8267
  764TIP3    H223784   3.099   1.946   3.706 -0.7270  0.2895 -1.7733
  765TIP3   OH223785   5.505   3.777   4.145 -0.0559 -0.5591 -0.1406
  765TIP3    H123786   5.419   3.768   4.104 -2.0359  0.6059  3.3446
  765TIP3    H223787   5.524   3.870   4.140  1.3335 -0.8795 -1.3640
  766TIP3   OH223788   2.677   3.130   3.052 -0.1875  0.4857  0.0206
  766TIP3    H123789   2.656   3.037   3.050  0.6496  0.2644 -2.3169
  766TIP3    H223790   2.644   3.164   2.968 -1.9358  2.6904  1.4620
  767TIP3   OH223791   1.330   3.297  16.802  0.3877  0.0131  0.0082
  767TIP3    H123792   1.330   3.389  16.828  0.0143 -0.6660  2.6349
  767TIP3    H223793   1.422   3.271  16.806  0.7084  0.5682 -2.1936
  768TIP3   OH223794   2.489   4.931  12.754 -0.0928  0.1834 -0.5127
  768TIP3    H123795   2.468   5.019  12.722  1.3248  0.6184 -0.3327
  768TIP3    H223796   2.572   4.909  12.710  0.3083 -0.4634  0.5296
  769TIP3   OH223797   2.351   1.667  12.519  0.2081  0.1625 -0.1387
  769TIP3    H123798   2.307   1.667  12.434 -0.5066  0.1006  0.2309
  769TIP3    H223799   2.348   1.759  12.547 -0.1013  0.0732  0.1084
  770TIP3   OH223800   2.320   0.048   1.128  0.3858  0.4384 -0.2241
  770TIP3    H123801   2.310   0.075   1.037  1.5865  0.6240 -0.3130
  770TIP3    H223802   2.281   0.120   1.179 -0.7996  0.0718 -0.5922
  771TIP3   OH223803   2.867   1.299  13.126  1.2290 -0.2252 -0.6011
  771TIP3    H123804   2.900   1.213  13.154  0.2264 -1.2057 -2.2978
  771TIP3    H223805   2.816   1.281  13.047 -0.5780  1.6862  0.0464
  772TIP3   OH223806   3.443   2.393   1.103 -0.0149  0.0365 -0.1869
  772TIP3    H123807   3.380   2.458   1.072 -0.0280  0.0732 -0.0854
  772TIP3    H223808   3.391   2.331   1.155  0.1241  0.4074  0.4076
  773TIP3   OH223809   3.448   3.808  13.074  0.5090 -0.1536  0.3180
  773TIP3    H123810   3.443   3.785  12.981  1.3342  0.6833  0.0539
  773TIP3    H223811   3.406   3.735  13.119  1.1945 -1.1453 -0.6232
  774TIP3   OH223812   6.749   1.562  16.573  0.3273 -0.6541  0.4180
  774TIP3    H123813   6.822   1.622  16.585  0.9629 -1.2315 -0.4304
  774TIP3    H223814   6.752   1.505  16.650  1.3577 -1.2457 -0.0305
  775TIP3   OH223815   5.857   1.585   3.837 -0.8397  0.1044  0.2770
  775TIP3    H123816   5.877   1.556   3.748 -0.5464  0.8405  0.1023
  775TIP3    H223817   5.762   1.594   3.839 -1.2128 -2.8365  0.9351
  776TIP3   OH223818   6.401   4.898   5.144  0.3746  0.3908 -0.0047
  776TIP3    H123819   6.453   4.976   5.165  1.2057 -0.0989 -0.2235
  776TIP3    H223820   6.448   4.856   5.073  0.0209 -0.4074  0.2234
  777TIP3   OH223821   5.448   4.210   3.956  0.2725 -0.8075  0.1741
  777TIP3    H123822   5.493   4.273   3.900  0.4350 -0.1063  1.0591
  777TIP3    H223823   5.389   4.163   3.897  1.2188 -0.8448 -0.7639
  778TIP3   OH223824   0.194   6.169   1.723  0.6435  0.0930  0.2393
  778TIP3    H123825   0.163   6.219   1.648  0.1781  0.7185  0.8336
  778TIP3    H223826   0.289   6.183   1.723  0.7166 -0.3468 -0.5294
  779TIP3   OH223827   4.472   2.164   1.829 -0.4330  0.1144  0.2507
  779TIP3    H123828   4.504   2.074   1.818  0.0429  0.2695  0.3270
  779TIP3    H223829   4.551   2.215   1.844 -0.7386  0.4874  0.5980
  780TIP3   OH223830   4.567   3.216  16.356  0.1294 -0.7159 -0.2166
  780TIP3    H123831   4.656   3.190  16.332 -0.0557  0.4468 -2.3827
  780TIP3    H223832   4.572   3.310  16.374 -0.7862 -0.4468 -1.2233
  781TIP3   OH223833   2.224   1.482   1.640  0.3165 -0.3705  0.2144
  781TIP3    H123834   2.268   1.543   1.699  1.8964 -0.0310 -1.2556
  781TIP3    H223835   2.132   1.506   1.646  0.9612  2.7779 -0.9550
  782TIP3   OH223836   0.498   2.687   4.240 -0.1654 -0.4117  0.5716
  782TIP3    H123837   0.489   2.658   4.150 -1.9020 -0.4977  0.7425
  782TIP3    H223838   0.494   2.607   4.292  1.5502 -0.4396  0.7238
  783TIP3   OH223839   6.125   1.949   6.008 -0.4635 -0.9976  0.0936
  783TIP3    H123840   6.211   1.950   6.050 -1.5581 -1.4159  2.5773
  783TIP3    H223841   6.135   1.888   5.935  0.5055 -4.1736  2.5777
  784TIP3   OH223842   0.806   4.100   5.446  0.2747  0.3471  0.3948
  784TIP3    H123843   0.799   4.005   5.459  0.0553  0.2882 -0.1401
  784TIP3    H223844   0.864   4.109   5.371  0.1763  0.6369  0.3545
  785TIP3   OH223845   5.306   3.702   5.003 -0.1564  0.2488  0.4952
  785TIP3    H123846   5.283   3.725   4.912 -0.4303  0.7717  0.6903
  785TIP3    H223847   5.231   3.731   5.054  0.1352  0.2480  0.9253
  786TIP3   OH223848   1.860   0.825   2.473  0.1392 -0.1760  0.1825
  786TIP3    H123849   1.773   0.864   2.470 -0.0317 -0.5092  0.7558
  786TIP3    H223850   1.877   0.810   2.567  0.2254 -1.4258 -0.0131
  787TIP3   OH223851   2.743   3.455  14.175 -0.4103  0.2477 -0.1962
  787TIP3    H123852   2.687   3.379  14.156 -0.4747 -0.1649  1.4863
  787TIP3    H223853   2.832   3.420  14.176 -0.4714  0.0693  0.9832
  788TIP3   OH223854   1.834   0.320   0.578 -0.1752 -0.0741 -0.0228
  788TIP3    H123855   1.798   0.306   0.665  0.2497  1.3432  0.4163
  788TIP3    H223856   1.927   0.339   0.592  0.1199 -0.8227 -0.8797
  789TIP3   OH223857   0.655   0.772  15.662 -0.3444  0.2254  0.2707
  789TIP3    H123858   0.740   0.802  15.694  0.2740  1.4641 -2.2681
  789TIP3    H223859   0.592   0.831  15.704  0.2625  0.8081  0.3884
  790TIP3   OH223860   2.638   5.596  13.988 -0.3148  0.1837  0.1471
  790TIP3    H123861   2.628   5.688  13.962 -1.6932  0.2231  0.7189
  790TIP3    H223862   2.725   5.572  13.957 -0.2889  1.4129 -0.8475
  791TIP3   OH223863   1.063   2.491   1.538  0.3214 -0.1715 -0.6086
  791TIP3    H123864   0.991   2.548   1.564  0.3241 -0.6344  0.4707
  791TIP3    H223865   1.077   2.434   1.613  1.8649 -0.0449 -0.7665
  792TIP3   OH223866   1.424   5.961   0.654  0.0841 -0.2592  0.3014
  792TIP3    H123867   1.485   5.902   0.699 -1.3497 -0.5739  1.9291
  792TIP3    H223868   1.342   5.912   0.650 -0.7372  1.0537  0.3525
  793TIP3   OH223869   0.417   1.013   3.517  0.4960 -0.0811 -0.1305
  793TIP3    H123870   0.436   0.959   3.440 -0.0950  0.0664 -0.3878
  793TIP3    H223871   0.453   0.964   3.590  2.7725  0.6474 -0.6641
  794TIP3   OH223872   3.100   0.729  10.504 -0.3071 -0.0155  0.4626
  794TIP3    H123873   3.013   0.732  10.542 -0.3552 -0.3194  0.3792
  794TIP3    H223874   3.139   0.649  10.539 -0.7587 -0.9080 -0.9683
  795TIP3   OH223875   5.448   1.462  14.882 -0.4183  0.3809  0.2662
  795TIP3    H123876   5.487   1.378  14.858 -3.0130 -1.0754  0.8000
  795TIP3    H223877   5.489   1.484  14.966  0.8215  0.0725 -0.2297
  796TIP3   OH223878   6.707   1.795   4.747  0.7020 -0.1389 -0.2355
  796TIP3    H123879   6.782   1.842   4.710  0.3933  0.7124  0.1937
  796TIP3    H223880   6.686   1.843   4.827  0.2214 -0.8734  0.0824
  797TIP3   OH223881   3.740   6.516  12.205  0.1717  0.0646 -0.0461
  797TIP3    H123882   3.713   6.434  12.166  0.4438  0.2814 -0.6968
  797TIP3    H223883   3.780   6.491  12.289  1.5287 -0.5921 -0.8603
  798TIP3   OH223884   0.444   0.626   3.479 -0.1600 -0.1271  0.5013
  798TIP3    H123885   0.428   0.543   3.524  0.1805  0.5749  1.9653
  798TIP3    H223886   0.482   0.683   3.546 -0.7126  1.3313 -0.3840
  799TIP3   OH223887   5.055   0.911   4.793 -0.1725 -0.1619 -0.0402
  799TIP3    H123888   5.083   0.961   4.716  0.1605  0.7844  0.6771
  799TIP3    H223889   5.082   0.965   4.868 -1.7760 -0.3603  0.7245
  800TIP3   OH223890   2.902   4.026   1.212  0.2639  0.1079  0.1073
  800TIP3    H123891   2.920   3.952   1.270 -0.1648  0.4053  0.6290
  800TIP3    H223892   2.909   3.989   1.124  1.3425 -0.2584  0.3233
  801TIP3   OH223893   1.169   4.864  13.179  0.7680 -0.0482 -0.2237
  801TIP3    H123894   1.080   4.871  13.213  0.7897  1.4666 -0.4191
  801TIP3    H223895   1.218   4.821  13.249 -0.0070 -0.4734  0.0715
  802TIP3   OH223896   4.221   2.733   6.544  0.2941 -0.3023 -0.2609
  802TIP3    H123897   4.296   2.734   6.604  1.0468 -2.9751 -1.0246
  802TIP3    H223898   4.144   2.734   6.602  0.9645 -0.5840  0.6496
  803TIP3   OH223899   0.538   1.519   1.982 -0.0965 -0.0835  0.2075
  803TIP3    H123900   0.456   1.553   1.947  0.0264  1.2155  1.0964
  803TIP3    H223901   0.605   1.581   1.952  0.4892 -0.8353 -0.0750
  804TIP3   OH223902   1.782   5.982  11.310 -0.1425  0.0941  0.3404
  804TIP3    H123903   1.691   5.996  11.283  0.0322 -0.2270 -0.4158
  804TIP3    H223904   1.779   5.900  11.360 -0.1177 -0.4259 -0.4890
  805TIP3   OH223905   5.629   2.912   0.548  0.4871  0.1578  0.4915
  805TIP3    H123906   5.554   2.971   0.537  1.3318  0.9271 -1.8097
  805TIP3    H223907   5.590   2.826   0.562 -0.8290  0.5908 -0.3126
  806TIP3   OH223908   6.467   6.372  12.751 -0.1968 -0.1424 -0.3061
  806TIP3    H123909   6.439   6.305  12.813 -1.6951  0.7492  0.0242
  806TIP3    H223910   6.507   6.439  12.806  2.8808 -1.4273 -0.7708
  807TIP3   OH223911   5.202   2.350   2.148  0.0711 -0.1595 -0.0111
  807TIP3    H123912   5.243   2.263   2.149  0.2569 -0.0739 -0.0679
  807TIP3    H223913   5.158   2.355   2.064 -0.2264 -0.3313  0.1343
  808TIP3   OH223914   5.284   5.954  16.445  0.0161  0.7021 -0.7891
  808TIP3    H123915   5.304   5.862  16.428 -1.0447  0.6672 -2.0501
  808TIP3    H223916   5.198   5.968  16.404 -0.3470  1.9818  0.3241
  809TIP3   OH223917   5.234   1.999   6.047  0.0820  0.0334 -0.1142
  809TIP3    H123918   5.302   1.971   5.986 -1.2311 -0.9000 -1.2332
  809TIP3    H223919   5.211   2.088   6.017  1.1598  0.5779  0.6205
  810TIP3   OH223920   5.384   2.454  16.290 -0.0584  0.6600  0.3486
  810TIP3    H123921   5.365   2.451  16.384  2.0172 -0.6133  0.8050
  810TIP3    H223922   5.406   2.545  16.272 -3.4823  1.6250  0.3361
  811TIP3   OH223923   6.780   5.876   4.678 -0.1498  0.1305 -0.1148
  811TIP3    H123924   6.855   5.825   4.648  0.1106 -0.4509  1.4136
  811TIP3    H223925   6.818   5.944   4.734 -0.6555  0.7478 -0.5115
  812TIP3   OH223926   1.395   0.791  15.466  0.3897 -0.6919  0.0378
  812TIP3    H123927   1.329   0.735  15.425  0.8337 -1.4216  0.3177
  812TIP3    H223928   1.442   0.734  15.526  0.8244 -0.0108  0.3596
  813TIP3   OH223929   0.320   1.128   2.266  0.0847 -0.7753 -0.4702
  813TIP3    H123930   0.372   1.053   2.296  2.3706  0.0124 -2.1705
  813TIP3    H223931   0.238   1.089   2.236 -0.2395 -2.1303  1.8623
  814TIP3   OH223932   3.875   4.535  11.477  0.1050  0.2424 -0.5390
  814TIP3    H123933   3.932   4.459  11.486  1.4655  1.3536  0.7418
  814TIP3    H223934   3.788   4.502  11.501  0.9970 -0.5090  2.0711
  815TIP3   OH223935   0.539   1.599   2.310 -0.6577 -0.0248 -0.1413
  815TIP3    H123936   0.511   1.523   2.260  1.2260 -0.6468 -0.3452
  815TIP3    H223937   0.494   1.592   2.393 -0.5115 -1.3734 -0.1593
  816TIP3   OH223938   3.212   6.120  14.474 -0.1588 -0.1528  0.1821
  816TIP3    H123939   3.207   6.121  14.569 -1.4469 -0.7542  0.1354
  816TIP3    H223940   3.298   6.082  14.455  0.3685  0.5501  1.0883
  817TIP3   OH223941   0.198   1.131   1.645  0.2556 -0.2473 -0.1709
  817TIP3    H123942   0.192   1.067   1.717 -0.1155  0.1118  0.1233
  817TIP3    H223943   0.181   1.216   1.687 -0.5475 -0.0934 -0.7796
  818TIP3   OH223944   3.565   5.241  11.223  0.7200 -0.0932 -0.3799
  818TIP3    H123945   3.494   5.177  11.224 -1.3209  2.0275  0.3928
  818TIP3    H223946   3.556   5.287  11.306  3.0222  0.2849 -0.2842
  819TIP3   OH223947   1.968   1.314   4.487 -0.3064 -0.3119 -0.5260
  819TIP3    H123948   1.977   1.256   4.563  1.6818 -1.2634 -1.4317
  819TIP3    H223949   1.874   1.332   4.483 -0.4931 -0.2811  2.0928
  820TIP3   OH223950   0.949   1.497   1.596  0.0666 -0.2836 -0.3699
  820TIP3    H123951   0.936   1.584   1.635  2.0227 -0.8400  1.6834
  820TIP3    H223952   0.875   1.487   1.535 -2.0500  1.4845  1.7236
  821TIP3   OH223953   5.568   1.533   3.865 -0.1725 -0.5294  0.0487
  821TIP3    H123954   5.595   1.492   3.782  0.3908  1.4386 -0.7963
  821TIP3    H223955   5.472   1.530   3.863 -0.2141  0.5774 -1.3011
  822TIP3   OH223956   3.089   3.538   3.530 -0.5083 -0.4070 -0.5954
  822TIP3    H123957   3.170   3.568   3.490 -0.7106  2.4755  0.8269
  822TIP3    H223958   3.116   3.483   3.603  0.1821  0.0852 -0.4715
  823TIP3   OH223959   1.172   5.629  10.758  0.5302 -0.0726 -0.0041
  823TIP3    H123960   1.226   5.567  10.806 -0.1249  2.1499  4.1666
  823TIP3    H223961   1.227   5.708  10.751 -0.1489  0.3192 -1.0940
  824TIP3   OH223962   3.836   6.676  10.177  0.4356 -0.0653  0.5664
  824TIP3    H123963   3.774   6.737  10.137  1.2161  0.1948 -0.2974
  824TIP3    H223964   3.805   6.666  10.267 -1.3522 -0.6375 -0.0681
  825TIP3   OH223965   0.801   4.153  10.759 -0.5348  0.1028 -0.2938
  825TIP3    H123966   0.883   4.200  10.744 -0.1412 -0.6324 -0.4726
  825TIP3    H223967   0.780   4.113  10.675 -2.0006  1.6824 -0.7313
  826TIP3   OH223968   5.846   3.556  14.926 -0.3130 -0.2326 -0.1782
  826TIP3    H123969   5.810   3.618  14.989 -1.7429 -1.4640  0.2805
  826TIP3    H223970   5.797   3.573  14.845 -0.3717 -0.4502 -0.1880
  827TIP3   OH223971   2.797   2.025   4.954 -0.2422 -0.0733  0.0434
  827TIP3    H123972   2.890   2.038   4.934 -0.0548 -0.0129  0.9212
  827TIP3    H223973   2.765   1.968   4.884  0.4403 -0.0471 -0.2985
  828TIP3   OH223974   4.212   3.389   4.937 -0.3865  0.2711 -0.4874
  828TIP3    H123975   4.123   3.381   4.973 -0.1477 -0.7520 -0.0818
  828TIP3    H223976   4.269   3.356   5.006  0.2329 -0.0081 -1.1182
  829TIP3   OH223977   1.409   3.666   4.151 -0.2835  0.1727  0.1477
  829TIP3    H123978   1.438   3.594   4.095  1.0208  2.0831 -1.8363
  829TIP3    H223979   1.456   3.653   4.233  1.6204 -0.1042 -0.9303
  830TIP3   OH223980   3.258   1.594  16.337 -0.6066 -0.1795 -0.4069
  830TIP3    H123981   3.175   1.548  16.321 -0.4917 -0.3197 -0.6150
  830TIP3    H223982   3.324   1.526  16.326 -0.4568 -0.0418 -0.3493
  831TIP3   OH223983   1.563   3.628   5.923 -0.5919  0.0670  0.3754
  831TIP3    H123984   1.512   3.566   5.976 -2.8788  1.1224 -0.4451
  831TIP3    H223985   1.525   3.713   5.942 -1.0375  0.5742 -2.3441
  832TIP3   OH223986   5.523   4.701  16.049 -0.2118 -0.0032 -0.2535
  832TIP3    H123987   5.582   4.774  16.066  0.2760 -0.4347 -0.0744
  832TIP3    H223988   5.463   4.734  15.982 -1.4185  1.3151  1.3801
  833TIP3   OH223989   4.946   2.376  17.052  0.2451  0.6525  0.1959
  833TIP3    H123990   4.887   2.300  17.050  2.9315 -1.5843 -0.9140
  833TIP3    H223991   5.018   2.349  17.108  0.1146  3.4706  1.8880
  834TIP3   OH223992   6.250   0.591   3.783 -0.3797  0.3923 -0.4296
  834TIP3    H123993   6.279   0.507   3.750 -0.9695 -0.5514  1.3328
  834TIP3    H223994   6.330   0.635   3.811 -0.2525 -0.6501  0.9462
  835TIP3   OH223995   4.597   3.662   5.655 -0.0891 -0.8530  0.2002
  835TIP3    H123996   4.576   3.722   5.583 -1.7806 -1.6959 -0.0659
  835TIP3    H223997   4.662   3.602   5.618  1.1842  0.4226  0.2914
  836TIP3   OH223998   1.857   6.652  12.419  0.0974 -0.1005  0.1602
  836TIP3    H123999   1.813   6.611  12.345 -1.0471  1.4157 -0.0520
  836TIP3    H224000   1.833   6.745  12.413  1.5576  0.3942  1.3243
  837TIP3   OH224001   6.226   3.190  16.587  0.1729  0.5892 -0.1866
  837TIP3    H124002   6.249   3.097  16.590  0.0682  0.5529 -0.4763
  837TIP3    H224003   6.162   3.201  16.658  1.7684  0.8959  1.2837
  838TIP3   OH224004   5.770   1.535  12.517 -0.1572 -0.3373 -0.2810
  838TIP3    H124005   5.740   1.549  12.427 -0.2050 -3.0376 -0.7910
  838TIP3    H224006   5.698   1.564  12.571 -0.2299  1.1047 -1.1012
  839TIP3   OH224007   1.449   5.457  14.050  0.3773 -0.7290  0.9926
  839TIP3    H124008   1.543   5.449  14.065  1.1749  1.0631 -2.1283
  839TIP3    H224009   1.427   5.381  13.995  0.0803 -0.9521  1.4192
  840TIP3   OH224010   3.243   6.084   3.016 -0.1825 -0.3163 -0.3715
  840TIP3    H124011   3.278   6.009   2.967  1.0059 -0.0510  0.0389
  840TIP3    H224012   3.320   6.133   3.043 -0.7772 -0.4873  1.8436
  841TIP3   OH224013   1.867   3.367  13.108 -0.3447  0.0991 -0.5957
  841TIP3    H124014   1.952   3.327  13.124 -0.9266 -0.5639  1.0912
  841TIP3    H224015   1.829   3.315  13.037 -0.3916 -1.3026  0.4245
  842TIP3   OH224016   1.079   2.253   5.613  0.0460 -0.2689 -0.2192
  842TIP3    H124017   1.163   2.259   5.567 -0.3623  0.8359 -0.8548
  842TIP3    H224018   1.072   2.336   5.660 -1.2622  0.2071 -1.1995
  843TIP3   OH224019   6.555   1.150   3.923  0.3642 -0.7677 -0.2422
  843TIP3    H124020   6.563   1.128   4.016 -0.3848 -0.4328 -0.0844
  843TIP3    H224021   6.525   1.069   3.882 -0.0398 -0.7157 -0.0596
  844TIP3   OH224022   4.929   6.628   0.221  0.0537  0.4794 -0.6049
  844TIP3    H124023   5.015   6.588   0.232 -0.7498 -1.2399 -0.2310
  844TIP3    H224024   4.900   6.648   0.310 -1.1446 -1.7272 -0.4369
  845TIP3   OH224025   1.858   0.911   4.697 -0.1574 -0.7085  0.0492
  845TIP3    H124026   1.780   0.911   4.642  1.1497 -1.2059 -1.8811
  845TIP3    H224027   1.869   1.003   4.722  1.2775  0.3103 -3.7053
  846TIP3   OH224028   6.396   4.002  12.467 -0.1574 -0.5676 -0.1526
  846TIP3    H124029   6.348   3.986  12.386 -0.5557 -0.7618  0.1224
  846TIP3    H224030   6.333   3.985  12.537  0.9252 -3.2186  0.3072
  847TIP3   OH224031   5.573   2.111  14.855  0.4655  0.0113  1.1083
  847TIP3    H124032   5.495   2.166  14.845 -0.3981 -1.1341  1.3369
  847TIP3    H224033   5.548   2.026  14.818  1.4350 -0.5176  1.6153
  848TIP3   OH224034   1.064   6.606  12.644 -0.3784 -0.2655 -0.3462
  848TIP3    H124035   1.060   6.512  12.630  1.9430 -0.2088 -1.8470
  848TIP3    H224036   1.157   6.629  12.636 -0.8690  2.1579 -0.1130
  849TIP3   OH224037   3.898   3.501  11.144  0.0844 -0.0578 -0.3959
  849TIP3    H124038   3.980   3.513  11.192  0.3137  0.6264 -0.9467
  849TIP3    H224039   3.850   3.583  11.157 -1.2973 -1.0788  1.3652
  850TIP3   OH224040   2.179   3.714  13.058  0.2874 -0.1350  0.6885
  850TIP3    H124041   2.222   3.629  13.047 -2.5739 -1.5470 -0.6646
  850TIP3    H224042   2.249   3.773  13.087  2.7096 -2.5678  0.1753
  851TIP3   OH224043   2.268   5.927  16.430 -1.0153 -0.0513  0.3859
  851TIP3    H124044   2.190   5.930  16.374 -1.7087 -1.4300  1.2223
  851TIP3    H224045   2.265   5.840  16.469  1.7517 -0.7053 -0.6723
  852TIP3   OH224046   0.890   5.462   3.726  0.2040 -0.3599  0.2051
  852TIP3    H124047   0.976   5.485   3.763  0.8104 -1.1735 -0.6749
  852TIP3    H224048   0.901   5.375   3.689 -0.5588  0.1448 -1.3232
  853TIP3   OH224049   2.685   3.127  15.234  0.3094 -0.8373 -0.5558
  853TIP3    H124050   2.694   3.202  15.292 -0.7086  0.1031 -1.5655
  853TIP3    H224051   2.636   3.062  15.284 -0.5893 -0.0239 -0.3584
  854TIP3   OH224052   6.767   0.391  13.437 -0.0874  0.0847 -0.2556
  854TIP3    H124053   6.809   0.398  13.351 -0.1637 -0.0753 -0.3058
  854TIP3    H224054   6.829   0.340  13.490 -0.6683 -1.0376 -0.6247
  855TIP3   OH224055   1.908   0.820   5.210  0.5253  0.5860  0.8335
  855TIP3    H124056   2.002   0.835   5.196  0.2333  1.3882 -0.4870
  855TIP3    H224057   1.876   0.794   5.124 -0.6955  1.6512  0.9384
  856TIP3   OH224058   6.503   3.290   2.488 -0.5331 -0.4078  0.0757
  856TIP3    H124059   6.429   3.247   2.529  0.2720 -0.9655  0.9983
  856TIP3    H224060   6.523   3.237   2.411 -0.4338 -0.8774  0.4210
  857TIP3   OH224061   5.546   3.642  11.010 -0.6191 -0.7079  0.5829
  857TIP3    H124062   5.523   3.698  10.936  1.0777 -0.0773  0.4828
  857TIP3    H224063   5.507   3.557  10.990 -0.4472 -0.4577 -0.8769
  858TIP3   OH224064   5.326   1.612   3.547 -0.5664  0.4378 -0.2083
  858TIP3    H124065   5.234   1.601   3.572 -0.1548  0.2558  1.3360
  858TIP3    H224066   5.347   1.534   3.496 -0.5225 -0.9607  1.8309
  859TIP3   OH224067   6.485   5.177  16.379 -0.3473  0.3528  0.0829
  859TIP3    H124068   6.482   5.176  16.283 -2.5333  0.9841  0.0863
  859TIP3    H224069   6.457   5.089  16.405 -1.0028  0.5701  0.1290
  860TIP3   OH224070   6.040   4.967   4.642  0.4638  0.2534  0.0422
  860TIP3    H124071   6.081   4.881   4.636  1.2201  0.4388  1.8160
  860TIP3    H224072   6.100   5.018   4.697  0.4742  2.1926 -1.6352
  861TIP3   OH224073   4.270   2.290  14.734  0.3605 -0.2719  0.0974
  861TIP3    H124074   4.193   2.236  14.719  1.5464 -1.7514 -0.9630
  861TIP3    H224075   4.275   2.347  14.657  0.9877 -1.0300 -0.4331
  862TIP3   OH224076   1.070   2.544   6.141 -0.4130  0.2567  0.3946
  862TIP3    H124077   1.056   2.603   6.067  0.0108  1.9319  1.5836
  862TIP3    H224078   1.016   2.467   6.121 -0.7795  0.9170 -1.3463
  863TIP3   OH224079   3.233   5.054  13.231  0.4312 -0.2884 -0.0047
  863TIP3    H124080   3.228   5.098  13.316  0.5094 -2.2914  1.1003
  863TIP3    H224081   3.326   5.047  13.212  0.4103  2.1567 -1.4312
  864TIP3   OH224082   3.114   1.282  16.717  0.1436  0.0111  0.5356
  864TIP3    H124083   3.192   1.233  16.692  0.1395  0.1622  0.2233
  864TIP3    H224084   3.131   1.371  16.688 -0.0812  0.0780  0.6069
  865TIP3   OH224085   6.756   4.667   5.236  0.1809 -0.7807  0.2699
  865TIP3    H124086   6.830   4.662   5.297  0.2322 -1.6835  0.1493
  865TIP3    H224087   6.753   4.759   5.209  0.4102 -0.4434  1.3162
  866TIP3   OH224088   0.244   5.342  12.259  0.2562  0.5100  0.0003
  866TIP3    H124089   0.180   5.402  12.222 -0.5044  1.1301  2.1489
  866TIP3    H224090   0.328   5.389  12.251  0.0098  0.8916 -0.3774
  867TIP3   OH224091   3.921   5.225  16.272  0.1174 -0.1255  0.0555
  867TIP3    H124092   3.846   5.217  16.332  0.3083 -0.1604  0.2879
  867TIP3    H224093   3.970   5.144  16.283 -0.0472 -0.2946 -0.4246
  868TIP3   OH224094   2.021   4.373  12.908 -0.1949 -0.4384  0.0870
  868TIP3    H124095   2.043   4.375  13.001  2.8860 -0.5739 -0.5149
  868TIP3    H224096   1.966   4.295  12.898  0.3074 -1.0325  1.6367
  869TIP3   OH224097   4.789   4.631  15.893 -0.6508 -0.0753 -0.1738
  869TIP3    H124098   4.753   4.719  15.901 -0.3562 -0.0679  1.5023
  869TIP3    H224099   4.726   4.584  15.840 -1.7830  0.6517  0.4891
  870TIP3   OH224100   4.669   5.171   4.272 -0.2828 -0.1967  0.0228
  870TIP3    H124101   4.672   5.220   4.354 -1.5139  2.0227 -1.1463
  870TIP3    H224102   4.760   5.161   4.245  0.0301  1.1328  0.5277
  871TIP3   OH224103   2.288   6.292   0.867 -0.2738 -0.8512 -0.2038
  871TIP3    H124104   2.208   6.313   0.819  0.0024  0.7373 -0.0374
  871TIP3    H224105   2.288   6.354   0.941  1.4560 -0.3170 -0.6135
  872TIP3   OH224106   2.698   5.052   3.525 -0.4647  0.0091  0.1233
  872TIP3    H124107   2.686   5.133   3.574  1.2276 -1.2840  2.8404
  872TIP3    H224108   2.770   5.071   3.464 -0.8197  0.8320 -0.0582
  873TIP3   OH224109   6.366   1.328  13.645 -0.0095  0.3095 -0.1631
  873TIP3    H124110   6.449   1.290  13.675 -0.1999 -0.1036 -0.1597
  873TIP3    H224111   6.387   1.419  13.626  0.1869  0.5150  0.9640
  874TIP3   OH224112   2.951   4.801   1.810  0.2394  0.1702 -0.1757
  874TIP3    H124113   2.891   4.822   1.739 -1.0893  1.0493  1.1515
  874TIP3    H224114   2.954   4.705   1.812  1.5725  0.1120 -2.4011
  875TIP3   OH224115   6.031   5.523  16.221  0.6350  0.0812 -0.0892
  875TIP3    H124116   5.991   5.601  16.184  0.1395 -0.6440 -1.1321
  875TIP3    H224117   6.109   5.555  16.265  1.4267  0.9765 -2.0146
  876TIP3   OH224118   3.656   4.885  16.402  0.4499 -0.5856  0.1503
  876TIP3    H124119   3.646   4.892  16.497  4.1148 -1.5294  0.7740
  876TIP3    H224120   3.626   4.969  16.368 -3.5480 -1.1858  1.7357
  877TIP3   OH224121   1.386   4.043   0.345 -0.3893 -0.5123  0.5013
  877TIP3    H124122   1.466   4.078   0.306  0.9984 -2.6755  1.2091
  877TIP3    H224123   1.402   3.949   0.351 -2.9216 -0.9894  0.8957
  878TIP3   OH224124   4.217   6.333   5.452  0.4013 -0.8306  0.0650
  878TIP3    H124125   4.131   6.328   5.495 -0.8274  3.4603 -1.3854
  878TIP3    H224126   4.272   6.380   5.515  0.9890 -1.4399  0.0177
  879TIP3   OH224127   3.984   5.523   2.920 -0.5022 -0.1550  0.0576
  879TIP3    H124128   3.994   5.572   2.839 -0.0811  0.8663  0.7028
  879TIP3    H224129   4.030   5.441   2.905 -0.3851  0.0449 -0.7085
  880TIP3   OH224130   6.697   0.601  13.149  0.0302 -0.1439  0.3731
  880TIP3    H124131   6.744   0.517  13.148 -0.0576 -0.1927 -0.6176
  880TIP3    H224132   6.608   0.579  13.121  0.3642  0.4621 -1.3026
  881TIP3   OH224133   3.209   3.883   1.569 -0.0003 -0.0261  0.3415
  881TIP3    H124134   3.263   3.856   1.495  0.5583 -0.5456  0.9207
  881TIP3    H224135   3.255   3.850   1.646 -2.5687 -3.1794  0.7575
  882TIP3   OH224136   2.388   0.242  15.524 -0.0287  0.5254 -0.4665
  882TIP3    H124137   2.448   0.295  15.471  0.2661 -0.1561 -0.8322
  882TIP3    H224138   2.330   0.306  15.565  1.2795  1.2587  0.3362
  883TIP3   OH224139   4.375   3.407   4.320  0.0732 -0.4404 -0.1347
  883TIP3    H124140   4.349   3.482   4.267 -0.0839  1.1548  2.0539
  883TIP3    H224141   4.470   3.402   4.311  0.0483 -0.1838 -0.5405
  884TIP3   OH224142   4.938   3.065   1.865  0.3505 -0.3420  0.4712
  884TIP3    H124143   4.912   3.000   1.929 -0.5006  0.3650  0.8695
  884TIP3    H224144   4.988   3.130   1.915 -0.6960  0.4399  0.5188
  885TIP3   OH224145   0.536   6.535   0.710  0.4465  0.0732 -0.1476
  885TIP3    H124146   0.627   6.548   0.683  0.5637  0.4823  0.4508
  885TIP3    H224147   0.486   6.539   0.628  1.0050 -0.6023 -0.5355
  886TIP3   OH224148   6.415   0.872  12.671 -0.1737  0.6443  0.4223
  886TIP3    H124149   6.495   0.908  12.634  0.1536  1.1354  1.5537
  886TIP3    H224150   6.358   0.858  12.596  1.5791 -1.3730 -0.6645
  887TIP3   OH224151   0.530   6.783  14.681  0.2776  0.0771 -0.3177
  887TIP3    H124152   0.477   6.730  14.622  0.1165  0.4630 -0.5239
  887TIP3    H224153   0.500   6.760  14.768  1.2010 -1.2389 -0.3141
  888TIP3   OH224154   4.340   0.399   1.794  0.1412 -0.2259  0.6165
  888TIP3    H124155   4.360   0.375   1.884  0.1581 -0.1810  0.6247
  888TIP3    H224156   4.260   0.453   1.800 -0.4055 -1.0104  0.5179
  889TIP3   OH224157   5.740   2.071   5.312 -0.8112  0.1882  0.2370
  889TIP3    H124158   5.802   2.001   5.291 -1.2242 -1.6074  4.1043
  889TIP3    H224159   5.689   2.083   5.232  0.2287 -2.9228 -1.0531
  890TIP3   OH224160   2.425   6.681   6.020 -0.0457  0.3163 -0.0885
  890TIP3    H124161   2.437   6.693   6.114  1.0409  1.0697 -0.3085
  890TIP3    H224162   2.513   6.665   5.986 -0.5805 -1.3425 -0.8022
  891TIP3   OH224163   0.574   1.831  12.416 -0.0265  0.9593  0.0758
  891TIP3    H124164   0.605   1.921  12.409 -1.0750  1.5497  2.1695
  891TIP3    H224165   0.479   1.837  12.401 -0.8564  0.9715  4.1429
  892TIP3   OH224166   1.752   3.108   5.674 -0.2906  0.2511  0.4217
  892TIP3    H124167   1.740   3.067   5.588  0.2316  1.4010 -0.2313
  892TIP3    H224168   1.663   3.133   5.700 -0.4280  0.1150  0.0929
  893TIP3   OH224169   1.927   5.417  11.735 -0.1419 -0.9575  0.6891
  893TIP3    H124170   1.886   5.350  11.680  0.9027 -1.5152  0.5729
  893TIP3    H224171   1.884   5.408  11.820 -0.8811 -0.9342  0.3274
  894TIP3   OH224172   4.914   6.401   0.897 -0.3500 -0.0784 -0.4902
  894TIP3    H124173   4.831   6.363   0.926  0.1330 -0.0375  1.0282
  894TIP3    H224174   4.920   6.376   0.805 -1.2952 -1.4453 -0.2225
  895TIP3   OH224175   1.252   4.748  14.680  0.1375  0.0840  0.5803
  895TIP3    H124176   1.252   4.679  14.746  1.6978 -1.7255 -1.1599
  895TIP3    H224177   1.208   4.709  14.605 -2.0847  2.2854  0.6375
  896TIP3   OH224178   5.206   4.680  15.077  0.2743  0.1479  0.4773
  896TIP3    H124179   5.149   4.757  15.072 -0.4118 -0.3342  0.7934
  896TIP3    H224180   5.209   4.658  15.170  0.8387  0.0619  0.4433
  897TIP3   OH224181   3.282   4.518   5.748 -0.0230  0.1062 -0.0542
  897TIP3    H124182   3.307   4.459   5.819  1.0926  0.6860  0.0508
  897TIP3    H224183   3.238   4.591   5.791  1.7566  1.0799  0.2289
  898TIP3   OH224184   4.671   0.856  13.633 -0.3098 -0.4768  0.3542
  898TIP3    H124185   4.717   0.773  13.622 -1.1692 -0.9755  0.4317
  898TIP3    H224186   4.578   0.832  13.632 -0.5680  0.4983  0.2628
  899TIP3   OH224187   3.590   4.974  14.854  0.2621  0.0626 -0.1820
  899TIP3    H124188   3.507   5.020  14.871  0.7312  1.5693 -1.6082
  899TIP3    H224189   3.567   4.907  14.790  0.3420  1.5852 -1.9176
  900TIP3   OH224190   3.041   0.354  15.626  0.5462  0.2212  0.4908
  900TIP3    H124191   3.109   0.407  15.583  0.9660 -1.3831 -0.9541
  900TIP3    H224192   3.084   0.319  15.704  0.9352  0.3208  0.3256
  901TIP3   OH224193   1.500   0.087   0.920 -0.0675 -0.7342 -0.2106
  901TIP3    H124194   1.473   0.090   1.012  0.7704 -2.7648  0.1527
  901TIP3    H224195   1.418   0.091   0.871 -0.4533  2.1921  0.4862
  902TIP3   OH224196   5.181   6.697  12.745  0.4323 -0.4813  0.8160
  902TIP3    H124197   5.143   6.782  12.765 -0.1020 -0.7906  1.1283
  902TIP3    H224198   5.246   6.683  12.813  0.3247 -0.4485  0.9247
  903TIP3   OH224199   4.967   4.926   3.716  0.1600  0.3451  0.1095
  903TIP3    H124200   4.910   4.945   3.790 -0.1543  0.3826 -0.1378
  903TIP3    H224201   5.031   4.864   3.750  0.5484  1.0269  0.6408
  904TIP3   OH224202   2.630   3.548  13.782  0.8494 -0.1727 -0.1699
  904TIP3    H124203   2.570   3.566  13.709 -1.8433 -0.4540  1.8003
  904TIP3    H224204   2.665   3.461  13.764 -0.0503 -0.3808 -0.9664
  905TIP3   OH224205   2.227   5.336   4.185 -0.0057 -0.0071  0.0008
  905TIP3    H124206   2.318   5.354   4.208 -0.2284  0.3335  0.6279
  905TIP3    H224207   2.185   5.313   4.267 -0.5144 -0.0448 -0.2647
  906TIP3   OH224208   2.410   3.899  13.838 -0.0343  0.1746 -0.1453
  906TIP3    H124209   2.469   3.925  13.768  1.0753 -0.8802  0.3521
  906TIP3    H224210   2.440   3.948  13.915  0.0796 -0.2128  0.0617
  907TIP3   OH224211   1.613   2.806  13.572  0.4911  0.0202  0.3215
  907TIP3    H124212   1.686   2.819  13.632  0.2924  0.3655  0.4894
  907TIP3    H224213   1.625   2.717  13.539  1.0772  0.1287  0.2221
  908TIP3   OH224214   6.295   5.053  13.760 -0.3028  0.3969  0.1843
  908TIP3    H124215   6.378   5.019  13.792  0.2671  1.0248 -0.5870
  908TIP3    H224216   6.231   4.985  13.780  0.8637 -1.3328 -1.6390
  909TIP3   OH224217   4.170   0.002   3.128  0.1990 -0.1320  0.1259
  909TIP3    H124218   4.206  -0.036   3.048 -0.1193 -2.0637  0.8499
  909TIP3    H224219   4.224   0.079   3.145 -0.2718  0.8579 -2.3893
  910TIP3   OH224220   2.042   1.190   3.066  0.0251  0.1834  0.1570
  910TIP3    H124221   2.114   1.241   3.028 -0.9738  1.1589 -0.4745
  910TIP3    H224222   1.963   1.238   3.042 -0.8698 -1.0194  0.5934
  911TIP3   OH224223   5.767   6.780   0.787 -0.1623  0.0917 -0.3029
  911TIP3    H124224   5.862   6.776   0.785 -0.2013 -0.7544 -2.5430
  911TIP3    H224225   5.747   6.815   0.874  2.1422 -0.3948  0.4987
  912TIP3   OH224226   1.138   0.296   1.723 -0.1005 -0.0830 -0.2191
  912TIP3    H124227   1.184   0.233   1.779  0.3589  0.1372 -0.3429
  912TIP3    H224228   1.186   0.294   1.640  0.8269  1.4927  0.2457
  913TIP3   OH224229   2.373   2.964   3.224  0.1028 -0.3491 -0.2610
  913TIP3    H124230   2.434   2.901   3.262  1.6400  0.5368 -1.1695
  913TIP3    H224231   2.364   3.033   3.290  2.7307  1.1636 -1.3210
  914TIP3   OH224232   4.540   0.214   1.666  0.4149  0.3249 -0.1222
  914TIP3    H124233   4.501   0.138   1.623  3.0886 -1.2575  0.0540
  914TIP3    H224234   4.465   0.270   1.687 -1.5157 -1.5046 -1.6428
  915TIP3   OH224235   1.698   0.491  15.864  0.4217 -0.4244  0.0553
  915TIP3    H124236   1.640   0.519  15.794  0.4278 -1.4687 -0.3951
  915TIP3    H224237   1.784   0.527  15.842  0.3737 -0.5616 -0.3666
  916TIP3   OH224238   0.990   0.421   3.006  0.0380  0.3792 -0.2088
  916TIP3    H124239   0.907   0.411   2.960  0.0981  1.1934 -0.5045
  916TIP3    H224240   1.028   0.333   3.006 -1.0346 -0.0939  0.3537
  917TIP3   OH224241   0.453   1.382  13.439 -0.1641  0.1453 -0.2201
  917TIP3    H124242   0.394   1.386  13.515  0.2123 -0.6643  0.1252
  917TIP3    H224243   0.394   1.368  13.365 -0.7176  2.6142 -0.3626
  918TIP3   OH224244   1.497   3.553   4.372  0.4399 -0.8183  0.3100
  918TIP3    H124245   1.530   3.464   4.384  0.5659 -1.0867 -1.6463
  918TIP3    H224246   1.440   3.568   4.447  1.1946 -2.1662  1.1897
  919TIP3   OH224247   3.224   3.656  13.614 -0.0927  0.0283 -0.2147
  919TIP3    H124248   3.266   3.592  13.557 -0.7941  0.0973 -0.8260
  919TIP3    H224249   3.218   3.735  13.560 -0.1409  0.3022  0.1887
  920TIP3   OH224250   1.922   3.093   4.183 -0.1827 -0.1329 -0.5913
  920TIP3    H124251   1.842   3.116   4.230  0.9589 -1.8022  2.4632
  920TIP3    H224252   1.955   3.177   4.150 -2.0358  0.8940 -0.0069
  921TIP3   OH224253   3.326   2.320  16.204  0.0320 -0.3442  0.1321
  921TIP3    H124254   3.345   2.345  16.113 -0.2454 -1.6414 -0.2977
  921TIP3    H224255   3.358   2.394  16.256 -1.0865  1.0646 -1.0888
  922TIP3   OH224256   0.870   3.378   6.025  0.0090  0.3600 -0.1076
  922TIP3    H124257   0.795   3.417   6.070 -1.1831 -2.1145  0.2464
  922TIP3    H224258   0.946   3.426   6.059 -1.1470  0.8570  1.9679
  923TIP3   OH224259   2.346   1.719   5.564  0.1498  0.0292 -0.2117
  923TIP3    H124260   2.376   1.628   5.566  0.2148  0.0299 -0.7888
  923TIP3    H224261   2.408   1.762   5.505 -0.1570  0.3427 -0.3041
  924TIP3   OH224262   6.468   2.429   4.804 -0.3390  0.2284 -0.1665
  924TIP3    H124263   6.398   2.420   4.739 -0.1083 -1.5537 -0.2244
  924TIP3    H224264   6.424   2.464   4.881 -1.0476  0.2813 -0.5815
  925TIP3   OH224265   1.930   4.666   1.336 -0.9710 -0.0524  0.1384
  925TIP3    H124266   1.859   4.657   1.400  0.5336 -0.0480  1.9022
  925TIP3    H224267   1.983   4.738   1.370 -0.0176 -0.1753 -1.0428
  926TIP3   OH224268   0.348   4.527  13.517 -0.9188 -0.2118 -0.5872
  926TIP3    H124269   0.368   4.571  13.600  1.3243 -1.6140 -0.3026
  926TIP3    H224270   0.329   4.436  13.542  1.5771 -1.1215 -1.6532
  927TIP3   OH224271   0.135   1.305  14.565 -0.6977 -0.3335 -0.1242
  927TIP3    H124272   0.187   1.385  14.553 -1.9039  0.1884 -2.6705
  927TIP3    H224273   0.059   1.334  14.615  0.2252 -0.5632  1.4641
  928TIP3   OH224274   1.655   4.989   2.025 -0.0520 -0.3620  0.3560
  928TIP3    H124275   1.682   4.961   1.937 -0.6500 -1.1137  0.3988
  928TIP3    H224276   1.662   4.910   2.079 -0.9653 -0.2440  0.6758
  929TIP3   OH224277   1.218   3.586   0.432 -0.0275  0.0628 -0.7646
  929TIP3    H124278   1.176   3.669   0.455  2.0556  0.4827  2.1079
  929TIP3    H224279   1.147   3.522   0.432 -1.2893  1.4071 -0.3573
  930TIP3   OH224280   3.240   3.371  15.108  0.2907 -0.5281  0.6064
  930TIP3    H124281   3.245   3.430  15.183  0.7343  2.4416 -1.5628
  930TIP3    H224282   3.151   3.336  15.111 -0.0036  0.2548  1.9828
  931TIP3   OH224283   4.816   3.021   0.831  0.0392 -0.3808  0.3922
  931TIP3    H124284   4.860   3.086   0.886  1.8840 -0.2716 -1.1262
  931TIP3    H224285   4.853   2.938   0.858  1.4592 -0.2614 -1.0868
  932TIP3   OH224286   1.119   3.477  16.679  0.0655 -0.0996 -0.2684
  932TIP3    H124287   1.042   3.503  16.630 -0.4557  0.7594  0.9494
  932TIP3    H224288   1.085   3.425  16.752  0.5914  0.4910  0.4165
  933TIP3   OH224289   1.829   6.624   2.395  0.1157  0.3450  0.1814
  933TIP3    H124290   1.769   6.550   2.388  0.8541 -0.1917 -0.7284
  933TIP3    H224291   1.865   6.617   2.483  0.3397 -0.5246  0.0360
  934TIP3   OH224292   1.607   0.303  11.643 -0.4436  0.2031 -0.0205
  934TIP3    H124293   1.546   0.335  11.709 -1.3992 -0.0254 -0.7665
  934TIP3    H224294   1.675   0.369  11.639  0.3672 -0.4160  2.1359
  935TIP3   OH224295   6.037   1.849  14.444 -0.4594 -0.1558  0.6171
  935TIP3    H124296   6.003   1.809  14.524 -1.0961 -0.2854  0.2835
  935TIP3    H224297   6.121   1.887  14.471 -1.9912  2.4373  2.0760
  936TIP3   OH224298   6.342   6.701   0.666  0.2245  0.1627  0.1956
  936TIP3    H124299   6.288   6.766   0.711 -0.2716  0.0757 -0.2704
  936TIP3    H224300   6.381   6.749   0.592 -1.0573 -0.3382 -0.8342
  937TIP3   OH224301   1.671   3.690  15.335 -0.2883 -0.0468 -0.1112
  937TIP3    H124302   1.726   3.669  15.410 -0.7883  0.7235  0.4836
  937TIP3    H224303   1.727   3.674  15.259  0.3932 -0.3273  0.4396
  938TIP3   OH224304   5.579   4.826   3.129  0.1167 -0.4217 -0.3627
  938TIP3    H124305   5.662   4.871   3.146 -0.8388  0.9722  0.7674
  938TIP3    H224306   5.516   4.870   3.185 -1.3731 -1.5756 -1.0810
  939TIP3   OH224307   0.081   3.701   1.541 -0.2964  0.0314  0.0004
  939TIP3    H124308   0.104   3.698   1.633 -0.6043  0.4849  0.0948
  939TIP3    H224309   0.165   3.711   1.495 -0.2015  0.5900  0.2801
  940TIP3   OH224310   3.656   2.856  13.881  0.3939 -0.3024 -0.0024
  940TIP3    H124311   3.615   2.775  13.850  1.6734 -0.9453 -0.0676
  940TIP3    H224312   3.686   2.900  13.802  0.8813 -0.4197  0.1136
  941TIP3   OH224313   5.378   4.116  15.296  0.4265 -0.1725  0.1139
  941TIP3    H124314   5.344   4.158  15.376 -0.1931 -1.4166  0.5400
  941TIP3    H224315   5.439   4.050  15.328  2.3695  1.1854 -0.6011
  942TIP3   OH224316   3.061   0.516   3.931 -0.0240  0.7034 -0.6545
  942TIP3    H124317   2.993   0.475   3.877  0.0549  0.5981 -0.6719
  942TIP3    H224318   3.012   0.575   3.988 -0.0313  1.6262 -1.5711
  943TIP3   OH224319   1.052   2.599  12.276 -0.5324  0.5761 -0.4976
  943TIP3    H124320   1.051   2.689  12.306  1.0843  1.1022 -1.8108
  943TIP3    H224321   1.141   2.569  12.294 -0.9027 -0.5928 -0.5324
  944TIP3   OH224322   0.261   2.485  11.832 -0.0378 -0.1924  0.8980
  944TIP3    H124323   0.172   2.460  11.854 -0.5098  1.8613  1.5359
  944TIP3    H224324   0.260   2.498  11.738  0.2088 -2.3107  0.5513
  945TIP3   OH224325   2.586   2.462   0.585 -0.1684 -0.5511 -0.1942
  945TIP3    H124326   2.643   2.476   0.509  0.2613 -0.5082  0.1312
  945TIP3    H224327   2.644   2.473   0.660 -0.6865 -0.1409  0.1511
  946TIP3   OH224328   3.001   4.305   0.303  0.3169  0.0753  0.1832
  946TIP3    H124329   2.989   4.399   0.308  0.1861  0.0128  1.8689
  946TIP3    H224330   3.077   4.287   0.358  2.3864 -0.5277 -2.6488
  947TIP3   OH224331   5.931   5.287  12.124  0.3869 -0.3986 -0.2859
  947TIP3    H124332   5.843   5.261  12.151  0.5195  0.7479  1.3756
  947TIP3    H224333   5.985   5.274  12.202  1.0989  1.6213 -0.3841
  948TIP3   OH224334   1.656   3.228   6.844 -0.0322 -0.1402  0.4855
  948TIP3    H124335   1.723   3.200   6.907  0.4110  0.1073  0.1308
  948TIP3    H224336   1.580   3.249   6.898 -0.0701 -1.1168  0.8427
  949TIP3   OH224337   4.983   4.485   1.146 -0.6877  0.1931 -0.5845
  949TIP3    H124338   4.909   4.545   1.131 -0.6870  0.0079 -1.3451
  949TIP3    H224339   4.950   4.423   1.212 -0.4977  1.3515  0.6563
  950TIP3   OH224340   2.807   5.886   4.849 -0.4328 -0.0412 -0.1027
  950TIP3    H124341   2.812   5.950   4.778 -0.6616 -0.0716 -0.1439
  950TIP3    H224342   2.716   5.889   4.879 -0.3455 -0.0506  0.1693
  951TIP3   OH224343   1.175   1.701  16.006 -0.2403  0.1407 -0.2132
  951TIP3    H124344   1.155   1.778  15.952 -0.8637 -0.1710 -0.4462
  951TIP3    H224345   1.205   1.736  16.089 -0.0401  0.6342 -0.4926
  952TIP3   OH224346   1.340   2.705   3.482 -0.7035  0.2228  0.1164
  952TIP3    H124347   1.411   2.717   3.418 -0.6697 -0.1974  0.0688
  952TIP3    H224348   1.274   2.770   3.457 -0.0542  1.0847  0.5765
  953TIP3   OH224349   5.517   2.353   4.564  0.1336 -0.2408  0.0165
  953TIP3    H124350   5.528   2.370   4.471  2.3023  0.1385  0.2939
  953TIP3    H224351   5.461   2.425   4.594  0.8636  0.6560 -0.6951
  954TIP3   OH224352   6.815   5.716   2.387  0.2166  0.0747  0.0418
  954TIP3    H124353   6.779   5.727   2.475  0.5017  0.2684  0.1371
  954TIP3    H224354   6.738   5.703   2.331  0.0282  0.0499  0.3039
  955TIP3   OH224355   3.524   3.173  14.408  0.5201  0.1750  0.4355
  955TIP3    H124356   3.572   3.235  14.463 -0.0425 -0.4733  1.7146
  955TIP3    H224357   3.583   3.097  14.400  1.8892  1.3899 -2.4536
  956TIP3   OH224358   3.362   2.087  16.319  0.1710 -0.8469  0.6259
  956TIP3    H124359   3.350   2.174  16.280  1.1455 -0.0647  2.0076
  956TIP3    H224360   3.281   2.041  16.298 -0.4451  0.4486  0.0129
  957TIP3   OH224361   3.934   1.979   2.183 -0.0837  0.1975  0.3800
  957TIP3    H124362   4.011   2.011   2.229  1.0619 -0.1999 -1.1872
  957TIP3    H224363   3.946   1.884   2.179 -0.3693  0.1862 -0.3450
  958TIP3   OH224364   4.868   5.098   0.550 -0.1387 -0.4698  0.0144
  958TIP3    H124365   4.819   5.133   0.625 -1.0371  0.1165 -0.8362
  958TIP3    H224366   4.808   5.104   0.476  1.0626 -0.1692 -0.9713
  959TIP3   OH224367   0.889   6.452   2.222 -0.1602  0.0685  0.3858
  959TIP3    H124368   0.884   6.457   2.127 -1.7476 -1.0711  0.3591
  959TIP3    H224369   0.839   6.527   2.253 -1.8815 -0.9731  0.2568
  960TIP3   OH224370   5.980   0.455   5.777  0.7106  0.1153  0.2611
  960TIP3    H124371   5.957   0.495   5.861  0.6154 -0.5596  0.5644
  960TIP3    H224372   6.014   0.368   5.800 -0.9366 -0.7712 -0.5017
  961TIP3   OH224373   3.225   5.106   5.593 -0.2343  0.2553  0.1933
  961TIP3    H124374   3.312   5.084   5.560 -0.6595  1.2918 -1.7990
  961TIP3    H224375   3.167   5.042   5.552 -0.6836  1.1130 -0.5657
  962TIP3   OH224376   2.577   1.727  11.359  0.5577  0.3043 -0.0278
  962TIP3    H124377   2.546   1.637  11.359  2.4107 -0.4701 -2.3383
  962TIP3    H224378   2.634   1.733  11.436 -2.0855  0.5941  2.0204
  963TIP3   OH224379   0.258   0.719   0.792 -0.3727  0.0657  0.0858
  963TIP3    H124380   0.310   0.647   0.827 -0.4221  0.5394  1.1760
  963TIP3    H224381   0.171   0.705   0.830 -0.2234  1.0430  0.8267
  964TIP3   OH224382   5.063   4.549  15.520  0.0963  0.2478  0.5380
  964TIP3    H124383   5.021   4.491  15.458  1.7900 -0.7676  0.2886
  964TIP3    H224384   4.999   4.619  15.535  0.2457  1.5723 -3.7359
  965TIP3   OH224385   2.896   2.282   1.597  0.4252 -0.0155  0.3152
  965TIP3    H124386   2.811   2.280   1.553 -0.1051 -1.3421  1.3340
  965TIP3    H224387   2.882   2.338   1.674 -0.1209 -1.7693  1.5493
  966TIP3   OH224388   2.561   6.648  15.006 -0.1534  0.7608 -0.4475
  966TIP3    H124389   2.581   6.574  15.064 -1.0200 -0.3162 -1.4459
  966TIP3    H224390   2.630   6.712  15.023  0.7284 -0.3540  0.3417
  967TIP3   OH224391   4.762   6.705  16.405 -0.4135  0.2094 -0.1437
  967TIP3    H124392   4.712   6.668  16.332 -0.1651  0.1583 -0.2904
  967TIP3    H224393   4.701   6.766  16.447 -0.6111  0.1186 -0.2953
  968TIP3   OH224394   2.371   0.609   2.612 -0.2256  0.4147  0.2976
  968TIP3    H124395   2.285   0.647   2.631 -0.7985 -1.3777  1.5945
  968TIP3    H224396   2.364   0.519   2.642  1.5332 -0.3171 -1.3252
  969TIP3   OH224397   0.041   5.153  11.137 -0.2316  0.3011  0.4665
  969TIP3    H124398  -0.024   5.213  11.101 -1.0604 -0.4368  0.6982
  969TIP3    H224399   0.124   5.199  11.128 -0.7836  1.2523  0.1483
  970TIP3   OH224400   3.047   1.671  15.652 -0.5133  0.1545 -0.3910
  970TIP3    H124401   2.991   1.611  15.701 -1.5284  1.4902  0.1419
  970TIP3    H224402   2.996   1.693  15.573 -0.4378  0.7966 -0.2712
  971TIP3   OH224403   2.625   6.427  15.190 -0.0141 -0.1254 -0.4900
  971TIP3    H124404   2.545   6.384  15.220  0.2832 -0.6125 -0.3907
  971TIP3    H224405   2.651   6.483  15.264 -0.0031 -0.3253 -0.3427
  972TIP3   OH224406   4.570   4.816   5.684 -0.4416  0.1295 -0.4157
  972TIP3    H124407   4.631   4.772   5.743  0.9893 -0.0187 -1.9175
  972TIP3    H224408   4.617   4.894   5.655 -1.2783  0.4226 -1.0211
  973TIP3   OH224409   2.088   4.886   4.060  0.1916  0.0804  0.7413
  973TIP3    H124410   2.181   4.865   4.059  0.1154 -0.4013 -1.6636
  973TIP3    H224411   2.084   4.980   4.042  0.2210  0.2350  1.5205
  974TIP3   OH224412   0.255   1.771   6.067  0.1338  0.7341 -0.0100
  974TIP3    H124413   0.170   1.812   6.082  0.0809  0.0059  1.8926
  974TIP3    H224414   0.251   1.688   6.114  2.1761  1.0632  0.8722
  975TIP3   OH224415   6.444   3.446  16.204 -0.1297  0.1625 -0.1270
  975TIP3    H124416   6.525   3.495  16.212  0.8037 -1.2952 -0.1769
  975TIP3    H224417   6.398   3.460  16.287 -0.2395  1.6499 -0.4098
  976TIP3   OH224418   1.736   2.096   1.415  0.5084 -0.1007 -0.0094
  976TIP3    H124419   1.817   2.099   1.466  0.9323 -2.2857 -0.4503
  976TIP3    H224420   1.679   2.037   1.465  0.4890 -1.3166 -1.3944
  977TIP3   OH224421   1.205   4.283   1.593  0.5917  0.4971  0.4236
  977TIP3    H124422   1.286   4.257   1.637 -0.5782 -0.8209  1.9166
  977TIP3    H224423   1.193   4.218   1.524  0.3185  0.0980  0.8399
  978TIP3   OH224424   3.298   0.512  10.213  0.4028  0.3885  0.0585
  978TIP3    H124425   3.242   0.455  10.161  0.2016 -2.4929  3.0735
  978TIP3    H224426   3.256   0.516  10.299  1.8361  3.0105  0.7511
  979TIP3   OH224427   4.854   2.113  14.570  0.0498 -0.8264  0.4126
  979TIP3    H124428   4.765   2.139  14.593  0.6254  0.6774  1.0663
  979TIP3    H224429   4.883   2.059  14.643  0.1589 -0.1491  0.8729
  980TIP3   OH224430   5.739   0.185  11.806  0.9474 -0.8400 -0.0559
  980TIP3    H124431   5.787   0.268  11.811  0.8147 -0.7772  0.1681
  980TIP3    H224432   5.648   0.209  11.822  0.5033 -0.6472 -2.4294
  981TIP3   OH224433   1.022   1.281   1.841  0.1571 -0.2885 -0.6949
  981TIP3    H124434   0.927   1.270   1.854  0.2194  0.2454  0.2407
  981TIP3    H224435   1.035   1.257   1.749 -1.0440  0.6273 -1.1326
  982TIP3   OH224436   1.213   5.761  16.234 -0.5515  0.3191  0.0917
  982TIP3    H124437   1.250   5.678  16.206 -0.7900  0.2046  0.1068
  982TIP3    H224438   1.166   5.794  16.157  0.5044  1.0051 -0.2786
  983TIP3   OH224439   4.413   1.079   4.276  0.8070 -0.3091  0.1729
  983TIP3    H124440   4.355   1.003   4.276 -1.8103  1.5595  0.3109
  983TIP3    H224441   4.417   1.106   4.184  1.1617 -0.1925  0.2214
  984TIP3   OH224442   3.065   6.531  14.312 -0.4146  0.2411  0.3882
  984TIP3    H124443   3.011   6.607  14.294 -1.2656 -0.7819 -1.7522
  984TIP3    H224444   3.155   6.562  14.304 -0.6778  1.4293  1.6408
  985TIP3   OH224445   6.409   3.799   1.360  0.1105  0.0822  0.1298
  985TIP3    H124446   6.336   3.782   1.301  1.6289 -2.6181 -1.1624
  985TIP3    H224447   6.414   3.722   1.415  1.0363  0.9203  1.2696
  986TIP3   OH224448   5.161   1.658   4.407 -0.4745  0.0959 -0.3586
  986TIP3    H124449   5.230   1.700   4.458  1.8214 -0.2321 -2.9533
  986TIP3    H224450   5.100   1.729   4.387  0.5395  1.0427 -0.2278
  987TIP3   OH224451   4.777   3.961  10.068 -0.3669 -1.2288 -0.4838
  987TIP3    H124452   4.687   3.948  10.039 -1.1345  0.5914  0.9448
  987TIP3    H224453   4.772   3.971  10.163  1.2764 -0.6538 -0.4115
  988TIP3   OH224454   1.548   5.241   5.007  0.0114 -0.2262 -0.0076
  988TIP3    H124455   1.632   5.284   4.996 -1.2840  2.6796  0.6040
  988TIP3    H224456   1.545   5.174   4.938  1.7939  1.2696 -1.6123
  989TIP3   OH224457   0.237   3.507  14.285 -0.0468  0.2894 -0.0495
  989TIP3    H124458   0.222   3.418  14.317 -1.2034  0.8864  1.1490
  989TIP3    H224459   0.332   3.513  14.275  0.0145 -1.2399 -0.6832
  990TIP3   OH224460   4.396   4.807   3.124 -0.6102 -0.1002  0.1575
  990TIP3    H124461   4.443   4.767   3.051  1.0035  0.8500  0.6159
  990TIP3    H224462   4.352   4.734   3.168 -0.1743 -0.9253 -0.7428
  991TIP3   OH224463   0.099   6.449  13.664 -0.1688 -0.1430 -1.0154
  991TIP3    H124464   0.189   6.459  13.695 -0.2003  1.4470 -1.3186
  991TIP3    H224465   0.063   6.538  13.667 -1.1256 -0.4274 -2.6972
  992TIP3   OH224466   3.005   4.934   1.065 -0.1263  0.1863  0.3802
  992TIP3    H124467   2.980   4.859   1.010 -0.6239 -0.9911  2.1433
  992TIP3    H224468   2.931   4.946   1.125  1.1306  0.2598  1.9816
  993TIP3   OH224469   6.835   3.240  10.483  0.1115 -0.0049  0.4283
  993TIP3    H124470   6.880   3.211  10.562  1.9208  0.9674 -0.1865
  993TIP3    H224471   6.896   3.300  10.441 -0.1575 -1.5566 -2.4502
  994TIP3   OH224472   4.103   3.486   4.150  0.9836  0.6253  0.4416
  994TIP3    H124473   4.052   3.480   4.231  0.0107  2.2916  0.0044
  994TIP3    H224474   4.045   3.531   4.089  0.9549 -2.2629 -1.8581
  995TIP3   OH224475   6.714   1.114   3.500  0.2471  0.0783 -0.0719
  995TIP3    H124476   6.781   1.128   3.567  0.2302  0.9295 -0.2177
  995TIP3    H224477   6.693   1.202   3.469  0.9203 -0.3510 -1.8585
  996TIP3   OH224478   2.045   5.946  15.969  0.4825 -0.5181 -0.0548
  996TIP3    H124479   1.980   5.961  15.900  1.2753 -1.7852 -1.1239
  996TIP3    H224480   2.090   5.866  15.942  3.2653  0.9094  0.0408
  997TIP3   OH224481   4.712   0.731  12.581  0.5504  0.3687  0.1309
  997TIP3    H124482   4.655   0.808  12.577 -1.2634 -0.9524 -2.0338
  997TIP3    H224483   4.652   0.657  12.587  2.1885 -0.9701  0.7408
  998TIP3   OH224484   4.393   1.544  10.583  0.3048  0.0805 -0.3645
  998TIP3    H124485   4.311   1.517  10.543  0.3510 -0.9336  0.1938
  998TIP3    H224486   4.451   1.560  10.509  1.0292 -3.7418 -0.8584
  999TIP3   OH224487   5.224   2.164  12.187  0.0973  0.0600 -0.0820
  999TIP3    H124488   5.278   2.180  12.264 -1.4287  0.9708  0.8486
  999TIP3    H224489   5.134   2.172  12.218 -0.5756 -0.2510 -1.8174
 1000TIP3   OH224490   0.271   0.234  16.643 -0.8169 -0.6959 -0.2458
 1000TIP3    H124491   0.190   0.212  16.689  0.4329 -2.5859  1.1796
 1000TIP3    H224492   0.326   0.157  16.652  0.9077  0.2590 -1.8106
 1001TIP3   OH224493   3.067   6.591   4.583 -0.0451 -0.3024 -0.3427
 1001TIP3    H124494   2.998   6.620   4.524 -1.3212  0.8575  1.6223
 1001TIP3    H224495   3.146   6.634   4.550 -0.5737 -0.2038 -1.5505
 1002TIP3   OH224496   6.627   1.345   3.361 -0.3202  0.1487 -0.0096
 1002TIP3    H124497   6.599   1.434   3.381 -0.6975 -0.0723  0.4892
 1002TIP3    H224498   6.652   1.347   3.269 -0.4060  0.7459 -0.0237
 1003TIP3   OH224499   6.106   4.472  14.757  0.0202  0.1802 -0.0083
 1003TIP3    H124500   6.199   4.485  14.771  0.5213 -1.8315 -1.1231
 1003TIP3    H224501   6.093   4.491  14.664 -0.3642 -1.0519 -0.2203
 1004TIP3   OH224502   4.951   2.546   1.339 -0.2714 -0.3071  0.4888
 1004TIP3    H124503   4.867   2.504   1.355  0.6678 -1.5224  2.7214
 1004TIP3    H224504   4.965   2.535   1.245 -2.8688  0.5638 -0.0754
 1005TIP3   OH224505   1.094   0.005  12.943  0.3193  0.4452  0.0986
 1005TIP3    H124506   1.152   0.043  12.877 -0.1550  1.5020  0.2588
 1005TIP3    H224507   1.149   0.000  13.022  0.4839  0.4868 -0.0130
 1006TIP3   OH224508   1.144   2.767  11.688  0.4423 -0.1896  0.7515
 1006TIP3    H124509   1.207   2.730  11.626 -0.1612 -0.7792  0.4768
 1006TIP3    H224510   1.194   2.831  11.738  1.5279 -1.3659  1.2395
 1007TIP3   OH224511   2.579   0.486   5.356 -0.0769 -0.4328  0.4185
 1007TIP3    H124512   2.566   0.456   5.266 -0.2708  1.0890 -0.0819
 1007TIP3    H224513   2.616   0.410   5.402 -0.1747 -1.2887 -0.8844
 1008TIP3   OH224514   3.621   0.857  11.006  0.6682  0.6523  0.2041
 1008TIP3    H124515   3.566   0.789  11.045  0.6182  1.0774  0.8852
 1008TIP3    H224516   3.640   0.825  10.918 -0.7061  0.4995 -0.0609
 1009TIP3   OH224517   3.102   2.528   5.397 -0.2114 -0.5282 -0.3194
 1009TIP3    H124518   3.101   2.613   5.352 -0.0016  0.4403  1.3980
 1009TIP3    H224519   3.147   2.469   5.337 -0.8474  0.4410 -1.7849
 1010TIP3   OH224520   2.159   6.336  14.151  0.6412  0.0881  0.2545
 1010TIP3    H124521   2.251   6.340  14.181  0.3759 -0.5564  1.2086
 1010TIP3    H224522   2.108   6.356  14.230 -0.0445  0.4933 -0.2847
 1011TIP3   OH224523   4.414   1.541  14.063  0.4143 -0.3416 -1.1751
 1011TIP3    H124524   4.408   1.455  14.020 -2.0153 -0.5891 -0.4774
 1011TIP3    H224525   4.331   1.583  14.043  0.0754  0.4051  1.4806
 1012TIP3   OH224526   4.279   0.392  12.871  0.4229  0.0778  0.4660
 1012TIP3    H124527   4.313   0.422  12.786 -0.5646 -2.1848 -0.8153
 1012TIP3    H224528   4.232   0.468  12.906  1.3383  1.2501 -0.7170
 1013TIP3   OH224529   4.970   6.129   3.883  0.5342  0.4107  0.2937
 1013TIP3    H124530   4.983   6.085   3.799  1.8356  1.7734 -0.2601
 1013TIP3    H224531   5.044   6.102   3.937 -0.4177 -0.6408  1.1115
 1014TIP3   OH224532   3.240   2.016   4.044  0.5503 -0.9830 -0.0160
 1014TIP3    H124533   3.247   2.099   4.091  1.6345 -0.7597 -0.5560
 1014TIP3    H224534   3.329   1.981   4.043  0.2441 -1.7756 -0.4862
 1015TIP3   OH224535   6.405   2.108   5.585 -0.5917  0.2157  0.2409
 1015TIP3    H124536   6.456   2.085   5.507 -1.1379  1.0514 -0.3898
 1015TIP3    H224537   6.441   2.054   5.655 -0.3121 -0.8050 -0.6616
 1016TIP3   OH224538   3.483   3.526  12.303  0.1132  0.0501  0.2828
 1016TIP3    H124539   3.429   3.595  12.264 -1.2927 -0.6595  0.8933
 1016TIP3    H224540   3.572   3.560  12.298 -0.3187  1.0727 -1.1753
 1017TIP3   OH224541   2.599   2.095  16.943 -0.1225 -0.2471 -0.1921
 1017TIP3    H124542   2.556   2.039  16.878  1.1721 -0.2025 -1.1212
 1017TIP3    H224543   2.692   2.077  16.931  0.1393 -0.4107  1.8255
 1018TIP3   OH224544   5.328   3.736  13.271 -0.1107 -0.0111 -0.8290
 1018TIP3    H124545   5.412   3.781  13.263 -0.4545  0.5087 -1.7002
 1018TIP3    H224546   5.267   3.792  13.224 -1.2300  0.3069  0.9094
 1019TIP3   OH224547   0.990   2.982   6.588  0.6316  0.2930  0.1980
 1019TIP3    H124548   1.085   2.980   6.591  0.7034 -0.3902 -1.2053
 1019TIP3    H224549   0.966   2.899   6.547 -0.5593  0.5405  0.3424
 1020TIP3   OH224550   3.877   1.575   4.531 -0.3545  0.5200  0.6144
 1020TIP3    H124551   3.871   1.670   4.543  2.3683  0.8184  0.2711
 1020TIP3    H224552   3.953   1.563   4.475 -0.3822 -1.9122  1.0037
 1021TIP3   OH224553   6.718   4.630   0.456 -0.2570 -0.0121 -0.2039
 1021TIP3    H124554   6.659   4.554   0.449  0.1836 -0.3887  0.1034
 1021TIP3    H224555   6.698   4.668   0.542 -0.2551  0.0329 -0.2232
 1022TIP3   OH224556   6.035   2.806  16.925 -0.6086  0.1529  0.4042
 1022TIP3    H124557   5.967   2.830  16.862  0.0057  1.7423  0.2967
 1022TIP3    H224558   6.101   2.761  16.873  0.8587  3.1864 -0.6320
 1023TIP3   OH224559   1.006   0.888   1.087 -0.2526  0.0156  0.0907
 1023TIP3    H124560   1.096   0.904   1.116 -0.3230  0.3652  0.1296
 1023TIP3    H224561   1.012   0.888   0.992 -0.3721  1.0738  0.0719
 1024TIP3   OH224562   1.358   5.187  11.816 -0.6175 -0.0512  0.1103
 1024TIP3    H124563   1.263   5.176  11.815 -0.6351 -0.0495  0.9957
 1024TIP3    H224564   1.393   5.100  11.837 -0.3244 -0.4865 -2.0271
 1025TIP3   OH224565   0.636   5.449  15.946  0.0109 -0.2028  0.3126
 1025TIP3    H124566   0.569   5.381  15.945 -0.9000  0.6623 -1.3710
 1025TIP3    H224567   0.663   5.458  15.854 -0.7728  2.5059  0.2560
 1026TIP3   OH224568   3.349   4.739  10.637 -0.0019  0.1916  0.6069
 1026TIP3    H124569   3.389   4.690  10.708 -1.9551  0.8665  2.2683
 1026TIP3    H224570   3.399   4.821  10.634  0.6535 -0.1969  0.5650
 1027TIP3   OH224571   4.295   2.585   3.548  0.3398  0.2489  0.1962
 1027TIP3    H124572   4.203   2.560   3.555  0.3862  0.0690  0.1638
 1027TIP3    H224573   4.343   2.512   3.586  0.4538  0.5123  0.5650
 1028TIP3   OH224574   5.411   1.203  16.739 -0.4108 -0.1269  0.2887
 1028TIP3    H124575   5.438   1.145  16.667  0.5275  0.3716  0.2189
 1028TIP3    H224576   5.438   1.157  16.818  0.7445  0.3949  0.2154
 1029TIP3   OH224577   1.125   4.014   3.793  0.6757  0.0941 -0.6445
 1029TIP3    H124578   1.126   4.045   3.702  2.2611  1.6985 -0.1536
 1029TIP3    H224579   1.205   4.051   3.831 -0.2727  0.0033  1.5779
 1030TIP3   OH224580   1.224   0.408   5.139  0.1510 -0.2292 -0.5187
 1030TIP3    H124581   1.229   0.502   5.125  2.0686 -0.2217 -0.0122
 1030TIP3    H224582   1.158   0.378   5.077 -0.2581  1.3940 -0.9114
 1031TIP3   OH224583   0.178   6.587  16.701  0.4648 -0.2929  0.4405
 1031TIP3    H124584   0.084   6.593  16.687  0.6777  0.2008 -0.9445
 1031TIP3    H224585   0.199   6.663  16.755  0.2248  0.2969 -0.2709
 1032TIP3   OH224586   2.130   1.635   4.534 -0.3977  0.4327  0.0640
 1032TIP3    H124587   2.112   1.679   4.617  0.1484  0.4642  0.1651
 1032TIP3    H224588   2.057   1.573   4.524 -0.7331  0.7810  0.3189
 1033TIP3   OH224589   4.474   1.050   5.387  0.2392 -0.0671 -0.2429
 1033TIP3    H124590   4.458   1.007   5.471  0.0148  2.2420  0.9596
 1033TIP3    H224591   4.570   1.050   5.379  0.2313 -2.9115 -1.5004
 1034TIP3   OH224592   6.011   1.936   6.480 -0.2923  0.5261 -0.5270
 1034TIP3    H124593   5.969   2.008   6.432 -1.3126  0.5891  0.4124
 1034TIP3    H224594   5.955   1.860   6.463 -0.4846  0.4764  0.2782
 1035TIP3   OH224595   0.384   6.011   3.095  0.1838  0.2669  0.5436
 1035TIP3    H124596   0.410   6.077   3.159 -2.0236  1.6904  0.0935
 1035TIP3    H224597   0.289   6.007   3.102  0.1371 -1.9161 -0.4235
 1036TIP3   OH224598   5.821   3.410  14.247  0.1495 -0.0390  0.1759
 1036TIP3    H124599   5.800   3.427  14.339 -0.7463  2.0224 -0.3373
 1036TIP3    H224600   5.743   3.367  14.212 -0.6497  1.6303 -0.1986
 1037TIP3   OH224601   0.828   2.302  12.691 -0.1989 -0.4587 -0.2341
 1037TIP3    H124602   0.876   2.349  12.623 -0.6206  0.2098 -0.0781
 1037TIP3    H224603   0.779   2.370  12.737  0.1516 -0.8889  0.7957
 1038TIP3   OH224604   2.357   3.453  13.836 -0.3868 -0.1238 -0.4376
 1038TIP3    H124605   2.325   3.526  13.783 -0.2012  1.8645  2.0321
 1038TIP3    H224606   2.451   3.451  13.820 -0.3487  0.3718 -0.2682
 1039TIP3   OH224607   3.444   4.676  15.459 -0.5192  0.7114  0.1970
 1039TIP3    H124608   3.373   4.686  15.396 -0.1945  0.0178 -0.2891
 1039TIP3    H224609   3.463   4.582  15.459  0.5620  0.9219  0.1521
 1040TIP3   OH224610   3.337   3.333   2.276 -0.0704 -0.5888  0.3567
 1040TIP3    H124611   3.267   3.268   2.268  0.1191 -1.0190  1.7766
 1040TIP3    H224612   3.411   3.283   2.310  0.3807  0.1929  0.5353
 1041TIP3   OH224613   4.589   2.081   6.456 -0.2180  0.4069  0.5687
 1041TIP3    H124614   4.598   2.106   6.364  0.9585 -2.5758 -0.2356
 1041TIP3    H224615   4.677   2.090   6.493 -0.5206  0.8203  1.2188
 1042TIP3   OH224616   2.219   2.126   4.516 -0.0278  0.6612  0.2477
 1042TIP3    H124617   2.280   2.170   4.456 -0.8199  2.0624  0.4145
 1042TIP3    H224618   2.208   2.038   4.480 -1.8761  1.9709 -2.7734
 1043TIP3   OH224619   1.255   0.723  13.330  0.4063  0.5001  0.2757
 1043TIP3    H124620   1.329   0.781  13.313  0.3909  0.6050  0.5678
 1043TIP3    H224621   1.253   0.664  13.254 -0.3226  1.6459 -0.6248
 1044TIP3   OH224622   6.478   6.569   1.471 -0.0169  0.2457 -0.5356
 1044TIP3    H124623   6.516   6.529   1.393 -1.4279 -1.1279 -0.5829
 1044TIP3    H224624   6.483   6.501   1.538 -0.0261  0.9460  0.1898
 1045TIP3   OH224625   2.192   3.177  13.977 -0.3936  0.0239  0.0465
 1045TIP3    H124626   2.205   3.272  13.969 -0.7424  0.1784  1.2079
 1045TIP3    H224627   2.116   3.159  13.922  0.8123  0.0898 -1.7377
 1046TIP3   OH224628   2.202   1.586  13.250  0.5681 -0.3616 -0.1688
 1046TIP3    H124629   2.215   1.591  13.345 -0.2544  0.4896 -0.0902
 1046TIP3    H224630   2.287   1.557  13.216  0.9246 -0.5041  0.8116
 1047TIP3   OH224631   0.395   3.675   4.418 -0.4247  0.0819 -0.0615
 1047TIP3    H124632   0.299   3.672   4.420 -0.5004  1.7677  0.5599
 1047TIP3    H224633   0.415   3.730   4.342 -0.0245  1.1216  0.7753
 1048TIP3   OH224634   2.674   2.886   4.605 -0.3015  0.0825  0.0303
 1048TIP3    H124635   2.650   2.951   4.671 -1.0048 -0.1999  0.0594
 1048TIP3    H224636   2.594   2.874   4.553  0.1850  0.1594 -0.7566
 1049TIP3   OH224637   3.527   6.108  13.227 -0.1892 -0.0325  0.7484
 1049TIP3    H124638   3.459   6.074  13.169 -0.8095  0.2598  1.2957
 1049TIP3    H224639   3.602   6.050  13.211  0.3238  1.1532 -1.7287
 1050TIP3   OH224640   3.601   4.035   4.043  0.5171  0.4297  0.1767
 1050TIP3    H124641   3.628   4.037   3.951 -0.3602 -0.2613 -0.1065
 1050TIP3    H224642   3.556   4.118   4.057  2.0791  1.2631  0.4474
 1051TIP3   OH224643   1.609   0.601   4.868  0.7679 -0.0614  0.1212
 1051TIP3    H124644   1.670   0.673   4.886  3.0797 -2.0714  0.9487
 1051TIP3    H224645   1.651   0.550   4.799 -0.0220 -1.4427  0.6112
 1052TIP3   OH224646   4.191   4.769  14.278 -0.1181  0.0095 -0.1992
 1052TIP3    H124647   4.268   4.791  14.331 -1.2753  0.2142  1.4918
 1052TIP3    H224648   4.117   4.809  14.325 -1.3864 -1.0098 -1.2341
 1053TIP3   OH224649   2.476   4.516   3.204 -0.2540  0.0320  0.6660
 1053TIP3    H124650   2.477   4.495   3.111  1.8198  0.3175  0.5860
 1053TIP3    H224651   2.483   4.611   3.207  3.5243 -0.1137  1.0391
 1054TIP3   OH224652   5.565   4.616  12.849 -0.2141 -0.5635  0.2223
 1054TIP3    H124653   5.497   4.654  12.905  0.1198 -0.5989  0.6557
 1054TIP3    H224654   5.601   4.544  12.901  0.8440  0.0895  0.4167
 1055TIP3   OH224655   4.789   5.887  15.181  0.4083 -0.0257 -0.3845
 1055TIP3    H124656   4.720   5.887  15.115 -1.4986 -1.7884  1.4707
 1055TIP3    H224657   4.763   5.956  15.243  0.3207 -0.6271  0.2661
 1056TIP3   OH224658   5.614   1.828   0.375  0.1089  0.1498  0.5445
 1056TIP3    H124659   5.703   1.812   0.404  0.1776  0.6158  0.6037
 1056TIP3    H224660   5.603   1.923   0.383 -0.2752  0.1362  0.2102
 1057TIP3   OH224661   5.727   0.572  14.965  0.3493 -0.0315 -0.1712
 1057TIP3    H124662   5.810   0.558  15.010 -0.3941  0.1753  1.3316
 1057TIP3    H224663   5.685   0.486  14.965 -1.3312  0.6527  3.1097
 1058TIP3   OH224664   1.208   4.139   4.944 -0.1006 -0.4338  0.0015
 1058TIP3    H124665   1.301   4.156   4.960  0.0743  0.0220 -1.3684
 1058TIP3    H224666   1.175   4.221   4.908 -0.5405 -1.2379 -1.4910
 1059TIP3   OH224667   0.183   6.327  15.238  0.3299 -1.0430 -0.7368
 1059TIP3    H124668   0.226   6.395  15.290  1.0373 -1.6693 -0.4850
 1059TIP3    H224669   0.150   6.373  15.161 -1.2850  0.0236  0.5336
 1060TIP3   OH224670   0.585   5.969  12.719  0.2522 -0.6792 -0.4102
 1060TIP3    H124671   0.652   5.968  12.651 -0.2755  2.5147 -1.1330
 1060TIP3    H224672   0.502   5.975  12.672 -0.1757  0.8080  0.4506
 1061TIP3   OH224673   5.903   3.337  12.570 -0.0751 -0.2005 -0.1053
 1061TIP3    H124674   5.926   3.365  12.659 -0.7014 -1.8452  0.6126
 1061TIP3    H224675   5.986   3.306  12.533 -0.1244 -1.1964  0.5804
 1062TIP3   OH224676   0.276   3.477   4.748  0.0239 -0.2299  0.4091
 1062TIP3    H124677   0.323   3.399   4.778  0.6405  0.7328  2.1013
 1062TIP3    H224678   0.204   3.443   4.695  0.4867 -1.9243  0.8176
 1063TIP3   OH224679   3.242   0.945   3.652 -0.4010 -0.1593 -0.0486
 1063TIP3    H124680   3.205   0.891   3.722  0.0938  0.3337  0.6022
 1063TIP3    H224681   3.267   0.882   3.584 -1.3920 -0.5971 -0.0219
 1064TIP3   OH224682   1.854   6.764   0.139 -0.1798 -0.5040 -0.0140
 1064TIP3    H124683   1.789   6.755   0.209 -1.7553 -0.4146 -1.4150
 1064TIP3    H224684   1.930   6.801   0.182 -1.4299  0.4389  1.4843
 1065TIP3   OH224685   0.419   5.803   5.184  0.3200  0.1124 -0.0202
 1065TIP3    H124686   0.335   5.845   5.167  0.6042  0.0873 -1.7117
 1065TIP3    H224687   0.430   5.741   5.112  1.9951  0.4759 -0.1369
 1066TIP3   OH224688   6.209   4.983   4.227 -0.4957  0.1653  0.1396
 1066TIP3    H124689   6.302   4.967   4.244 -1.1004 -1.0776  2.6557
 1066TIP3    H224690   6.206   5.074   4.197  1.7240 -0.4287 -2.3512
 1067TIP3   OH224691   3.654   4.943   2.499  0.2169  0.1205  0.0025
 1067TIP3    H124692   3.690   4.921   2.412  1.6302 -1.1818  0.8604
 1067TIP3    H224693   3.638   4.858   2.540 -2.1251  0.6890  0.4022
 1068TIP3   OH224694   5.585   1.974   5.038  0.2410 -0.1545  0.2017
 1068TIP3    H124695   5.585   1.879   5.051 -0.7611 -0.2250 -0.2226
 1068TIP3    H224696   5.492   1.998   5.038  0.4074  0.5839 -1.4265
 1069TIP3   OH224697   1.071   4.073   5.269  0.2365  0.0263 -0.6043
 1069TIP3    H124698   1.034   4.161   5.257 -0.1018 -0.0043  0.1377
 1069TIP3    H224699   1.151   4.088   5.319  0.4196 -0.0496 -0.8732
 1070TIP3   OH224700   2.390   6.588  12.178  0.2685 -0.2017  0.2742
 1070TIP3    H124701   2.320   6.546  12.227  1.5034 -1.1181  1.2989
 1070TIP3    H224702   2.411   6.667  12.227  0.9456 -0.6983  0.8090
 1071TIP3   OH224703   5.375   1.953   1.677 -0.6627  0.2195  0.1666
 1071TIP3    H124704   5.423   1.893   1.734 -0.9629  0.3994  0.6179
 1071TIP3    H224705   5.441   2.017   1.649 -0.4715  0.0183  0.1612
 1072TIP3   OH224706   1.106   1.600   4.570  0.0216  0.2959 -0.7553
 1072TIP3    H124707   1.066   1.686   4.565 -2.4927 -0.5681  1.6181
 1072TIP3    H224708   1.078   1.555   4.490 -0.8948  0.8254 -0.7378
 1073TIP3   OH224709   2.151   6.524   1.967  0.4684  0.4037 -0.0799
 1073TIP3    H124710   2.077   6.496   2.020  2.3522 -0.8985  2.0735
 1073TIP3    H224711   2.167   6.615   1.994 -0.6803  0.9298 -1.0584
 1074TIP3   OH224712   4.688   6.034  12.518  0.3309 -0.4399  0.3417
 1074TIP3    H124713   4.683   6.094  12.444 -0.3279 -0.8796  0.0161
 1074TIP3    H224714   4.630   6.072  12.584  0.7919 -0.1328  0.5759
 1075TIP3   OH224715   0.149   1.468  12.680 -0.4646  0.0915 -0.7062
 1075TIP3    H124716   0.210   1.403  12.643 -2.9150 -2.1349 -1.1019
 1075TIP3    H224717   0.194   1.499  12.759  0.9880 -1.8340 -0.6817
 1076TIP3   OH224718   0.085   6.498  16.026  0.4659  0.7878 -0.0834
 1076TIP3    H124719   0.026   6.511  16.100  0.9782  0.3966  0.4111
 1076TIP3    H224720   0.148   6.432  16.057 -0.0053 -0.2595 -1.2852
 1077TIP3   OH224721   2.331   5.328   4.592 -0.2755  0.1542  0.6871
 1077TIP3    H124722   2.367   5.417   4.595  0.0790  0.0513 -0.1707
 1077TIP3    H224723   2.371   5.283   4.666  3.0764 -0.5438 -1.3065
 1078TIP3   OH224724   3.985   6.653  10.545  0.5311 -0.0513  0.0606
 1078TIP3    H124725   3.899   6.659  10.503  0.5568 -2.2245 -0.4093
 1078TIP3    H224726   3.970   6.682  10.634 -0.2985  1.2531 -0.4740
 1079TIP3   OH224727   6.804   6.707  12.250 -0.1862  0.5508 -0.2280
 1079TIP3    H124728   6.841   6.747  12.329  0.1621 -0.1886 -0.0077
 1079TIP3    H224729   6.869   6.643  12.223  0.5538  2.0227 -2.1806
 1080TIP3   OH224730   0.316   1.170   4.058 -0.8844  0.3523  0.4372
 1080TIP3    H124731   0.226   1.201   4.054 -0.9846  0.0096 -0.0775
 1080TIP3    H224732   0.320   1.099   3.993 -0.8945 -1.2898  2.1298
 1081TIP3   OH224733   3.570   5.608   0.282 -0.3972 -0.6516  0.5472
 1081TIP3    H124734   3.577   5.517   0.309  0.4958 -0.3331  1.4303
 1081TIP3    H224735   3.635   5.654   0.334  0.6417  0.1667 -1.3672
 1082TIP3   OH224736   2.045   6.844   3.302  0.0708 -0.1886  0.3129
 1082TIP3    H124737   1.984   6.918   3.300 -1.7219 -1.5574  0.8836
 1082TIP3    H224738   2.052   6.815   3.211 -1.8725 -1.3016  0.4679
 1083TIP3   OH224739   2.899   1.732   2.663  0.1764 -0.2896 -0.3447
 1083TIP3    H124740   2.978   1.703   2.709  0.8538  0.2423 -1.1466
 1083TIP3    H224741   2.827   1.692   2.712  0.7327  1.7048  2.3180
 1084TIP3   OH224742   1.851   4.221  15.003 -0.5427 -0.7810 -0.2018
 1084TIP3    H124743   1.816   4.148  15.055 -0.4803 -1.0749 -0.5741
 1084TIP3    H224744   1.780   4.243  14.943 -1.6350  1.2455  1.6696
 1085TIP3   OH224745   4.040   2.648   1.516  0.5374 -0.5513  0.3287
 1085TIP3    H124746   4.101   2.590   1.561  0.9634 -0.5199 -0.2085
 1085TIP3    H224747   4.086   2.676   1.437 -0.2149 -0.6291 -0.1511
 1086TIP3   OH224748   3.945   6.763   5.287  0.1947  0.0896 -0.1799
 1086TIP3    H124749   3.993   6.681   5.292  1.0155  0.4729 -1.3802
 1086TIP3    H224750   3.861   6.739   5.246  0.1046 -0.2703  0.2086
 1087TIP3   OH224751   3.549   0.230   1.190 -0.2952  0.5303  0.0823
 1087TIP3    H124752   3.641   0.247   1.171  0.1060  0.4969  1.8107
 1087TIP3    H224753   3.548   0.204   1.282 -2.1636  1.7797  0.4828
 1088TIP3   OH224754   0.977   2.812   2.244 -0.2076 -0.4234  0.0628
 1088TIP3    H124755   0.963   2.799   2.338 -1.5101  1.9158  0.2680
 1088TIP3    H224756   1.060   2.768   2.226  0.6302 -0.0302  2.5522
 1089TIP3   OH224757   3.388   5.031  11.188  0.2965  0.5124  0.3671
 1089TIP3    H124758   3.357   5.063  11.104 -0.0633  0.9287  0.6535
 1089TIP3    H224759   3.320   5.056  11.250  0.7351  0.5490  0.8445
 1090TIP3   OH224760   5.108   5.677   5.890  0.3839  0.0566 -0.2386
 1090TIP3    H124761   5.184   5.692   5.834  0.3023  1.4701 -0.0187
 1090TIP3    H224762   5.046   5.745   5.863 -0.6649 -0.8679 -0.1791
 1091TIP3   OH224763   6.237   1.050   0.989 -0.0243  0.1279 -0.1883
 1091TIP3    H124764   6.332   1.041   0.997 -0.1763 -1.3371  0.2869
 1091TIP3    H224765   6.223   1.068   0.896  0.7054  0.0167 -0.3300
 1092TIP3   OH224766   5.449   1.465  11.825  0.7694  0.0107  0.2348
 1092TIP3    H124767   5.500   1.454  11.744 -0.8600 -0.6929 -0.7445
 1092TIP3    H224768   5.508   1.436  11.894  2.4245  1.1961 -0.6169
 1093TIP3   OH224769   4.059   3.062   2.973  0.0616 -0.3067  0.2219
 1093TIP3    H124770   3.982   3.033   2.925  1.5734  1.0249 -3.3764
 1093TIP3    H224771   4.115   2.985   2.979 -0.9695 -0.9915  1.8520
 1094TIP3   OH224772   4.816   3.961  16.159 -0.3224  0.1819 -0.3409
 1094TIP3    H124773   4.723   3.982  16.166 -0.0955  1.3098 -0.4529
 1094TIP3    H224774   4.856   4.041  16.125  0.7358 -0.1685  0.0307
 1095TIP3   OH224775   0.765   6.297  14.197 -0.3426  0.0129 -0.2867
 1095TIP3    H124776   0.830   6.227  14.203 -0.7645 -0.4189 -0.6909
 1095TIP3    H224777   0.712   6.288  14.276  0.1501  0.4294  0.0946
 1096TIP3   OH224778   2.743   2.467   4.233 -0.2093  0.1512 -0.2995
 1096TIP3    H124779   2.724   2.546   4.284 -0.6904  0.8864 -1.5616
 1096TIP3    H224780   2.765   2.401   4.298  0.9596  1.5208  0.7672
 1097TIP3   OH224781   1.853   4.456   4.021  0.3246  0.0221  0.0028
 1097TIP3    H124782   1.873   4.548   4.004  0.8608 -0.0595  0.1622
 1097TIP3    H224783   1.769   4.457   4.065  1.4308  0.6409  2.2324
 1098TIP3   OH224784   0.644   2.613  16.819 -0.1710 -0.3269 -0.2416
 1098TIP3    H124785   0.626   2.531  16.866 -0.0511  0.9744  2.2344
 1098TIP3    H224786   0.594   2.605  16.738  0.7771 -3.3226 -0.6505
 1099TIP3   OH224787   2.949   4.221   6.312 -0.2431 -0.0213 -0.6705
 1099TIP3    H124788   2.960   4.309   6.347  0.1026 -0.1466 -0.4638
 1099TIP3    H224789   2.968   4.162   6.385  0.8423 -0.2903 -1.1406
 1100TIP3   OH224790   2.276   6.506  13.635 -0.0943  0.2390  0.8259
 1100TIP3    H124791   2.289   6.596  13.664  2.1353  0.2252  0.0852
 1100TIP3    H224792   2.251   6.459  13.715 -0.1471  1.3060  1.4596
 1101TIP3   OH224793   0.346   2.285  16.519  0.8564 -0.3601  0.2455
 1101TIP3    H124794   0.268   2.236  16.546  1.6384 -1.0070  1.4291
 1101TIP3    H224795   0.314   2.345  16.451 -0.6276 -0.7425  0.5597
 1102TIP3   OH224796   4.719   2.878   4.467 -0.8351 -0.0221  0.1674
 1102TIP3    H124797   4.742   2.788   4.442 -0.0732  0.2154 -0.0114
 1102TIP3    H224798   4.631   2.871   4.504 -1.3809 -0.6084 -1.1919
 1103TIP3   OH224799   5.620   4.991  13.313  0.3005  0.7693 -0.2177
 1103TIP3    H124800   5.588   4.909  13.276  0.7716  1.6844 -2.8989
 1103TIP3    H224801   5.571   5.001  13.395 -0.0751 -1.9218 -0.0024
 1104TIP3   OH224802   5.471   2.587   5.169 -0.7801 -0.2154 -0.1015
 1104TIP3    H124803   5.548   2.628   5.208 -0.6983  0.6886 -1.1649
 1104TIP3    H224804   5.428   2.543   5.242  0.2327  0.0561  0.6889
 1105TIP3   OH224805   5.379   2.295  14.903 -0.0962  0.5722  0.1247
 1105TIP3    H124806   5.346   2.370  14.855 -1.4087  0.7094  1.1958
 1105TIP3    H224807   5.406   2.331  14.988  1.3410  0.1827 -0.1266
 1106TIP3   OH224808   4.679   3.982   4.513  0.0510  0.0217  0.2152
 1106TIP3    H124809   4.599   3.931   4.504 -0.5062  1.1754 -2.2545
 1106TIP3    H224810   4.699   4.011   4.424  2.2622  1.2085  1.0189
 1107TIP3   OH224811   4.648   3.341   6.098 -0.0369  0.3043  0.1443
 1107TIP3    H124812   4.723   3.383   6.140 -0.1997 -0.2295  0.9876
 1107TIP3    H224813   4.577   3.405   6.107 -0.0042  0.2978  0.4452
 1108TIP3   OH224814   5.203   2.472   4.392 -0.1983 -0.2833  0.0922
 1108TIP3    H124815   5.177   2.379   4.387  1.9249 -0.8771 -0.7347
 1108TIP3    H224816   5.251   2.478   4.474  1.6029 -0.4865 -0.9001
 1109TIP3   OH224817   3.892   4.993   0.160  0.3394  0.1128 -0.4631
 1109TIP3    H124818   3.916   5.080   0.192 -0.5883 -0.2578  1.3839
 1109TIP3    H224819   3.975   4.947   0.153  0.6361  0.2479  1.4654
 1110TIP3   OH224820   4.827   3.950  12.631 -0.0869  0.4990  0.2817
 1110TIP3    H124821   4.884   3.892  12.581  2.0598  2.5116  0.1836
 1110TIP3    H224822   4.767   3.987  12.566  1.3281  1.5296 -0.4851
 1111TIP3   OH224823   4.289   5.511  14.157 -0.1404  0.0573  0.2576
 1111TIP3    H124824   4.320   5.477  14.241 -0.0567  0.8639  0.5622
 1111TIP3    H224825   4.318   5.602  14.155 -0.8137  0.2749 -0.3036
 1112TIP3   OH224826   4.628   3.440   1.323  0.3112  0.5695 -0.0176
 1112TIP3    H124827   4.635   3.496   1.246  1.3102  0.8852  0.2822
 1112TIP3    H224828   4.719   3.431   1.354 -0.0658  0.4256  1.0933
 1113TIP3   OH224829   1.903   5.028  11.071  0.4176 -0.3932 -0.8211
 1113TIP3    H124830   1.993   4.998  11.058  0.2332 -1.5258  0.3467
 1113TIP3    H224831   1.909   5.124  11.072  1.7753 -0.4600  0.3133
 1114TIP3   OH224832   6.223   2.014  12.828 -0.0254 -0.1586  0.6567
 1114TIP3    H124833   6.172   1.934  12.817  0.8229 -0.7174  0.6621
 1114TIP3    H224834   6.187   2.075  12.764  0.0658 -0.9273 -0.1410
 1115TIP3   OH224835   4.493   2.363   0.754  0.4695 -0.1301  0.7620
 1115TIP3    H124836   4.470   2.301   0.823  3.0756 -1.2784  0.7128
 1115TIP3    H224837   4.588   2.374   0.762  0.9257 -0.4223 -2.7410
 1116TIP3   OH224838   3.677   0.906  16.095 -0.4639  0.3137  0.0708
 1116TIP3    H124839   3.614   0.836  16.080  0.0053  0.3215 -2.1879
 1116TIP3    H224840   3.709   0.929  16.008 -0.3437  3.1123  0.7465
 1117TIP3   OH224841   2.571   1.139  13.988 -0.0666  0.5496  0.1715
 1117TIP3    H124842   2.534   1.063  13.943 -1.3015  2.6246 -2.6603
 1117TIP3    H224843   2.503   1.206  13.981  0.3412  1.5543  3.9563
 1118TIP3   OH224844   3.196   2.565  10.693 -0.1138  0.3534  0.2159
 1118TIP3    H124845   3.133   2.506  10.652  1.3112  1.3681 -3.9560
 1118TIP3    H224846   3.270   2.508  10.716  0.1621  0.0391 -1.3030
 1119TIP3   OH224847   5.714   0.359  13.931  0.1091  0.4429  0.4956
 1119TIP3    H124848   5.684   0.274  13.964 -0.5931  1.1502  1.7652
 1119TIP3    H224849   5.804   0.343  13.904 -0.5632 -1.1344 -1.0405
 1120TIP3   OH224850   6.471   0.458  12.681  0.1305 -0.7006 -0.2815
 1120TIP3    H124851   6.416   0.425  12.752 -0.8216  1.5060  0.0924
 1120TIP3    H224852   6.409   0.482  12.612  0.9643 -1.7645 -1.4459
 1121TIP3   OH224853   1.275   0.411   2.085  0.0262  0.0774  0.2084
 1121TIP3    H124854   1.294   0.502   2.064  0.2929  0.5833  2.4763
 1121TIP3    H224855   1.188   0.395   2.047 -0.5254  1.6332  0.7690
 1122TIP3   OH224856   2.595   5.979  11.070 -0.4925  1.0369 -0.6857
 1122TIP3    H124857   2.533   5.907  11.082  0.8629 -0.4393 -1.9392
 1122TIP3    H224858   2.680   5.935  11.061  0.4087  2.8192 -1.2719
 1123TIP3   OH224859   6.748   1.698   2.577  0.1121  0.3112  0.1211
 1123TIP3    H124860   6.745   1.649   2.659  0.3139  0.7604  0.3998
 1123TIP3    H224861   6.675   1.663   2.525  0.0695 -0.0679  0.4338
 1124TIP3   OH224862   3.861   2.258  13.898  0.0579 -0.5758 -0.6365
 1124TIP3    H124863   3.789   2.285  13.954  0.3405 -0.2794 -0.4118
 1124TIP3    H224864   3.930   2.231  13.958  1.0092  1.3608 -0.7511
 1125TIP3   OH224865   6.220   3.593  14.480  0.0802  0.1019 -0.6949
 1125TIP3    H124866   6.197   3.574  14.571  0.0034 -2.3186 -1.1443
 1125TIP3    H224867   6.316   3.589  14.478  0.0343 -1.8630 -1.0350
 1126TIP3   OH224868   6.406   6.193  12.943  0.1252 -0.3109 -0.0445
 1126TIP3    H124869   6.471   6.126  12.924  2.3737  1.5330  0.7118
 1126TIP3    H224870   6.404   6.198  13.038  0.8006  1.3731 -0.0848
 1127TIP3   OH224871   1.754   3.978   3.267 -0.2785  0.0132  0.3433
 1127TIP3    H124872   1.752   3.884   3.288 -2.2181 -0.0452  0.0741
 1127TIP3    H224873   1.774   4.020   3.350 -1.5172 -0.5507  0.9481
 1128TIP3   OH224874   4.885   3.314  14.771 -0.2879  0.2777  0.0631
 1128TIP3    H124875   4.941   3.240  14.797 -0.9415  0.3879  1.9458
 1128TIP3    H224876   4.863   3.357  14.854 -0.7310  2.0131 -0.9136
 1129TIP3   OH224877   4.075   4.770  12.736 -0.2731  0.0654 -0.5190
 1129TIP3    H124878   4.132   4.727  12.671  0.1710 -0.9779  0.5228
 1129TIP3    H224879   4.134   4.792  12.808 -0.5186  2.3929 -0.9754
 1130TIP3   OH224880   3.557   2.963   4.415 -0.0708  0.1026 -0.0213
 1130TIP3    H124881   3.614   2.989   4.343  1.3748 -1.1105  0.6210
 1130TIP3    H224882   3.524   2.877   4.390 -2.8397  1.3452 -1.0233
 1131TIP3   OH224883   0.378   5.987  15.004  0.1276  0.7466 -0.0440
 1131TIP3    H124884   0.383   6.045  14.928 -1.3714  0.6200 -0.2622
 1131TIP3    H224885   0.361   5.900  14.967 -1.0343  0.7539  0.4235
 1132TIP3   OH224886   6.176   3.781  14.088  0.1205 -0.0055 -0.5724
 1132TIP3    H124887   6.101   3.767  14.030 -0.3352  0.3096 -0.0661
 1132TIP3    H224888   6.204   3.692  14.113 -2.0692 -0.1249  1.7587
 1133TIP3   OH224889   2.055   2.074  12.393 -0.1267  0.0307 -0.0199
 1133TIP3    H124890   2.024   2.040  12.310 -0.5933 -0.5715  0.3960
 1133TIP3    H224891   2.071   1.997  12.447  0.7634  0.3874  0.2502
 1134TIP3   OH224892   0.068   3.077  12.905 -0.0851 -0.5516  0.2005
 1134TIP3    H124893   0.048   3.165  12.875 -1.5488 -1.2528 -1.0555
 1134TIP3    H224894   0.018   3.067  12.986  1.0576  0.1702  1.0036
 1135TIP3   OH224895   6.633   5.489  16.800  0.0452 -0.1208 -0.1748
 1135TIP3    H124896   6.569   5.493  16.729 -1.4491  0.6675  1.1687
 1135TIP3    H224897   6.687   5.567  16.788  1.0478 -0.9604 -1.5100
 1136TIP3   OH224898   3.649   5.636   3.822 -0.2967 -0.1289  0.5108
 1136TIP3    H124899   3.679   5.640   3.913 -0.0910 -2.8203  0.6267
 1136TIP3    H224900   3.719   5.676   3.771  0.1839  0.2068  1.4176
 1137TIP3   OH224901   2.493   3.005  16.880  0.1303 -0.6602  0.2226
 1137TIP3    H124902   2.540   2.945  16.823 -0.9855 -0.4913 -0.9269
 1137TIP3    H224903   2.415   2.956  16.907 -0.0351 -0.2574  0.4839
 1138TIP3   OH224904   1.033   0.785   1.416  0.1357  0.0760  0.3156
 1138TIP3    H124905   1.072   0.845   1.480  1.1261 -0.4499  0.2256
 1138TIP3    H224906   1.009   0.708   1.467 -0.9931  0.4789  0.4040
 1139TIP3   OH224907   3.450   0.994  15.627  0.0077 -0.3386  0.2263
 1139TIP3    H124908   3.511   1.034  15.565  1.9202 -4.0404 -0.5915
 1139TIP3    H224909   3.384   0.952  15.572  0.0314 -1.1728  0.8157
 1140TIP3   OH224910   5.793   0.889   4.735  0.5937 -0.0742  0.5042
 1140TIP3    H124911   5.788   0.794   4.727  2.1377 -0.0537 -2.0569
 1140TIP3    H224912   5.705   0.920   4.716  0.6223 -0.9504 -1.2852
 1141TIP3   OH224913   0.859   1.999  16.292  0.4796 -0.6387 -0.4059
 1141TIP3    H124914   0.935   2.055  16.276  0.1009 -0.2335 -0.8209
 1141TIP3    H224915   0.820   2.034  16.372  0.7290 -0.8558 -0.1843
 1142TIP3   OH224916   3.489   5.615  15.155  0.0007  0.1945 -0.3377
 1142TIP3    H124917   3.414   5.674  15.153 -0.6305 -0.4250  2.1077
 1142TIP3    H224918   3.535   5.636  15.237  0.7753 -1.4701 -0.3070
 1143TIP3   OH224919   3.548   4.186  13.086 -0.4715  0.0559  0.6224
 1143TIP3    H124920   3.572   4.193  13.178 -1.6295  0.7690  0.8817
 1143TIP3    H224921   3.597   4.110  13.055  3.2468  2.1631  0.7219
 1144TIP3   OH224922   1.233   4.210   2.865 -0.3004 -0.3181  0.2869
 1144TIP3    H124923   1.224   4.151   2.940 -1.6416 -0.3253  0.1280
 1144TIP3    H224924   1.267   4.291   2.903 -1.0946 -0.2786  0.9233
 1145TIP3   OH224925   6.436   5.689   5.236  0.1222 -0.9816 -0.0337
 1145TIP3    H124926   6.390   5.608   5.258  0.6794 -1.8249 -1.7532
 1145TIP3    H224927   6.527   5.672   5.261  0.4170 -1.2706 -1.2513
 1146TIP3   OH224928   5.695   2.257  11.812 -0.1488  0.5644 -0.3271
 1146TIP3    H124929   5.608   2.252  11.852  0.3636  2.3225  1.1758
 1146TIP3    H224930   5.707   2.351  11.793  1.9799  0.6119  0.9174
 1147TIP3   OH224931   2.159   1.678  12.310 -0.1981  0.4266 -0.9040
 1147TIP3    H124932   2.204   1.737  12.250 -0.6046  0.1004 -1.5379
 1147TIP3    H224933   2.095   1.632  12.255 -1.3321  0.9047 -0.0283
 1148TIP3   OH224934   6.794   2.479  16.789  0.4372  0.1769 -0.4511
 1148TIP3    H124935   6.713   2.430  16.772  1.3816 -2.3831  1.7672
 1148TIP3    H224936   6.768   2.546  16.852  0.0553 -0.7600  0.4105
 1149TIP3   OH224937   0.194   1.211  15.396 -0.1125  0.6806 -0.8196
 1149TIP3    H124938   0.100   1.223  15.385  0.0354  2.4277 -0.3470
 1149TIP3    H224939   0.234   1.270  15.332  0.6799  0.1461 -0.8373
 1150TIP3   OH224940   2.032   1.482  11.872 -0.1259  0.1510 -0.0070
 1150TIP3    H124941   1.974   1.549  11.836 -0.3017  0.8742  1.5073
 1150TIP3    H224942   2.021   1.491  11.967  1.4931 -0.5803  0.2765
 1151TIP3   OH224943   2.800   5.742  13.576  0.4383  0.2707  0.5096
 1151TIP3    H124944   2.792   5.836  13.587  0.7168  0.2489  0.9536
 1151TIP3    H224945   2.881   5.730  13.525  0.9235  0.2394  1.2665
 1152TIP3   OH224946   6.379   0.855   5.791 -0.3923  0.1574 -0.0505
 1152TIP3    H124947   6.331   0.807   5.859  0.9916  0.7535  1.4278
 1152TIP3    H224948   6.446   0.794   5.761  1.2214  0.9710  1.6682
 1153TIP3   OH224949   0.969   0.506  14.280  0.2259  0.3867  0.1359
 1153TIP3    H124950   1.042   0.525  14.339 -0.7731  1.4593  1.0901
 1153TIP3    H224951   0.953   0.589  14.234 -0.6336  0.2949  0.2461
 1154TIP3   OH224952   6.048   4.127   6.668  0.4487  0.1572 -0.0046
 1154TIP3    H124953   6.089   4.166   6.591  1.3551 -0.9500 -0.1118
 1154TIP3    H224954   5.971   4.181   6.685  1.0340  1.2801 -0.8163
 1155TIP3   OH224955   2.753   0.688  15.328 -0.0838  0.3768 -0.2678
 1155TIP3    H124956   2.809   0.719  15.399 -0.6137  2.0139 -0.5233
 1155TIP3    H224957   2.774   0.595  15.320  0.2061  0.2286  1.8003
 1156TIP3   OH224958   1.522   2.973   1.133  0.3047 -0.2771 -0.3599
 1156TIP3    H124959   1.457   2.905   1.115  0.7343 -1.0677  0.9085
 1156TIP3    H224960   1.477   3.035   1.191 -0.0679  0.5138 -1.4677
 1157TIP3   OH224961   1.732   2.554  13.527 -0.3625 -0.2258 -0.7504
 1157TIP3    H124962   1.764   2.507  13.450 -2.1679 -2.6031 -0.1644
 1157TIP3    H224963   1.793   2.529  13.597  1.0560  1.6383 -1.2377
 1158TIP3   OH224964   4.927   3.073  16.911  0.2846 -0.0327  0.7252
 1158TIP3    H124965   4.863   3.054  16.980 -0.6816  0.8291  0.1155
 1158TIP3    H224966   5.006   3.097  16.958 -0.1539 -0.1121  1.5289
 1159TIP3   OH224967   6.651   4.099  16.023 -0.4289 -0.3288 -0.3705
 1159TIP3    H124968   6.572   4.118  15.975 -0.9962 -1.3898  0.0953
 1159TIP3    H224969   6.719   4.091  15.956 -1.0030 -0.7956 -0.9104
 1160TIP3   OH224970   6.815   4.580  15.635 -0.2845  0.0299  0.5226
 1160TIP3    H124971   6.876   4.628  15.580 -0.0724 -0.0771  0.6610
 1160TIP3    H224972   6.774   4.646  15.690 -1.2028  0.2634 -0.4212
 1161TIP3   OH224973   2.134   1.279   5.851  0.2716 -0.0439  0.2777
 1161TIP3    H124974   2.135   1.343   5.922 -0.2893  1.3577 -0.9144
 1161TIP3    H224975   2.106   1.197   5.892  1.6899  0.2810  1.9831
 1162TIP3   OH224976   0.813   1.676   5.345  0.0876  0.2135  0.5268
 1162TIP3    H124977   0.800   1.715   5.431 -2.6704 -0.4136  0.4759
 1162TIP3    H224978   0.803   1.582   5.359  1.7491 -0.1174 -0.1765
 1163TIP3   OH224979   1.549   4.734  13.561  0.3143 -0.5690  0.1471
 1163TIP3    H124980   1.600   4.731  13.642  1.3278 -1.0776 -0.5033
 1163TIP3    H224981   1.573   4.654  13.514 -0.3539 -0.3351 -0.6115
 1164TIP3   OH224982   4.024   6.365   4.351 -0.0255  0.2542 -0.5577
 1164TIP3    H124983   4.030   6.458   4.329  0.2594  0.4122  0.1674
 1164TIP3    H224984   4.098   6.349   4.409  0.0859 -0.4921 -0.9015
 1165TIP3   OH224985   4.828   2.805   0.121 -0.2523  0.5786 -0.4211
 1165TIP3    H124986   4.860   2.866   0.188 -2.2519  0.9284  0.2838
 1165TIP3    H224987   4.905   2.784   0.069  0.7307  2.8259  0.0203
 1166TIP3   OH224988   5.836   5.412  12.804  0.1823 -0.1517 -0.1425
 1166TIP3    H124989   5.810   5.320  12.812  2.8560 -0.7976  2.4047
 1166TIP3    H224990   5.769   5.460  12.852 -1.6910 -0.5492 -2.1668
 1167TIP3   OH224991   2.376   0.493  16.250  0.1040  0.2102 -0.5145
 1167TIP3    H124992   2.449   0.527  16.198  0.6922  0.2104  0.2762
 1167TIP3    H224993   2.418   0.462  16.331 -0.6328 -0.8371 -0.5174
 1168TIP3   OH224994   2.799   5.521  15.335 -0.0301 -0.1867 -0.5014
 1168TIP3    H124995   2.765   5.468  15.263 -0.5943  0.6016 -0.8344
 1168TIP3    H224996   2.846   5.592  15.292  0.7845 -0.4446 -0.0622
 1169TIP3   OH224997   6.605   3.128  15.914  0.1944 -0.3565 -0.3828
 1169TIP3    H124998   6.542   3.185  15.956 -0.3481 -1.1972 -0.0344
 1169TIP3    H224999   6.685   3.137  15.966  0.0429 -0.0958 -0.1959
 1170TIP3   OH225000   2.691   0.251  15.201  0.2041 -0.0035 -0.4865
 1170TIP3    H125001   2.650   0.166  15.213 -1.4251  0.4989 -2.0902
 1170TIP3    H225002   2.719   0.252  15.109 -1.8334  1.9652 -1.1790
 1171TIP3   OH225003   2.515   6.254  11.616 -0.3759  0.2111  0.1307
 1171TIP3    H125004   2.488   6.335  11.573 -3.5321 -1.2361 -0.8719
 1171TIP3    H225005   2.478   6.259  11.704 -1.4519 -0.5201 -0.2628
 1172TIP3   OH225006   3.560   5.953   0.288 -0.0979  0.1209 -0.5548
 1172TIP3    H125007   3.465   5.958   0.278 -0.1712  1.1923  0.3865
 1172TIP3    H225008   3.585   5.875   0.239 -1.8157 -1.9307  1.5802
 1173TIP3   OH225009   6.702   6.225   0.951  0.4073 -0.5533 -0.0303
 1173TIP3    H125010   6.797   6.234   0.958  0.6871 -2.2496 -1.1404
 1173TIP3    H225011   6.674   6.200   1.040  1.1052 -0.8677  0.1058
 1174TIP3   OH225012   3.289   0.749  13.901 -0.4407 -0.0884 -0.0581
 1174TIP3    H125013   3.330   0.830  13.870  0.4307 -0.4352  0.1533
 1174TIP3    H225014   3.221   0.731  13.837  0.9392 -0.4797 -1.4809
 1175TIP3   OH225015   4.531   2.502   3.090 -0.1436  0.2849  0.3313
 1175TIP3    H125016   4.614   2.503   3.042  1.8874 -1.1186  3.5079
 1175TIP3    H225017   4.549   2.450   3.168 -4.8274 -2.4733 -0.0725
 1176TIP3   OH225018   5.411   6.694  16.394  0.3633  0.7871 -0.0943
 1176TIP3    H125019   5.325   6.735  16.405 -0.2360 -0.7946  1.6402
 1176TIP3    H225020   5.468   6.741  16.454 -0.0211 -0.0443  0.9470
 1177TIP3   OH225021   6.143   1.811  12.106  0.1304  0.1538 -0.4868
 1177TIP3    H125022   6.153   1.885  12.047 -1.0698  2.0726  1.5581
 1177TIP3    H225023   6.199   1.831  12.181  0.0573 -1.1728 -0.0417
 1178TIP3   OH225024   2.254   1.638  16.105  0.0308 -0.6869 -0.2231
 1178TIP3    H125025   2.203   1.596  16.036  1.9146 -1.9407 -0.9271
 1178TIP3    H225026   2.216   1.604  16.187 -2.8811  1.5822 -0.4642
 1179TIP3   OH225027   0.177   0.776   4.084  0.2514 -0.2899 -0.2090
 1179TIP3    H125028   0.240   0.800   4.151  1.1554 -2.0770 -0.3771
 1179TIP3    H225029   0.227   0.777   4.002  0.2803 -2.3219 -0.2648
 1180TIP3   OH225030   4.211   4.985  11.161  0.7203 -0.3874  0.1672
 1180TIP3    H125031   4.209   4.990  11.256 -1.1656  0.4474  0.1429
 1180TIP3    H225032   4.301   5.007  11.137  0.9356  0.5608  1.7171
 1181TIP3   OH225033   1.598   1.710  13.110  0.3089  0.1569 -0.0760
 1181TIP3    H125034   1.662   1.755  13.164  2.0006  0.0872 -1.9029
 1181TIP3    H225035   1.622   1.617  13.116 -1.0025 -0.1462  0.9218
 1182TIP3   OH225036   6.831   2.183  15.699  0.4626 -0.4767 -0.0748
 1182TIP3    H125037   6.849   2.210  15.609 -0.0881 -0.0746 -0.0644
 1182TIP3    H225038   6.918   2.178  15.740  1.0100 -3.1100 -1.2844
 1183TIP3   OH225039   0.642   5.329   0.651  0.6563 -0.3028 -0.3796
 1183TIP3    H125040   0.563   5.286   0.683  0.7699 -0.5122 -0.3749
 1183TIP3    H225041   0.674   5.271   0.582  0.3644  0.1895 -0.9371
 1184TIP3   OH225042   1.671   5.159  16.785 -0.4386 -0.2323 -0.2391
 1184TIP3    H125043   1.657   5.241  16.833 -0.6215 -0.5684  0.2889
 1184TIP3    H225044   1.660   5.090  16.851 -2.5923 -0.8285 -1.1364
 1185TIP3   OH225045   1.591   6.863   5.506  0.0657  0.2067 -0.0454
 1185TIP3    H125046   1.554   6.775   5.510 -0.6868  0.5601  1.4158
 1185TIP3    H225047   1.565   6.904   5.588 -1.0716  2.3779 -1.3869
 1186TIP3   OH225048   5.280   0.718  11.351  0.1138 -0.1735  0.7159
 1186TIP3    H125049   5.353   0.773  11.379  0.4759 -0.0685 -0.3816
 1186TIP3    H225050   5.244   0.763  11.275  0.2875 -1.3403 -0.0782
 1187TIP3   OH225051   3.739   4.672   2.900 -0.1759  0.1181  0.4349
 1187TIP3    H125052   3.670   4.606   2.896  0.6476 -0.8355  1.2170
 1187TIP3    H225053   3.720   4.722   2.980  0.8497 -1.1315  1.5049
 1188TIP3   OH225054   1.846   4.256  16.427  0.1409  0.3358  0.3909
 1188TIP3    H125055   1.869   4.277  16.517 -1.1202 -0.1401  0.8437
 1188TIP3    H225056   1.792   4.177  16.434 -0.4634  0.6380 -0.7260
 1189TIP3   OH225057   5.956   0.749   0.488 -0.1460 -0.1939  0.4030
 1189TIP3    H125058   5.948   0.771   0.395 -0.4273  0.8432  0.6694
 1189TIP3    H225059   6.049   0.761   0.508 -0.1443 -0.1112  0.3401
 1190TIP3   OH225060   1.940   6.215  10.313 -0.3261 -0.6585  0.1144
 1190TIP3    H125061   1.845   6.205  10.306 -0.2230 -1.4182 -0.2764
 1190TIP3    H225062   1.964   6.271  10.239 -0.0555 -3.3656 -2.0145
 1191TIP3   OH225063   5.519   0.572  12.727 -0.9630 -0.4002 -0.4416
 1191TIP3    H125064   5.543   0.514  12.800  1.1545  0.8474 -0.0438
 1191TIP3    H225065   5.499   0.513  12.655 -2.8347 -1.6702  1.0169
 1192TIP3   OH225066   1.047   4.380  14.438  0.1364  0.3091 -0.0780
 1192TIP3    H125067   0.998   4.452  14.398 -0.3916  0.1535  0.2843
 1192TIP3    H225068   1.136   4.392  14.405  0.0863  1.2020  0.0709
 1193TIP3   OH225069   0.247   1.419  15.214  0.0147  0.2653  0.1373
 1193TIP3    H125070   0.336   1.454  15.218  1.0710 -2.2804  0.5221
 1193TIP3    H225071   0.192   1.497  15.203  2.2536  1.9241 -0.1566
 1194TIP3   OH225072   2.930   2.881  10.187 -0.2791 -0.0005  0.1252
 1194TIP3    H125073   2.894   2.805  10.142  0.2888 -0.9537  1.2261
 1194TIP3    H225074   2.856   2.917  10.237 -0.4674 -0.0328 -0.1288
 1195TIP3   OH225075   4.665   1.951   4.229  0.3388 -0.3499  0.4084
 1195TIP3    H125076   4.590   1.946   4.288 -0.2040  0.4651 -0.1980
 1195TIP3    H225077   4.638   1.901   4.152  1.3819 -2.1827  1.1573
 1196TIP3   OH225078   5.194   0.243  15.433  0.1471  0.0117  0.1591
 1196TIP3    H125079   5.141   0.181  15.382 -0.1320 -0.4722  1.0060
 1196TIP3    H225080   5.278   0.245  15.388 -0.5699  0.7613 -1.1842
 1197TIP3   OH225081   6.275   4.211  13.858 -0.6245  0.3781  0.1569
 1197TIP3    H125082   6.205   4.209  13.792  0.0933  1.7900 -0.6858
 1197TIP3    H225083   6.354   4.187  13.810 -0.4570 -1.0796  1.0813
 1198TIP3   OH225084   4.287   4.318   5.294 -0.3570  0.2539  0.2308
 1198TIP3    H125085   4.272   4.406   5.328 -3.7893  0.3461 -1.0896
 1198TIP3    H225086   4.219   4.306   5.227  2.1047 -2.1753 -2.1156
 1199TIP3   OH225087   6.281   1.037   5.568 -0.1217 -0.0736  0.8201
 1199TIP3    H125088   6.191   1.068   5.583 -0.1276 -0.2212  1.0950
 1199TIP3    H225089   6.310   1.007   5.653  0.0411 -0.4227  0.6420
 1200TIP3   OH225090   2.067   6.282  15.777 -0.0319 -0.1363  0.0960
 1200TIP3    H125091   2.146   6.337  15.770 -0.5928  0.5164 -1.7493
 1200TIP3    H225092   1.999   6.332  15.731 -0.6562 -2.1920 -1.3442
 1201TIP3   OH225093   6.060   6.241   5.887  0.0339 -0.5202  0.0577
 1201TIP3    H125094   5.971   6.263   5.858  0.2168  0.8202  0.4526
 1201TIP3    H225095   6.080   6.306   5.954  1.6155 -0.2682 -0.6113
 1202TIP3   OH225096   1.565   1.677  15.898 -0.2759 -0.1589 -0.1548
 1202TIP3    H125097   1.642   1.621  15.907 -0.0811  0.2627  0.8804
 1202TIP3    H225098   1.541   1.701  15.987 -2.6353 -1.6311 -0.3103
 1203TIP3   OH225099   0.273   1.411  15.962 -0.0732  0.1491 -0.0175
 1203TIP3    H125100   0.270   1.383  16.053  0.7302 -0.9033 -0.2979
 1203TIP3    H225101   0.340   1.356  15.922 -0.8391  0.1589 -1.3878
 1204TIP3   OH225102   3.424   4.763   2.873 -0.4721 -0.1413 -0.1629
 1204TIP3    H125103   3.342   4.790   2.832 -0.8913 -0.7272  0.2653
 1204TIP3    H225104   3.421   4.801   2.961  0.9659  2.1326 -0.9881
 1205TIP3   OH225105   5.188   3.541  14.929  0.3338 -0.3260  0.6551
 1205TIP3    H125106   5.275   3.517  14.963  0.2402 -0.3864  0.8521
 1205TIP3    H225107   5.130   3.533  15.004  0.3695  0.9288  0.8394
 1206TIP3   OH225108   2.096   1.304  15.270 -0.6084  0.3198  0.0094
 1206TIP3    H125109   2.122   1.290  15.361 -2.2433  0.9099  0.5890
 1206TIP3    H225110   2.099   1.217  15.230 -0.0826  0.0318  0.6611
 1207TIP3   OH225111   0.019   1.640  14.664  0.3219  0.0148  0.0162
 1207TIP3    H125112  -0.008   1.550  14.683  0.6408 -0.0155  0.3392
 1207TIP3    H225113   0.112   1.643  14.690  0.0291  0.7313  1.0397
 1208TIP3   OH225114   2.914   3.928  10.693  0.0182 -0.1840  0.1301
 1208TIP3    H125115   2.972   3.870  10.644  0.4113  0.8219 -0.6218
 1208TIP3    H225116   2.937   4.016  10.664 -0.9416  0.3271  0.8463
 1209TIP3   OH225117   3.600   4.255  10.989  0.0939 -0.3339 -0.0948
 1209TIP3    H125118   3.621   4.284  10.901 -1.5354 -0.5153 -0.5714
 1209TIP3    H225119   3.630   4.327  11.046  0.2353  0.2350 -0.8791
 1210TIP3   OH225120   5.174   4.927  10.488  0.1013  0.3796  0.4434
 1210TIP3    H125121   5.186   4.910  10.394  1.0784 -0.0590  0.6356
 1210TIP3    H225122   5.262   4.916  10.526  0.0734  2.2552  1.1602
 1211TIP3   OH225123   3.461   6.237   3.091  0.3164  0.1822  0.2839
 1211TIP3    H125124   3.542   6.255   3.139  0.4089  1.7446 -0.3908
 1211TIP3    H225125   3.399   6.303   3.123  0.3888  1.2862 -1.7114
 1212TIP3   OH225126   4.495   4.573   4.529 -0.8049 -0.2567  0.2075
 1212TIP3    H125127   4.585   4.579   4.497 -0.4528 -0.4774  1.1369
 1212TIP3    H225128   4.501   4.526   4.612 -1.9065 -1.2319 -0.2254
 1213TIP3   OH225129   5.738   4.272  12.548 -0.1848 -0.0014  0.0563
 1213TIP3    H125130   5.828   4.302  12.536  0.0958 -0.9585 -0.3637
 1213TIP3    H225131   5.684   4.348  12.525  0.5014  0.3500 -0.4422
 1214TIP3   OH225132   5.702   2.124  12.707  0.3514  0.3001  0.2571
 1214TIP3    H125133   5.682   2.078  12.625  0.2596  0.6956  0.0561
 1214TIP3    H225134   5.712   2.216  12.682  1.1933  0.3036  0.5443
 1215TIP3   OH225135   0.077   2.432  13.639  0.3376 -0.0751 -0.6725
 1215TIP3    H125136   0.073   2.458  13.731  1.8401  0.9195 -0.8411
 1215TIP3    H225137   0.092   2.337  13.642  0.3842 -0.0508  0.1142
 1216TIP3   OH225138   0.837   5.452  13.823  0.0360 -0.5074 -0.7979
 1216TIP3    H125139   0.818   5.489  13.737 -1.8802 -1.3581 -0.7882
 1216TIP3    H225140   0.752   5.424  13.856  0.7259 -0.1075  1.4331
 1217TIP3   OH225141   5.970   0.625  13.855  0.5259 -0.0878  0.2479
 1217TIP3    H125142   5.905   0.665  13.912 -0.1000  0.2117 -0.6518
 1217TIP3    H225143   5.976   0.683  13.779  1.1669 -0.5884 -0.1031
 1218TIP3   OH225144   6.627   0.147  13.795 -0.1730  0.0014 -0.0176
 1218TIP3    H125145   6.646   0.118  13.705 -1.0686 -0.9447  0.0724
 1218TIP3    H225146   6.540   0.187  13.788 -1.4508 -2.4127  0.8378
 1219TIP3   OH225147   3.640   2.298  12.802 -0.3502  0.6144 -0.4541
 1219TIP3    H125148   3.655   2.342  12.718  0.6035 -0.6646 -0.9855
 1219TIP3    H225149   3.723   2.306  12.849 -0.7156  0.8618  0.1566
 1220TIP3   OH225150   5.421   6.294   3.884 -0.2265 -0.0439 -0.3787
 1220TIP3    H125151   5.451   6.363   3.943 -0.9091  0.2425 -0.3478
 1220TIP3    H225152   5.422   6.214   3.938 -1.1702  0.2772  0.1371
 1221TIP3   OH225153   4.449   4.890   5.430 -0.9374  0.1895 -0.4235
 1221TIP3    H125154   4.512   4.865   5.498  0.2766  0.6728 -1.3303
 1221TIP3    H225155   4.400   4.963   5.468  0.5893  1.2949 -0.4943
 1222TIP3   OH225156   2.878   3.897  16.415 -0.6739 -0.0625  0.2770
 1222TIP3    H125157   2.973   3.901  16.428 -0.6385  0.8532 -0.1831
 1222TIP3    H225158   2.860   3.805  16.393  0.5006  0.2680 -2.4368
 1223TIP3   OH225159   4.440   0.578  16.830  0.2005 -0.3936 -0.3307
 1223TIP3    H125160   4.460   0.510  16.766 -1.0963 -1.8982  0.8022
 1223TIP3    H225161   4.495   0.557  16.906 -0.2232 -0.1861  0.0379
 1224TIP3   OH225162   0.841   6.172   6.187  0.0725 -0.1335 -0.1890
 1224TIP3    H125163   0.791   6.253   6.195 -0.4460 -0.2975 -1.5136
 1224TIP3    H225164   0.863   6.148   6.277  0.7750  1.8033  0.2008
 1225TIP3   OH225165   2.114   4.096   1.827 -0.2767  0.2528 -0.0109
 1225TIP3    H125166   2.189   4.107   1.770 -1.7036  0.0037 -2.0383
 1225TIP3    H225167   2.070   4.018   1.794 -1.9711  0.9627  0.4575
 1226TIP3   OH225168   2.522   4.006   4.241  0.4228  0.7337  0.0244
 1226TIP3    H125169   2.593   4.069   4.240 -1.6164  3.3058  1.9466
 1226TIP3    H225170   2.549   3.939   4.304  0.5737  2.5179  1.9529
 1227TIP3   OH225171   4.167   6.421  12.263 -0.0835 -0.3391  0.0555
 1227TIP3    H125172   4.124   6.350  12.312  0.9666 -1.2015 -0.2455
 1227TIP3    H225173   4.101   6.490  12.259 -0.2560 -0.2586  2.6129
 1228TIP3   OH225174   2.803   6.015  15.105 -0.2382 -0.1387  0.8599
 1228TIP3    H125175   2.717   5.978  15.086 -0.4128  0.6314  0.1172
 1228TIP3    H225176   2.785   6.081  15.173 -0.0748 -0.6717  1.4352
 1229TIP3   OH225177   2.094   4.715  11.126 -0.1515  0.0343 -0.4230
 1229TIP3    H125178   2.128   4.773  11.058  0.9203 -0.0890 -0.0050
 1229TIP3    H225179   2.071   4.635  11.079 -0.9822  0.5193 -0.8897
 1230TIP3   OH225180   4.484   4.647  12.743 -0.6124 -0.3504  0.0076
 1230TIP3    H125181   4.523   4.733  12.756 -1.8126  0.2138 -0.0226
 1230TIP3    H225182   4.418   4.640  12.811  0.0593 -1.6241  0.5669
 1231TIP3   OH225183   6.720   4.266  15.391  0.1256  0.3568 -0.7482
 1231TIP3    H125184   6.649   4.219  15.346  1.6399 -1.6305 -1.1988
 1231TIP3    H225185   6.741   4.212  15.466  0.4863  1.4768 -0.0225
 1232TIP3   OH225186   3.460   3.142   0.699 -0.1577  0.1739 -0.4328
 1232TIP3    H125187   3.428   3.195   0.626 -1.0807  0.1447 -0.0748
 1232TIP3    H225188   3.495   3.206   0.762 -1.7862  0.4492  0.2498
 1233TIP3   OH225189   5.563   5.082   4.845  0.5271 -0.1479  0.2209
 1233TIP3    H125190   5.640   5.088   4.789 -0.3317  0.5362 -0.9443
 1233TIP3    H225191   5.489   5.093   4.785 -0.4921 -1.0272  1.2690
 1234TIP3   OH225192   0.046   1.388   1.974 -0.1967  0.2352 -0.1327
 1234TIP3    H125193   0.003   1.366   2.057 -1.6787 -1.4473 -1.2728
 1234TIP3    H225194   0.110   1.455   1.998 -0.5086 -0.2437  2.3760
 1235TIP3   OH225195   4.852   0.685  14.844 -0.1070  0.1131 -0.3024
 1235TIP3    H125196   4.824   0.742  14.773 -2.1748 -0.3404  0.1054
 1235TIP3    H225197   4.805   0.716  14.921  1.2068 -0.1429  0.6391
 1236TIP3   OH225198   6.488   0.921   1.096 -0.0926  0.2198  0.1953
 1236TIP3    H125199   6.534   0.924   1.012  0.0230  2.6331  0.2657
 1236TIP3    H225200   6.433   0.843   1.091 -0.1448  0.3448 -2.1395
 1237TIP3   OH225201   6.838   4.956   5.766 -0.3211 -0.1659 -0.0133
 1237TIP3    H125202   6.892   5.028   5.733 -0.6986  1.4636  2.5899
 1237TIP3    H225203   6.748   4.984   5.749 -0.4679 -0.0414  0.9033
 1238TIP3   OH225204   4.266   5.919   4.005 -0.3359 -0.3039  0.1618
 1238TIP3    H125205   4.202   5.984   3.977  0.4013 -0.4450 -2.0689
 1238TIP3    H225206   4.341   5.971   4.034  0.0670 -0.1139 -1.1519
 1239TIP3   OH225207   1.724   0.876  14.336 -0.2686 -0.1007 -0.4870
 1239TIP3    H125208   1.779   0.903  14.410 -0.0170 -0.6662 -0.4568
 1239TIP3    H225209   1.759   0.925  14.261  0.3872 -0.5614 -0.4973
 1240TIP3   OH225210   4.669   0.079   4.426 -0.2978 -0.3063 -0.0934
 1240TIP3    H125211   4.678   0.088   4.331 -2.4555  3.4501 -0.1666
 1240TIP3    H225212   4.583   0.041   4.439  0.3235 -1.5869  0.4162
 1241TIP3   OH225213   1.895   1.818   1.650 -0.0114  0.3164  0.6557
 1241TIP3    H125214   1.912   1.893   1.593 -0.2264 -0.1626 -0.0419
 1241TIP3    H225215   1.930   1.846   1.735 -0.6590  1.4577  0.5722
 1242TIP3   OH225216   2.438   6.180  16.847 -0.1677  0.5681  0.4251
 1242TIP3    H125217   2.451   6.234  16.769  0.9427 -1.2878 -0.7548
 1242TIP3    H225218   2.343   6.173  16.856 -0.3185  1.3284 -0.3780
 1243TIP3   OH225219   5.362   2.361   0.467  0.0079  0.0392 -0.3098
 1243TIP3    H125220   5.323   2.283   0.508  2.2314 -1.7613 -1.3917
 1243TIP3    H225221   5.316   2.371   0.385  0.5035 -0.9207 -0.7195
 1244TIP3   OH225222   3.719   2.444   5.311 -0.0241  0.2521  0.4376
 1244TIP3    H125223   3.792   2.398   5.268 -0.1188  0.9661 -0.5109
 1244TIP3    H225224   3.643   2.388   5.295 -0.0693  0.5284 -0.4052
 1245TIP3   OH225225   1.924   4.571  11.913 -0.8042  0.0011 -0.2074
 1245TIP3    H125226   1.856   4.567  11.845 -0.6774  2.1607 -0.5236
 1245TIP3    H225227   2.001   4.606  11.868 -0.1911 -0.1641  0.6816
 1246TIP3   OH225228   5.375   5.069   2.041  0.2635 -0.0754 -0.3081
 1246TIP3    H125229   5.465   5.053   2.068 -0.0685 -0.3719  0.7012
 1246TIP3    H225230   5.322   5.015   2.101 -0.6010  0.5002 -0.5282
 1247TIP3   OH225231   3.042   6.669   3.503 -0.0235  0.2167  0.2746
 1247TIP3    H125232   2.950   6.689   3.488  0.3108  0.3639 -2.1353
 1247TIP3    H225233   3.042   6.592   3.559 -1.6704 -0.5211 -0.6713
 1248TIP3   OH225234   6.211   6.468   2.708  0.1262 -0.4691  0.2235
 1248TIP3    H125235   6.256   6.399   2.659  0.2964 -0.7335  0.7456
 1248TIP3    H225236   6.278   6.535   2.723 -0.4229  0.5719 -1.6658
 1249TIP3   OH225237   1.098   3.128  11.613 -0.5840  0.3160 -0.4694
 1249TIP3    H125238   1.114   3.160  11.702 -1.0947  1.3186 -0.7218
 1249TIP3    H225239   1.151   3.185  11.557 -1.1155  0.3979 -0.8938
 1250TIP3   OH225240   2.153   1.388   4.306 -0.2502 -0.0223 -0.4876
 1250TIP3    H125241   2.092   1.339   4.362 -0.6530  0.2222 -0.7009
 1250TIP3    H225242   2.107   1.471   4.288  0.0264  0.0484 -0.8829
 1251TIP3   OH225243   5.579   3.766   3.117  0.1565  0.3130  0.0621
 1251TIP3    H125244   5.541   3.851   3.094  2.0134  0.9622 -0.8250
 1251TIP3    H225245   5.521   3.701   3.077 -0.0633  1.2475 -1.1957
 1252TIP3   OH225246   6.706   6.334   3.454  0.0338  0.1323  0.0261
 1252TIP3    H125247   6.656   6.256   3.432  0.0910 -0.4521  1.7810
 1252TIP3    H225248   6.724   6.376   3.370 -0.0663 -1.6861 -0.9480
 1253TIP3   OH225249   1.201   6.813  15.075  0.1531  0.0434 -0.1605
 1253TIP3    H125250   1.217   6.864  14.996 -2.7722 -0.0584 -0.9156
 1253TIP3    H225251   1.160   6.875  15.136  1.6736 -0.0714  1.0465
 1254TIP3   OH225252   2.167   4.070   3.748  0.1795 -0.3592  0.0397
 1254TIP3    H125253   2.171   3.993   3.805 -0.8449 -1.7672 -1.6827
 1254TIP3    H225254   2.258   4.087   3.724  0.3080 -2.2308 -0.9962
 1255TIP3   OH225255   2.588   1.665   1.483  0.1747  0.2943 -0.3919
 1255TIP3    H125256   2.643   1.626   1.551 -0.6171  0.1532  0.1845
 1255TIP3    H225257   2.513   1.701   1.531 -0.4552  0.0899 -1.2002
 1256TIP3   OH225258   4.673   4.578   3.548  0.2873  0.4876  0.5868
 1256TIP3    H125259   4.645   4.489   3.569  0.3092  0.2125 -0.4807
 1256TIP3    H225260   4.614   4.635   3.598 -1.0228 -0.1108 -0.2138
 1257TIP3   OH225261   1.783   6.593  12.690 -0.0329  0.3225  0.3108
 1257TIP3    H125262   1.850   6.608  12.757 -0.1589  0.6646  0.3608
 1257TIP3    H225263   1.826   6.613  12.607 -0.0535  0.4807  0.3382
 1258TIP3   OH225264   6.828   2.492   3.292  0.2870 -0.3227 -0.1803
 1258TIP3    H125265   6.821   2.406   3.332  1.8465  0.4154  1.8203
 1258TIP3    H225266   6.841   2.552   3.365 -1.6352  1.7941 -1.4236
 1259TIP3   OH225267   5.584   3.181  16.639  0.0838 -0.4380  0.8057
 1259TIP3    H125268   5.550   3.250  16.697 -0.2089 -0.8586  1.1404
 1259TIP3    H225269   5.623   3.229  16.566 -0.5340  0.0829  0.7988
 1260TIP3   OH225270   4.831   6.466  12.978  0.2767  0.3782  0.6157
 1260TIP3    H125271   4.805   6.429  12.894  1.5517  1.5237 -0.3541
 1260TIP3    H225272   4.776   6.423  13.043 -1.1931 -0.0765 -0.8757
 1261TIP3   OH225273   1.336   6.178  15.952 -0.0183 -0.3365  0.0485
 1261TIP3    H125274   1.262   6.139  15.906  1.3381 -0.9088 -1.8067
 1261TIP3    H225275   1.370   6.107  16.008 -0.3516 -0.3403  0.2471
 1262TIP3   OH225276   2.689   2.992  15.526 -0.7859 -0.2825 -0.5021
 1262TIP3    H125277   2.719   2.960  15.611 -1.6741  0.5852  0.1677
 1262TIP3    H225278   2.627   3.062  15.547 -1.0639 -0.0795 -1.8679
 1263TIP3   OH225279   6.216   1.261  13.895  0.3811 -0.3474 -0.4422
 1263TIP3    H125280   6.267   1.256  13.814  3.1329  1.7676  0.9728
 1263TIP3    H225281   6.250   1.191  13.949  0.4222 -0.1229 -0.1765
 1264TIP3   OH225282   1.360   4.371  12.590 -0.3017 -0.3006  0.4901
 1264TIP3    H125283   1.330   4.462  12.590 -0.3197 -0.2898 -0.6933
 1264TIP3    H225284   1.308   4.329  12.659 -0.4488  0.5230  0.9026
 1265TIP3   OH225285   2.171   0.545  12.425 -0.0936  0.0295 -0.0434
 1265TIP3    H125286   2.144   0.606  12.494  0.4356  1.0478 -0.7202
 1265TIP3    H225287   2.140   0.585  12.344  0.7419 -0.3302 -0.5466
 1266TIP3   OH225288   3.571   0.158  11.732  0.2338 -0.5940 -0.1056
 1266TIP3    H125289   3.501   0.220  11.712 -0.2079 -0.7085  1.0044
 1266TIP3    H225290   3.652   0.208  11.722 -0.1183  0.1950  0.8277
 1267TIP3   OH225291   6.743   0.338   1.247 -0.3193  0.0792 -0.3352
 1267TIP3    H125292   6.799   0.360   1.322 -0.1201 -0.0214 -0.4523
 1267TIP3    H225293   6.677   0.407   1.245 -1.0057 -0.5316  0.6155
 1268TIP3   OH225294   2.305   1.574  13.507  0.1914 -0.0631 -0.2879
 1268TIP3    H125295   2.334   1.595  13.595  0.1644 -1.0335 -0.0302
 1268TIP3    H225296   2.330   1.482  13.495 -1.8481 -0.6564 -0.4128
 1269TIP3   OH225297   0.153   2.409   4.990  0.4881 -0.4138  0.1427
 1269TIP3    H125298   0.229   2.461   5.016 -0.3849  0.4080  1.0986
 1269TIP3    H225299   0.083   2.473   4.978 -0.2042 -1.2148 -0.1879
 1270TIP3   OH225300   0.500   6.178  16.156  0.5675 -0.2448  0.0531
 1270TIP3    H125301   0.455   6.093  16.160  0.2321 -0.0097  1.4514
 1270TIP3    H225302   0.545   6.186  16.240  3.0903 -0.3638 -1.1981
 1271TIP3   OH225303   4.900   6.375  15.724  0.4186  0.2326  0.2630
 1271TIP3    H125304   4.853   6.300  15.760  0.1144 -0.1638 -0.9288
 1271TIP3    H225305   4.860   6.451  15.766  1.0706 -0.2795  1.8692
 1272TIP3   OH225306   3.315   5.907   3.333  0.5476  0.0939  0.2501
 1272TIP3    H125307   3.336   5.970   3.402  0.6374  1.6844 -1.1552
 1272TIP3    H225308   3.396   5.897   3.284  0.3062 -0.4925 -0.0366
 1273TIP3   OH225309   6.157   4.240   5.252 -0.1312 -0.6345  0.2865
 1273TIP3    H125310   6.243   4.245   5.293  0.2787  2.3633 -0.6730
 1273TIP3    H225311   6.103   4.303   5.301 -1.2033 -1.0160 -0.3550
 1274TIP3   OH225312   4.509   3.436  12.814 -0.7498 -0.0749  1.3654
 1274TIP3    H125313   4.500   3.489  12.893 -0.5188 -0.7052  1.8247
 1274TIP3    H225314   4.602   3.416  12.809 -0.6119  0.7399  0.4100
 1275TIP3   OH225315   0.522   6.168  14.836  0.0436  0.6043  0.1237
 1275TIP3    H125316   0.502   6.112  14.761 -1.5237  2.0336 -0.6065
 1275TIP3    H225317   0.549   6.252  14.798 -0.5936  1.2964  1.1204
 1276TIP3   OH225318   0.595   5.334  11.719 -0.2354  0.3688 -0.0407
 1276TIP3    H125319   0.568   5.382  11.640  0.2877  0.4183 -0.1904
 1276TIP3    H225320   0.578   5.242  11.698  0.2816  0.3459 -0.3624
 1277TIP3   OH225321   1.596   3.690   3.356 -0.3321  0.5301  0.4939
 1277TIP3    H125322   1.559   3.763   3.406  0.8064  0.2865  1.7399
 1277TIP3    H225323   1.687   3.686   3.384  0.7100  1.0937 -2.4096
 1278TIP3   OH225324   5.943   3.707  12.541 -0.0578 -0.5656 -0.4140
 1278TIP3    H125325   5.943   3.622  12.496  1.8555 -0.6594 -0.3109
 1278TIP3    H225326   5.970   3.769  12.474 -1.5149  0.0079 -0.5026
 1279TIP3   OH225327   3.704   5.690   4.404 -0.4444  0.3309 -0.4056
 1279TIP3    H125328   3.792   5.689   4.443 -1.6323 -0.2754  2.5078
 1279TIP3    H225329   3.719   5.672   4.311  2.5539  1.1060 -0.1882
 1280TIP3   OH225330   1.351   3.556  14.339 -0.6825  0.0106 -0.0398
 1280TIP3    H125331   1.298   3.513  14.272 -2.1123  2.5609 -0.6664
 1280TIP3    H225332   1.300   3.547  14.420  0.5816 -2.1926  0.6286
 1281TIP3   OH225333   0.722   2.872  16.853  0.0247  0.6648  0.0428
 1281TIP3    H125334   0.644   2.904  16.807  0.3608  0.7774 -0.4542
 1281TIP3    H225335   0.726   2.779  16.831  0.7668  0.9271 -1.0265
 1282TIP3   OH225336   3.363   6.243   5.930  0.1038 -0.4894  0.6671
 1282TIP3    H125337   3.286   6.187   5.925 -0.7383  0.6767  0.0274
 1282TIP3    H225338   3.348   6.297   6.008  1.0984 -1.3890  1.5093
 1283TIP3   OH225339   0.521   5.103   5.807 -0.4903  0.4237 -0.7755
 1283TIP3    H125340   0.444   5.099   5.864  1.4560 -0.2962  2.0558
 1283TIP3    H225341   0.546   5.196   5.809  0.2190  0.2388  0.6292
 1284TIP3   OH225342   3.157   6.099  13.751 -0.0873 -0.0353  0.4589
 1284TIP3    H125343   3.206   6.164  13.701 -2.8019  1.5973 -0.2748
 1284TIP3    H225344   3.147   6.138  13.838  1.7894 -1.3892  1.3301
 1285TIP3   OH225345   1.936   0.757   0.968 -0.3386 -0.2984 -0.2311
 1285TIP3    H125346   1.925   0.728   1.058  2.7056 -1.6388 -0.1849
 1285TIP3    H225347   1.901   0.686   0.915  0.7822 -0.9782 -0.0835
 1286TIP3   OH225348   1.666   0.414  16.137 -0.2740 -0.0868 -0.5297
 1286TIP3    H125349   1.739   0.355  16.159  0.4151  0.8961 -0.1025
 1286TIP3    H225350   1.673   0.425  16.043 -0.8357 -1.2106 -0.7288
 1287TIP3   OH225351   1.971   2.333   0.034 -0.4010  0.5914  0.1563
 1287TIP3    H125352   1.957   2.270   0.105 -0.4257 -0.1508 -0.4926
 1287TIP3    H225353   1.894   2.389   0.035 -1.2379 -0.5180 -0.3918
 1288TIP3   OH225354   3.308   3.689  12.158  0.5359  0.1113 -0.2282
 1288TIP3    H125355   3.310   3.783  12.170 -0.1690  0.1097 -0.0249
 1288TIP3    H225356   3.272   3.676  12.069  0.0393  0.0299 -0.0193
 1289TIP3   OH225357   6.502   4.098  16.472  0.8040  0.1966 -0.2116
 1289TIP3    H125358   6.558   4.033  16.513  0.1334  0.0167  0.4355
 1289TIP3    H225359   6.498   4.170  16.534  0.7775  0.4563 -0.5090
 1290TIP3   OH225360   4.503   1.357   0.491  1.2459  0.0702 -0.5900
 1290TIP3    H125361   4.521   1.285   0.431  1.5860  0.1262 -0.5598
 1290TIP3    H225362   4.421   1.332   0.534  0.7823  0.2312 -1.3694
 1291TIP3   OH225363   3.844   2.558   0.018 -0.3354  0.2171  0.2687
 1291TIP3    H125364   3.853   2.503  -0.059  0.0069  0.1451  0.3578
 1291TIP3    H225365   3.783   2.627  -0.008  0.2968  0.5784 -0.2823
 1292TIP3   OH225366   6.160   2.743  16.502  0.4546  0.6593 -0.3523
 1292TIP3    H125367   6.132   2.812  16.562 -0.0154  1.6364 -1.6598
 1292TIP3    H225368   6.256   2.741  16.512  0.4837  1.5880 -0.4003
 1293TIP3   OH225369   4.279   2.143   1.421 -0.2305  0.1122  0.1085
 1293TIP3    H125370   4.267   2.112   1.331 -1.0979 -0.7919  0.5230
 1293TIP3    H225371   4.333   2.076   1.462 -1.2817 -0.3595  0.7370
 1294TIP3   OH225372   6.761   5.097  15.660 -0.5286  0.2527 -0.0214
 1294TIP3    H125373   6.849   5.070  15.636 -0.4917 -0.0131  0.3941
 1294TIP3    H225374   6.705   5.028  15.625 -0.6732  0.9395 -1.1822
 1295TIP3   OH225375   2.698   3.455  14.914  0.2458  0.3248  0.1529
 1295TIP3    H125376   2.621   3.412  14.877  1.2132  0.5905 -2.3951
 1295TIP3    H225377   2.726   3.398  14.986 -1.7088 -0.2793  0.4838
 1296TIP3   OH225378   1.963   0.030   1.922 -0.1467 -0.5894 -0.0160
 1296TIP3    H125379   1.947   0.037   1.828 -0.8516  2.0336  0.2175
 1296TIP3    H225380   1.882   0.063   1.963  1.4345  1.8423  1.3978
 1297TIP3   OH225381   3.057   2.567   1.531 -0.6541  0.1825  0.4367
 1297TIP3    H125382   3.080   2.589   1.441 -1.1212  0.3614  0.3605
 1297TIP3    H225383   3.028   2.476   1.528  0.5862 -0.2349  0.6310
 1298TIP3   OH225384   3.463   2.024  15.657 -0.4744  0.0370 -0.3071
 1298TIP3    H125385   3.450   2.031  15.751  0.1556 -1.7325 -0.0454
 1298TIP3    H225386   3.545   2.069  15.640  0.5128 -1.4065  0.3671
 1299TIP3   OH225387   4.355   3.590   5.792 -0.4977 -0.2208 -0.7011
 1299TIP3    H125388   4.339   3.517   5.732  1.0505 -0.8321 -0.4123
 1299TIP3    H225389   4.439   3.626   5.765  1.2426 -1.7322  2.1890
 1300TIP3   OH225390   3.726   2.436   3.520  0.2974  0.1782  0.6775
 1300TIP3    H125391   3.804   2.489   3.503 -1.0957  1.8585 -0.9405
 1300TIP3    H225392   3.675   2.442   3.439 -1.6500 -0.6373  1.7733
 1301TIP3   OH225393   5.142   1.876   3.473 -0.1862  0.0229 -0.4513
 1301TIP3    H125394   5.234   1.850   3.468 -0.1516  0.2889 -1.5966
 1301TIP3    H225395   5.101   1.810   3.529  0.8852  0.4868  0.9348
 1302TIP3   OH225396   0.113   2.091  11.318  0.0358 -0.1880  0.6178
 1302TIP3    H125397   0.196   2.125  11.350  0.3955 -0.7276  0.2928
 1302TIP3    H225398   0.085   2.029  11.385 -0.7495  0.9093  1.3354
 1303TIP3   OH225399   6.260   1.810   4.724 -0.3344 -0.0617 -0.7482
 1303TIP3    H125400   6.311   1.765   4.791 -0.6398 -0.9638 -1.1020
 1303TIP3    H225401   6.326   1.849   4.666 -0.0686 -0.0311 -0.4279
 1304TIP3   OH225402   0.438   0.323   5.395 -0.0423 -0.5986 -0.3117
 1304TIP3    H125403   0.419   0.417   5.397  0.9420 -0.3749 -1.0319
 1304TIP3    H225404   0.368   0.286   5.341 -0.1150 -0.2019 -0.4961
 1305TIP3   OH225405   4.332   1.217   2.907  0.1199  0.3207  0.3157
 1305TIP3    H125406   4.255   1.203   2.852  0.3469  2.0578 -0.5073
 1305TIP3    H225407   4.396   1.152   2.875 -0.6168 -0.4002  0.2771
 1306TIP3   OH225408   4.734   4.555  14.171  0.2832  0.2927 -0.1203
 1306TIP3    H125409   4.673   4.516  14.108 -0.0011  1.4165 -0.5653
 1306TIP3    H225410   4.820   4.521  14.145  0.3351  1.6161 -1.8810
 1307TIP3   OH225411   5.803   3.960   4.471  0.2093  0.9034 -0.5318
 1307TIP3    H125412   5.726   3.924   4.515  0.7326 -0.9598 -1.0195
 1307TIP3    H225413   5.875   3.944   4.533  0.5551  0.4599 -1.0342
 1308TIP3   OH225414   3.549   3.732   2.239  0.2332 -0.3745 -0.3383
 1308TIP3    H125415   3.559   3.813   2.190 -0.6831 -0.8426 -1.3496
 1308TIP3    H225416   3.466   3.742   2.286 -0.0219 -0.8318 -0.6861
 1309TIP3   OH225417   5.119   1.009  13.173  0.3225 -0.7556 -0.1935
 1309TIP3    H125418   5.077   0.944  13.229  0.3665 -0.6537 -0.0415
 1309TIP3    H225419   5.111   0.973  13.085  2.6773 -2.2819  0.1263
 1310TIP3   OH225420   3.953   0.876   4.348  0.2285  0.0077  0.2607
 1310TIP3    H125421   3.871   0.845   4.387  0.7311 -3.2497 -0.9536
 1310TIP3    H225422   4.013   0.884   4.422 -0.0704 -1.7140  0.7359
 1311TIP3   OH225423   4.230   3.505  15.920  0.5654  0.2372 -0.1730
 1311TIP3    H125424   4.223   3.589  15.965  1.7380  0.4017 -0.2626
 1311TIP3    H225425   4.186   3.520  15.836 -0.0692  0.4659  0.1917
 1312TIP3   OH225426   3.592   4.970  11.480 -0.2355 -0.1873 -0.1346
 1312TIP3    H125427   3.538   4.922  11.543  0.3071  0.7570  1.0960
 1312TIP3    H225428   3.649   5.024  11.534  0.9501 -0.0840 -1.4312
 1313TIP3   OH225429   1.011   1.535   6.076  0.2679  0.3520  0.4987
 1313TIP3    H125430   0.989   1.472   6.007  0.8101 -0.5864  1.1686
 1313TIP3    H225431   1.053   1.607   6.029  1.2512 -0.5742 -0.1037
 1314TIP3   OH225432   1.798   5.382   4.366  0.0364 -0.4334  0.1508
 1314TIP3    H125433   1.811   5.385   4.460  0.6246  0.6592  0.0505
 1314TIP3    H225434   1.872   5.431   4.329  0.9312 -2.5348 -0.9950
 1315TIP3   OH225435   1.117   1.651   3.947  0.7848 -0.1622 -0.4474
 1315TIP3    H125436   1.079   1.693   4.024  1.1344  0.8075 -0.7911
 1315TIP3    H225437   1.157   1.571   3.980 -0.0996 -0.3559  0.1826
 1316TIP3   OH225438   2.101   6.051   4.463 -0.5931  0.1420 -0.0166
 1316TIP3    H125439   2.191   6.029   4.486 -0.5807 -0.1781 -0.3714
 1316TIP3    H225440   2.110   6.110   4.388 -0.6681  0.4001  0.1757
 1317TIP3   OH225441   5.449   6.389   0.453  0.9345  0.0702 -0.1041
 1317TIP3    H125442   5.387   6.319   0.430  1.4335 -0.5151  0.2839
 1317TIP3    H225443   5.513   6.346   0.510  0.3729  1.2023  1.4247
 1318TIP3   OH225444   1.682   4.993  11.499  0.0350  0.2634 -0.7322
 1318TIP3    H125445   1.746   5.044  11.547  0.8342 -0.7759 -0.6552
 1318TIP3    H225446   1.603   5.047  11.499  0.5084  0.9840  0.3232
 1319TIP3   OH225447   6.846   1.602  11.621  0.3706 -0.0433 -0.0394
 1319TIP3    H125448   6.795   1.534  11.667  0.7637 -0.1768  0.2028
 1319TIP3    H225449   6.937   1.580  11.639  0.4967  0.7895  0.3882
 1320TIP3   OH225450   2.717   4.807  13.765 -0.2443 -0.8811  0.5339
 1320TIP3    H125451   2.700   4.760  13.846  0.4021  0.1796  1.3118
 1320TIP3    H225452   2.779   4.876  13.789 -1.4361  0.6260 -0.4357
 1321TIP3   OH225453   6.320   1.043   0.477 -0.5169  0.2036 -0.5965
 1321TIP3    H125454   6.239   1.004   0.443 -1.0008  1.0133 -0.3951
 1321TIP3    H225455   6.308   1.043   0.572 -0.5216  0.8287 -0.5925
 1322TIP3   OH225456   4.595   2.341  15.056  0.1844 -0.1697 -0.6017
 1322TIP3    H125457   4.650   2.419  15.044  0.7667 -0.0643  2.0647
 1322TIP3    H225458   4.515   2.360  15.008  0.9797  1.3638 -1.3769
 1323TIP3   OH225459   3.000   4.211   1.992  0.1760 -0.0033  0.0108
 1323TIP3    H125460   2.969   4.238   1.905  2.1566  0.8176 -0.4885
 1323TIP3    H225461   3.021   4.118   1.982  0.6387  0.1483 -0.4736
 1324TIP3   OH225462   6.399   2.288  16.192 -0.2590 -0.3813  0.2019
 1324TIP3    H125463   6.370   2.205  16.230  0.6189  0.2059  2.2919
 1324TIP3    H225464   6.344   2.354  16.235  0.2712  0.2585 -0.0963
 1325TIP3   OH225465   3.092   6.417  15.501 -0.0560  0.0336 -0.1480
 1325TIP3    H125466   3.120   6.489  15.445 -0.6817  0.1977 -0.2612
 1325TIP3    H225467   3.100   6.339  15.447 -0.7340  0.1996 -0.5073
 1326TIP3   OH225468   1.841   0.758  14.010  0.2098  0.2770 -0.1110
 1326TIP3    H125469   1.749   0.734  14.015  0.2250 -0.1711 -1.5258
 1326TIP3    H225470   1.841   0.852  13.993 -0.0820 -0.0463 -2.1714
 1327TIP3   OH225471   0.015   5.355   3.906 -0.7326  0.0185  0.4910
 1327TIP3    H125472   0.055   5.268   3.914  0.8878  0.6456 -0.3654
 1327TIP3    H225473   0.088   5.416   3.919 -1.1829  1.2046 -2.0336
 1328TIP3   OH225474   6.069   0.544  13.298 -0.1704  0.3852  0.5426
 1328TIP3    H125475   6.159   0.536  13.267 -0.4376  1.1374 -0.5020
 1328TIP3    H225476   6.044   0.634  13.277 -0.8268  0.5142  1.7864
 1329TIP3   OH225477   1.768   2.009  11.923 -0.2559 -0.1174 -0.6528
 1329TIP3    H125478   1.739   1.959  11.847 -2.6186  0.5424 -0.2652
 1329TIP3    H225479   1.772   2.099  11.892  2.1879 -0.2344 -0.8574
 1330TIP3   OH225480   1.306   4.037  16.039  0.5513  0.1224 -0.8285
 1330TIP3    H125481   1.315   3.972  16.109 -0.0962 -0.8855 -1.6652
 1330TIP3    H225482   1.212   4.051  16.031  0.7000  1.4938 -0.3834
 1331TIP3   OH225483   3.384   3.314   1.449  0.3986 -0.5466 -0.0425
 1331TIP3    H125484   3.454   3.374   1.475 -2.2146  1.6069  2.7835
 1331TIP3    H225485   3.413   3.228   1.479  2.4759 -0.0468 -0.4602
 1332TIP3   OH225486   2.620   1.689  16.999  0.1576  0.3741 -0.0253
 1332TIP3    H125487   2.679   1.763  16.987 -1.2270  1.7858  1.4011
 1332TIP3    H225488   2.614   1.648  16.913  1.6286  1.4031 -0.6425
 1333TIP3   OH225489   6.570   5.459  13.664  0.0067  0.7101  0.1917
 1333TIP3    H125490   6.511   5.514  13.612 -0.6209  0.6665  0.8378
 1333TIP3    H225491   6.556   5.370  13.630  0.7077  0.8843 -0.5670
 1334TIP3   OH225492   5.195   1.101   3.912 -0.3161  0.0662 -0.7591
 1334TIP3    H125493   5.289   1.105   3.930 -0.3120 -1.9113 -0.0802
 1334TIP3    H225494   5.155   1.135   3.992 -0.1706 -0.2262 -0.5549
 1335TIP3   OH225495   5.019   4.362  14.457  0.2196  0.0135 -0.2361
 1335TIP3    H125496   5.039   4.455  14.451  0.8003 -0.0697  0.2818
 1335TIP3    H225497   4.993   4.349  14.549  1.8918 -0.6471  0.1727
 1336TIP3   OH225498   2.026   2.470   3.894 -0.1404  0.1934 -0.0392
 1336TIP3    H125499   1.933   2.448   3.895 -0.7306  2.4310 -0.6534
 1336TIP3    H225500   2.055   2.452   3.984 -1.1067 -0.6375  0.1319
 1337TIP3   OH225501   6.800   5.054  16.709  0.0536 -0.3354  0.7217
 1337TIP3    H125502   6.809   5.134  16.657  0.2491 -0.8055  0.0078
 1337TIP3    H225503   6.884   5.010  16.699 -0.1812 -0.8029  0.8037
 1338TIP3   OH225504   6.050   5.398  11.922 -0.1178 -0.1612 -0.1849
 1338TIP3    H125505   6.130   5.431  11.963 -0.0200 -0.1261 -0.4059
 1338TIP3    H225506   6.008   5.346  11.991 -0.8045  1.2750  0.5271
 1339TIP3   OH225507   0.353   3.799   5.643 -0.0285  0.3270 -0.4324
 1339TIP3    H125508   0.359   3.720   5.697  0.1011  0.1693 -0.6749
 1339TIP3    H225509   0.285   3.779   5.578 -1.6111  1.2586  0.8892
 1340TIP3   OH225510   3.031   3.868   0.323 -0.1191 -0.1896  0.3612
 1340TIP3    H125511   3.125   3.852   0.321 -0.2881 -1.4024  1.3213
 1340TIP3    H225512   3.016   3.932   0.253  0.8625 -3.1031 -2.8330
 1341TIP3   OH225513   1.049   1.534   5.706  0.5686  0.4753 -0.0867
 1341TIP3    H125514   1.020   1.491   5.786 -1.6485 -1.1762 -1.6307
 1341TIP3    H225515   1.042   1.465   5.639 -0.5944  2.5226 -2.2134
 1342TIP3   OH225516   2.949   4.538   1.906 -0.2800 -0.7139  0.6232
 1342TIP3    H125517   2.900   4.460   1.883 -1.7103 -0.2261  1.8193
 1342TIP3    H225518   3.000   4.513   1.983  1.7751 -1.3370 -0.8448
 1343TIP3   OH225519   5.093   1.101  15.474  0.5445 -0.5895  0.1805
 1343TIP3    H125520   5.008   1.079  15.513 -0.1627 -0.4441 -1.2169
 1343TIP3    H225521   5.157   1.075  15.540 -0.5795 -0.7212  1.2589
 1344TIP3   OH225522   2.217   6.863   1.493 -0.2948 -0.1537  0.1922
 1344TIP3    H125523   2.184   6.926   1.428 -1.8210  0.6429  1.6435
 1344TIP3    H225524   2.138   6.824   1.530  0.2611  1.4804  3.5083
 1345TIP3   OH225525   5.587   0.969   2.750  0.2763  0.1897 -0.2377
 1345TIP3    H125526   5.682   0.975   2.762  0.2523 -0.0313  0.0843
 1345TIP3    H225527   5.550   1.019   2.823  0.1332 -0.5570  0.2092
 1346TIP3   OH225528   1.702   2.973  11.987 -0.4750  0.0278 -0.8329
 1346TIP3    H125529   1.787   3.010  12.014 -0.6334  0.3643 -0.7879
 1346TIP3    H225530   1.648   2.979  12.066 -0.6618  0.1731 -0.9721
 1347TIP3   OH225531   6.351   3.022  13.236  0.4135  0.4679  0.1011
 1347TIP3    H125532   6.260   3.010  13.209  0.1653  1.3600  0.4691
 1347TIP3    H225533   6.383   3.095  13.182  1.3444 -0.6931 -0.9658
 1348TIP3   OH225534   4.676   1.807  15.230  0.0590 -0.5258  0.2932
 1348TIP3    H125535   4.662   1.880  15.170  0.4421 -1.2199 -0.6700
 1348TIP3    H225536   4.756   1.765  15.198 -0.5278 -1.7781  0.4065
 1349TIP3   OH225537   0.123   3.842  12.461  0.5981 -0.3108 -0.2370
 1349TIP3    H125538   0.044   3.788  12.466  0.7142 -0.4027  0.6266
 1349TIP3    H225539   0.093   3.926  12.426  0.0836 -0.2769  0.2824
 1350TIP3   OH225540   0.857   1.123  13.835  0.2821  0.0529  0.1053
 1350TIP3    H125541   0.787   1.179  13.804  0.8344 -0.6131 -2.6222
 1350TIP3    H225542   0.818   1.035  13.837  1.1629 -0.4438 -2.1828
 1351TIP3   OH225543   4.206   6.180  14.365 -1.3229  0.7091  0.2642
 1351TIP3    H125544   4.224   6.272  14.348  3.1158  0.0066  0.1197
 1351TIP3    H225545   4.192   6.141  14.279  0.8605  0.6533 -0.1225
 1352TIP3   OH225546   4.691   4.260   1.899  0.5502 -0.0917  0.3000
 1352TIP3    H125547   4.696   4.171   1.862 -1.1294 -0.9283  1.9295
 1352TIP3    H225548   4.772   4.269   1.949 -0.7134 -2.1206  2.9312
 1353TIP3   OH225549   0.689   1.616   4.271  0.1157 -0.1542  0.0794
 1353TIP3    H125550   0.712   1.635   4.180  0.7841 -0.5968  0.1477
 1353TIP3    H225551   0.607   1.568   4.265  0.1814 -0.2225 -0.2989
 1354TIP3   OH225552   5.846   4.465  13.237 -0.0311  0.2485  0.2215
 1354TIP3    H125553   5.835   4.550  13.193 -0.5227  0.0056 -0.1398
 1354TIP3    H225554   5.830   4.484  13.329 -1.6389  0.2902 -0.0367
 1355TIP3   OH225555   3.103   5.962   5.370 -0.5285 -0.3750 -0.7278
 1355TIP3    H125556   3.100   6.051   5.407  0.6124 -0.2752 -0.8563
 1355TIP3    H225557   3.038   5.963   5.300 -2.7936 -0.5734  1.2364
 1356TIP3   OH225558   3.756   3.830   5.790  0.0729 -0.2923 -0.0172
 1356TIP3    H125559   3.735   3.905   5.736  0.8203 -1.8749 -2.7004
 1356TIP3    H225560   3.687   3.766   5.770  0.8583 -1.2331  0.2051
 1357TIP3   OH225561   3.445   3.430   4.662  0.1159  0.0783  0.2227
 1357TIP3    H125562   3.365   3.483   4.660  0.1016  0.0645 -1.2799
 1357TIP3    H225563   3.444   3.388   4.748 -0.5136  1.5358  0.9575
 1358TIP3   OH225564   0.123   4.944  15.617  0.3653  0.3116  0.9835
 1358TIP3    H125565   0.203   4.951  15.565 -0.1134  2.4825  0.4127
 1358TIP3    H225566   0.151   4.909  15.701  1.8937  0.8795  0.7301
 1359TIP3   OH225567   1.038   2.264   3.235  0.9945  0.0800 -0.5264
 1359TIP3    H125568   1.003   2.332   3.178 -0.2829  1.1981  1.4702
 1359TIP3    H225569   1.124   2.297   3.262  1.0746  0.1184 -0.8228
 1360TIP3   OH225570   6.632   0.774   5.955  0.6855  0.2710 -0.2768
 1360TIP3    H125571   6.703   0.733   6.003  0.9336 -0.2715 -1.0902
 1360TIP3    H225572   6.615   0.856   6.002 -0.3554 -1.0819  1.8286
 1361TIP3   OH225573   3.156   3.523  13.821 -0.4666 -1.0389  0.4451
 1361TIP3    H125574   3.173   3.552  13.731 -2.8223 -0.8310  0.0131
 1361TIP3    H225575   3.244   3.515  13.860  0.5407  1.2139 -1.1147
 1362TIP3   OH225576   4.077   5.758  13.166 -0.3042  0.0561 -0.0654
 1362TIP3    H125577   4.126   5.837  13.189 -1.6286  1.0560 -0.5187
 1362TIP3    H225578   4.040   5.728  13.249 -1.1310  0.8847 -0.1094
 1363TIP3   OH225579   5.506   2.579   3.346 -0.1751 -0.3492  0.0919
 1363TIP3    H125580   5.580   2.556   3.290 -0.1867  0.7416 -0.4065
 1363TIP3    H225581   5.546   2.597   3.431  0.0896 -0.1223 -0.0780
 1364TIP3   OH225582   2.376   4.011  11.559 -0.3608 -0.3583 -0.2787
 1364TIP3    H125583   2.464   4.010  11.596 -1.2541 -0.4434  2.0106
 1364TIP3    H225584   2.357   3.918  11.542 -0.4228 -0.4778  0.3843
 1365TIP3   OH225585   1.686   0.714  16.109 -0.7184 -0.0151  0.1553
 1365TIP3    H125586   1.702   0.622  16.127 -0.2900 -0.0205 -0.2472
 1365TIP3    H225587   1.612   0.715  16.048  0.2775 -0.1744 -1.0923
 1366TIP3   OH225588   0.616   1.896   3.310 -0.1430  0.0261  0.1537
 1366TIP3    H125589   0.528   1.886   3.272  0.3236 -1.1108 -0.6906
 1366TIP3    H225590   0.648   1.979   3.275 -0.8225  0.3731  0.3445
 1367TIP3   OH225591   4.091   5.647  15.501  0.1352 -0.2883  0.4976
 1367TIP3    H125592   4.133   5.673  15.583  0.9930 -0.0357 -0.0132
 1367TIP3    H225593   4.001   5.628  15.525  0.8093 -2.0209  1.8576
 1368TIP3   OH225594   0.206   4.681  15.056 -0.4376 -0.1344 -0.0557
 1368TIP3    H125595   0.137   4.741  15.086 -0.0562 -0.1134  0.7798
 1368TIP3    H225596   0.271   4.739  15.015  0.1385  0.0922  1.1339
 1369TIP3   OH225597   3.123   6.593   1.087 -0.2550 -0.2601  0.6846
 1369TIP3    H125598   3.213   6.596   1.053 -0.3997  2.4748  0.3308
 1369TIP3    H225599   3.088   6.681   1.071 -2.8803 -1.1240  1.1880
 1370TIP3   OH225600   3.712   4.201  15.342 -0.0195 -0.4652 -0.3452
 1370TIP3    H125601   3.671   4.137  15.284 -0.6112  0.0606 -0.5072
 1370TIP3    H225602   3.799   4.165  15.358  0.0899 -0.7171 -1.4008
 1371TIP3   OH225603   3.498   4.573   0.573 -0.5985  1.1617  0.0208
 1371TIP3    H125604   3.500   4.621   0.656 -0.2464  0.3845  0.4752
 1371TIP3    H225605   3.568   4.508   0.581 -1.0607  0.5687 -0.5751
 1372TIP3   OH225606   2.820   1.456  14.255  0.3633 -0.3402  0.1247
 1372TIP3    H125607   2.800   1.364  14.239  1.9424 -0.7267  0.2278
 1372TIP3    H225608   2.738   1.502  14.238 -0.3163 -1.7079 -0.4102
 1373TIP3   OH225609   5.032   1.451   4.546  0.1958 -0.7395  0.9439
 1373TIP3    H125610   4.963   1.457   4.480  1.7150  0.5994 -0.6259
 1373TIP3    H225611   5.107   1.495   4.506  1.9101 -1.9610  2.6593
 1374TIP3   OH225612   0.416   2.522   0.935 -0.4042 -0.5236 -0.5852
 1374TIP3    H125613   0.363   2.443   0.935 -0.9441 -0.1786  0.5467
 1374TIP3    H225614   0.497   2.496   0.980 -1.6462  0.1836  2.3226
 1375TIP3   OH225615   6.782   3.621  14.380  0.0890  0.0041 -0.0841
 1375TIP3    H125616   6.779   3.617  14.284 -0.9452  3.3237 -0.3381
 1375TIP3    H225617   6.872   3.648  14.399  1.0272 -2.9787  0.1551
 1376TIP3   OH225618   1.850   1.955   2.804 -0.7572  0.3051 -0.1818
 1376TIP3    H125619   1.847   2.002   2.721  0.2869 -2.1847 -1.7544
 1376TIP3    H225620   1.943   1.937   2.819 -0.8269  1.4252  2.0321
 1377TIP3   OH225621   4.249   0.403  11.799 -0.0793 -0.2905 -0.3845
 1377TIP3    H125622   4.276   0.442  11.716 -0.5951  2.0138  0.4374
 1377TIP3    H225623   4.191   0.331  11.774  0.0908  0.0944 -2.0128
 1378TIP3   OH225624   2.692   3.826  13.761 -0.2310  0.1941 -0.1161
 1378TIP3    H125625   2.651   3.740  13.752 -0.6600  0.2824  0.9084
 1378TIP3    H225626   2.786   3.808  13.748 -0.4231 -0.2246 -1.0683
 1379TIP3   OH225627   6.379   6.804   1.518 -0.6068  0.1472  0.3200
 1379TIP3    H125628   6.346   6.783   1.605 -1.6881  0.7585  0.0747
 1379TIP3    H225629   6.433   6.729   1.494 -0.7762 -0.2907  1.2646
 1380TIP3   OH225630   1.993   5.107   6.558 -0.0570  0.0942 -0.2635
 1380TIP3    H125631   1.956   5.193   6.538  1.2548  0.6985 -0.2380
 1380TIP3    H225632   1.948   5.047   6.499 -0.9477  0.8068 -0.3310
 1381TIP3   OH225633   2.327   1.933   3.364 -0.1024 -0.3518 -0.1145
 1381TIP3    H125634   2.309   1.903   3.275  1.9800  2.0856 -1.5054
 1381TIP3    H225635   2.243   1.966   3.396 -0.6488 -0.1273 -1.6812
 1382TIP3   OH225636   1.063   0.646  13.721 -0.3538  0.0230 -0.0911
 1382TIP3    H125637   1.052   0.740  13.725  0.2913  0.0591  1.8379
 1382TIP3    H225638   1.001   0.611  13.785 -0.8180 -0.8919 -1.0123
 1383TIP3   OH225639   3.478   6.128  14.357 -0.2928  0.2921  0.5283
 1383TIP3    H125640   3.533   6.079  14.418 -0.2936  1.8328  1.8537
 1383TIP3    H225641   3.539   6.160  14.291  0.0512  0.1838  0.7869
 1384TIP3   OH225642   2.165   5.400   2.191  0.3573  0.0966 -0.3487
 1384TIP3    H125643   2.182   5.323   2.138 -0.2175  0.0816 -0.5118
 1384TIP3    H225644   2.143   5.469   2.128 -0.6760 -0.0121 -0.1162
 1385TIP3   OH225645   2.059   2.707  11.839  0.3266  0.1191  0.7257
 1385TIP3    H125646   2.075   2.776  11.775  0.1953  1.8633  2.4809
 1385TIP3    H225647   1.972   2.674  11.819 -1.0022  2.7462  1.7637
 1386TIP3   OH225648   3.620   2.492   4.001  0.7389  0.1905 -0.2444
 1386TIP3    H125649   3.553   2.464   4.062 -0.0469 -0.3893 -1.3374
 1386TIP3    H225650   3.612   2.588   3.998  0.3577  0.1665  0.0639
 1387TIP3   OH225651   1.416   5.455   1.382  0.4162 -0.0308  0.0130
 1387TIP3    H125652   1.503   5.487   1.407  1.1009 -0.7635 -1.3240
 1387TIP3    H225653   1.390   5.512   1.309  0.5015 -0.8401 -0.6600
 1388TIP3   OH225654   1.097   4.141  13.972  0.4177  0.1366  0.5826
 1388TIP3    H125655   1.022   4.199  13.982 -0.5898 -1.1904  0.9499
 1388TIP3    H225656   1.061   4.053  13.981  1.9526 -0.5479  0.3343
 1389TIP3   OH225657   2.837   3.564   3.129 -0.3003 -0.3633 -0.3267
 1389TIP3    H125658   2.749   3.589   3.099 -0.5554 -0.2263  0.5152
 1389TIP3    H225659   2.833   3.572   3.224  1.3567  2.1293 -0.3727
 1390TIP3   OH225660   0.758   2.393   4.817 -0.3295  0.4084 -0.5144
 1390TIP3    H125661   0.690   2.338   4.778 -0.2070 -1.6639  1.8556
 1390TIP3    H225662   0.827   2.397   4.751 -1.0631 -0.9836 -1.4171
 1391TIP3   OH225663   0.105   0.607   2.144  0.1227 -0.1348 -0.2226
 1391TIP3    H125664   0.036   0.627   2.207  0.1178  0.6449 -0.4639
 1391TIP3    H225665   0.057   0.580   2.065  0.1308 -1.3129  0.1473
 1392TIP3   OH225666   6.468   5.953  12.856  0.1742 -0.2714  0.4594
 1392TIP3    H125667   6.464   5.857  12.864  1.5735 -0.3441  0.5585
 1392TIP3    H225668   6.406   5.974  12.787  0.2786 -1.3183  0.0304
 1393TIP3   OH225669   1.242   0.608  11.844 -0.1682 -0.0501 -0.0340
 1393TIP3    H125670   1.196   0.551  11.906  2.0611 -1.5629  0.3591
 1393TIP3    H225671   1.307   0.654  11.897 -0.3598  1.0764 -0.7568
 1394TIP3   OH225672   4.381   3.723   5.178  0.3814 -0.4515  0.2708
 1394TIP3    H125673   4.337   3.803   5.151  0.2130 -0.5553  0.2319
 1394TIP3    H225674   4.430   3.696   5.100 -1.2373 -1.5254 -0.4498
 1395TIP3   OH225675   2.467   1.915   0.883 -0.2883 -0.5301  0.2547
 1395TIP3    H125676   2.432   2.001   0.907  0.1226 -0.5959  1.1118
 1395TIP3    H225677   2.520   1.889   0.958 -0.4218 -1.5431  0.0091
 1396TIP3   OH225678   4.211   6.626   3.649 -0.5031  0.4603 -0.0937
 1396TIP3    H125679   4.295   6.630   3.605 -0.4678  0.3193 -0.0389
 1396TIP3    H225680   4.233   6.623   3.742 -0.5636  0.1746 -0.0893
 1397TIP3   OH225681   1.462   3.880   2.792 -0.0597  0.3094  0.0062
 1397TIP3    H125682   1.410   3.809   2.830  1.6521 -0.0830  1.7450
 1397TIP3    H225683   1.398   3.934   2.745 -1.3918 -2.5544 -1.7768
 1398TIP3   OH225684   6.552   1.355  16.240 -0.3462 -0.3970  0.2998
 1398TIP3    H125685   6.468   1.370  16.197 -0.1012  0.1330 -0.0062
 1398TIP3    H225686   6.607   1.315  16.173  0.3932  1.4680 -0.2624
 1399TIP3   OH225687   1.206   2.018   3.355  0.2796  0.1943 -0.0418
 1399TIP3    H125688   1.165   1.935   3.380  0.6172 -0.8191 -2.6221
 1399TIP3    H225689   1.134   2.072   3.323  0.3715  0.0450 -0.4999
 1400TIP3   OH225690   4.476   1.084   4.779 -0.5479 -0.0118  0.0950
 1400TIP3    H125691   4.469   0.989   4.775 -2.4579  0.0631  0.7464
 1400TIP3    H225692   4.388   1.115   4.758 -0.4649  1.5320  1.7744
 1401TIP3   OH225693   3.237   2.311  15.460 -0.6380 -0.1658 -0.2089
 1401TIP3    H125694   3.198   2.396  15.441 -2.9869 -1.1702 -0.2294
 1401TIP3    H225695   3.217   2.258  15.383 -2.4580 -1.7418  1.2480
 1402TIP3   OH225696   5.274   0.726  10.840  0.0208 -0.5803  0.1955
 1402TIP3    H125697   5.280   0.643  10.886 -0.4158 -0.9754 -0.4419
 1402TIP3    H225698   5.182   0.733  10.813 -0.3298  0.8726  1.6167
 1403TIP3   OH225699   6.613   4.822  11.886  0.1942  0.5242 -0.4046
 1403TIP3    H125700   6.591   4.741  11.932  0.6239  0.6442  0.0177
 1403TIP3    H225701   6.543   4.832  11.822  0.5951 -0.6386 -1.0628
 1404TIP3   OH225702   4.473   3.837  15.976 -0.2306  0.2369 -0.6250
 1404TIP3    H125703   4.390   3.861  16.018 -0.8216 -1.0204 -1.0309
 1404TIP3    H225704   4.504   3.918  15.935 -0.9900  0.8431 -0.0247
 1405TIP3   OH225705   0.092   3.049   2.218 -0.3241 -0.4328 -0.1611
 1405TIP3    H125706   0.086   3.099   2.138  0.6044 -2.3252 -1.4988
 1405TIP3    H225707   0.008   3.002   2.224 -0.4298 -0.2206  0.0282
 1406TIP3   OH225708   4.733   2.639   1.959  0.1793  0.1898  0.4110
 1406TIP3    H125709   4.639   2.642   1.974  0.4472 -1.0571  2.8478
 1406TIP3    H225710   4.771   2.693   2.028  1.2831 -0.0932  0.0509
 1407TIP3   OH225711   2.129   4.382   2.880 -0.1987 -0.6354  0.2071
 1407TIP3    H125712   2.119   4.447   2.810  0.4097  0.7068  1.3201
 1407TIP3    H225713   2.044   4.381   2.924  0.2577  0.6713  1.1995
 1408TIP3   OH225714   1.344   1.384  16.682 -0.4535 -0.2828 -0.0113
 1408TIP3    H125715   1.316   1.308  16.733  2.6479 -0.5293  1.5290
 1408TIP3    H225716   1.440   1.381  16.684 -0.0833  4.3428  1.2206
 1409TIP3   OH225717   3.387   5.854  15.324  0.1235  0.0744  0.2420
 1409TIP3    H125718   3.364   5.803  15.246 -1.5319  1.3862 -0.2017
 1409TIP3    H225719   3.322   5.827  15.389  1.7790 -1.3552  1.3893
 1410TIP3   OH225720   5.045   6.272  14.385  0.2846  0.1423 -0.4542
 1410TIP3    H125721   5.004   6.253  14.469  2.0375 -3.1905 -0.1756
 1410TIP3    H225722   4.974   6.262  14.321 -0.4762 -0.1829  0.4096
 1411TIP3   OH225723   3.624   6.015  16.713 -0.0435 -0.0762 -0.2054
 1411TIP3    H125724   3.700   5.975  16.754  1.1079  1.3052 -0.9087
 1411TIP3    H225725   3.631   5.991  16.621  0.5266  1.4712 -0.5908
 1412TIP3   OH225726   2.960   0.390  13.233  0.2135 -0.3937  0.3020
 1412TIP3    H125727   3.021   0.389  13.159 -0.3541 -0.4925 -0.1657
 1412TIP3    H225728   3.016   0.375  13.310  0.9158  0.5494 -0.0103
 1413TIP3   OH225729   1.786   4.247   2.188  0.6286  0.6412  0.3587
 1413TIP3    H125730   1.737   4.188   2.246 -1.6775  3.0278  1.0653
 1413TIP3    H225731   1.877   4.240   2.216  0.0903 -0.9238  1.8386
 1414TIP3   OH225732   2.568   3.137  12.092 -0.3215 -1.0072 -0.7563
 1414TIP3    H125733   2.619   3.089  12.157  0.5854  1.2293  0.2600
 1414TIP3    H225734   2.477   3.123  12.117  0.0161 -0.0456  1.1450
 1415TIP3   OH225735   5.279   6.682  11.749  0.5344 -0.3113  0.1244
 1415TIP3    H125736   5.358   6.712  11.704 -0.9847  0.1560 -2.4692
 1415TIP3    H225737   5.263   6.594  11.714  0.5390 -0.9116  1.5549
 1416TIP3   OH225738   3.525   0.679  16.034 -0.3555 -0.0782  0.2004
 1416TIP3    H125739   3.482   0.715  15.956 -0.7809  1.2988  1.0367
 1416TIP3    H225740   3.454   0.665  16.097  0.1253  0.0379  0.7837
 1417TIP3   OH225741   5.091   6.051   1.626  0.5160 -0.7128 -0.2344
 1417TIP3    H125742   4.999   6.052   1.602  0.4484 -1.6203 -0.0596
 1417TIP3    H225743   5.092   6.072   1.719  0.5767  0.3010 -0.4530
 1418TIP3   OH225744   0.896   6.058  15.973 -0.7124 -0.1598 -0.1411
 1418TIP3    H125745   0.917   6.106  15.893 -1.6131 -0.5644 -0.6321
 1418TIP3    H225746   0.811   6.091  16.000 -0.9274 -0.8225  0.0194
 1419TIP3   OH225747   2.570   2.497  11.627 -0.3167 -0.1277 -0.1923
 1419TIP3    H125748   2.595   2.422  11.682  0.2163  0.7154  0.7550
 1419TIP3    H225749   2.476   2.485  11.612 -0.2195 -1.0341 -0.1369
 1420TIP3   OH225750   2.381   0.465   3.129  0.1129  0.2580  0.1230
 1420TIP3    H125751   2.443   0.471   3.202  1.5211  0.0424 -1.0042
 1420TIP3    H225752   2.420   0.402   3.069  0.6219  2.6670 -2.2853
 1421TIP3   OH225753   0.353   1.626  15.562  0.3925 -0.4107 -0.3730
 1421TIP3    H125754   0.329   1.534  15.571  1.5167 -0.6012  1.2371
 1421TIP3    H225755   0.270   1.672  15.549 -0.2269 -1.5906 -0.6584
 1422TIP3   OH225756   6.863   6.644   2.019 -0.4831 -0.0590 -0.8468
 1422TIP3    H125757   6.866   6.731   2.060 -1.2659 -0.5496  0.2704
 1422TIP3    H225758   6.792   6.651   1.955 -2.8909 -0.8130  1.5686
 1423TIP3   OH225759   2.036   1.899   0.770  0.0258 -0.3822 -0.6353
 1423TIP3    H125760   1.995   1.824   0.814 -1.2057  0.3389 -0.5172
 1423TIP3    H225761   1.967   1.936   0.716  0.5030  0.9015 -0.4092
 1424TIP3   OH225762   1.658   5.676  14.857 -0.0891  0.0498 -0.8055
 1424TIP3    H125763   1.660   5.772  14.855 -0.1070  0.0887  0.3593
 1424TIP3    H225764   1.613   5.655  14.938  0.7268 -0.9559 -0.6021
 1425TIP3   OH225765   0.632   5.689  13.297  0.1618  0.0056  0.1379
 1425TIP3    H125766   0.633   5.648  13.210  1.9181  2.3153 -1.0275
 1425TIP3    H225767   0.704   5.647  13.344  0.5233  0.1599 -0.2681
 1426TIP3   OH225768   0.741   4.905  12.887  0.1918  0.0037 -0.1175
 1426TIP3    H125769   0.704   4.987  12.920 -0.2869 -0.7810  1.3554
 1426TIP3    H225770   0.673   4.870  12.829 -0.8550 -0.7679  1.5280
 1427TIP3   OH225771   3.511   4.170   1.815 -0.2708 -0.0309  0.6899
 1427TIP3    H125772   3.493   4.246   1.759  0.8807 -0.4876 -0.3263
 1427TIP3    H225773   3.596   4.138   1.786 -0.5298 -1.4424  1.4273
 1428TIP3   OH225774   5.196   4.116  12.901 -0.0541  0.0991  0.0547
 1428TIP3    H125775   5.280   4.110  12.857  0.1446  0.3028  0.3954
 1428TIP3    H225776   5.134   4.075  12.841  0.4725 -1.1257  0.2988
 1429TIP3   OH225777   5.131   6.493   1.211  0.1221  0.0598 -0.0714
 1429TIP3    H125778   5.226   6.482   1.222  0.2033 -0.7206 -1.3760
 1429TIP3    H225779   5.122   6.552   1.137 -0.4034 -0.4821 -0.4521
 1430TIP3   OH225780   4.563   3.971  12.863 -0.6358  0.0955 -0.2227
 1430TIP3    H125781   4.599   3.959  12.951 -1.8226 -1.5075  0.0911
 1430TIP3    H225782   4.636   4.005  12.811  0.3587  0.1019  1.1380
 1431TIP3   OH225783   5.460   0.760   0.874  0.0303 -0.2373 -0.3101
 1431TIP3    H125784   5.495   0.780   0.961  0.0074 -0.6566 -0.2022
 1431TIP3    H225785   5.381   0.710   0.891 -0.0669 -0.1727 -0.5719
 1432TIP3   OH225786   3.383   2.632  12.573  0.5857 -0.2575 -0.2502
 1432TIP3    H125787   3.348   2.553  12.614 -1.1600  0.9057  0.6569
 1432TIP3    H225788   3.367   2.701  12.638  1.3290  0.9791 -1.3344
 1433TIP3   OH225789   2.602   5.662  11.689 -0.0479 -0.6641 -0.6340
 1433TIP3    H125790   2.528   5.624  11.641 -1.3792 -0.2382  0.9797
 1433TIP3    H225791   2.607   5.611  11.770  2.5224 -1.7593 -1.3899
 1434TIP3   OH225792   6.546   2.868   1.834 -0.3781 -0.1447  0.8810
 1434TIP3    H125793   6.522   2.778   1.858  0.9846 -0.2838  1.8710
 1434TIP3    H225794   6.523   2.920   1.911 -0.3102  0.2004  0.6673
 1435TIP3   OH225795   1.725   1.478  11.089 -0.6982  0.3461 -0.6975
 1435TIP3    H125796   1.779   1.538  11.038 -0.0432 -0.0449 -0.4796
 1435TIP3    H225797   1.734   1.508  11.180  1.9382 -1.6746 -0.1410
 1436TIP3   OH225798   6.773   2.045   6.668 -0.4137 -0.0226  0.1417
 1436TIP3    H125799   6.865   2.048   6.693  0.2812  2.1110 -2.2242
 1436TIP3    H225800   6.728   2.014   6.746  2.1970 -0.1836  1.7018
 1437TIP3   OH225801   4.514   2.424  14.439  0.1584  0.0924 -0.1866
 1437TIP3    H125802   4.561   2.367  14.379 -0.1371  1.8396 -2.2020
 1437TIP3    H225803   4.581   2.457  14.498  0.6934 -0.6864 -0.3380
 1438TIP3   OH225804   2.632   4.107   5.161 -0.0221  0.4293  0.4722
 1438TIP3    H125805   2.592   4.139   5.080  0.5202  3.9116  1.4071
 1438TIP3    H225806   2.714   4.157   5.168  1.2336 -1.6910  1.9176
 1439TIP3   OH225807   5.049   6.383  11.716  0.2915 -0.2617  0.2479
 1439TIP3    H125808   4.988   6.316  11.748 -0.3922 -0.6504 -1.7073
 1439TIP3    H225809   5.134   6.340  11.717  0.3242 -0.2020  1.6370
 1440TIP3   OH225810   1.015   2.585  15.180 -0.0722 -0.2892  0.6152
 1440TIP3    H125811   0.931   2.581  15.225  0.6479 -0.3206  2.0153
 1440TIP3    H225812   1.072   2.526  15.230  0.7252 -0.4278 -0.4296
 1441TIP3   OH225813   3.700   5.040  17.051 -0.5031 -0.0866  0.3356
 1441TIP3    H125814   3.781   5.057  17.101 -0.0440  1.4516 -0.8484
 1441TIP3    H225815   3.634   5.095  17.094 -0.1041  1.2502 -0.7058
 1442TIP3   OH225816   0.601   3.838   0.801 -0.1444 -0.2949  0.2358
 1442TIP3    H125817   0.555   3.921   0.786  1.1562  0.4247  0.1037
 1442TIP3    H225818   0.605   3.797   0.714  0.1206  0.0033  0.1037
 1443TIP3   OH225819   1.041   5.235  10.531 -0.4147 -0.0643 -0.1053
 1443TIP3    H125820   1.058   5.318  10.488 -2.0695  0.2187 -0.2767
 1443TIP3    H225821   1.100   5.173  10.487  0.5649  0.9241 -0.2252
 1444TIP3   OH225822   1.567   5.880  10.369  0.2266  0.2980  0.6279
 1444TIP3    H125823   1.582   5.815  10.437 -0.1261  0.8381  1.2306
 1444TIP3    H225824   1.485   5.922  10.394 -0.3088 -0.0057 -0.5344
 1445TIP3   OH225825   0.550   5.729  14.762 -0.3246 -0.0959 -0.5968
 1445TIP3    H125826   0.593   5.716  14.846 -2.0060  0.6357  0.4159
 1445TIP3    H225827   0.562   5.646  14.716  1.7189 -0.0751 -0.1884
 1446TIP3   OH225828   4.187   0.028   0.872 -0.4229  0.2887  0.3126
 1446TIP3    H125829   4.179  -0.061   0.836 -1.3769  0.3889  0.2617
 1446TIP3    H225830   4.241   0.074   0.808  1.1349 -0.5719  0.9509
 1447TIP3   OH225831   4.256   5.385  14.595  0.1658 -0.0447 -0.0698
 1447TIP3    H125832   4.302   5.466  14.571  1.3497 -0.8184 -0.5168
 1447TIP3    H225833   4.282   5.368  14.685  1.9644 -1.2299 -0.7597
 1448TIP3   OH225834   1.264   4.617  12.541 -0.3084  0.3655 -0.1877
 1448TIP3    H125835   1.295   4.688  12.598  1.6645  1.1135 -2.0550
 1448TIP3    H225836   1.236   4.661  12.461 -1.6807 -0.7764 -0.3668
 1449TIP3   OH225837   5.570   3.763  13.953  0.6331 -0.3808  0.5146
 1449TIP3    H125838   5.591   3.789  14.042 -0.1635  0.3955  0.4865
 1449TIP3    H225839   5.654   3.767  13.906  0.6021  2.0164  0.5461
 1450TIP3   OH225840   6.360   5.980  11.192  0.4296  0.4777  0.1028
 1450TIP3    H125841   6.394   5.892  11.178 -0.1849 -0.1347  2.1201
 1450TIP3    H225842   6.283   5.986  11.135  1.8823  0.6859 -1.9601
 1451TIP3   OH225843   4.949   5.643   2.580 -0.2779  0.6167 -0.5365
 1451TIP3    H125844   5.020   5.702   2.557 -0.8424  2.1721  1.3964
 1451TIP3    H225845   4.992   5.565   2.615  0.5063  1.3156  0.1054
 1452TIP3   OH225846   0.965   3.411   1.342 -0.0794  0.4574  0.4382
 1452TIP3    H125847   0.918   3.414   1.259 -0.1894  0.8320  0.5096
 1452TIP3    H225848   0.978   3.318   1.359 -1.3972  0.3134  0.7590
 1453TIP3   OH225849   2.303   3.436   5.176  0.6253 -0.9739  0.0545
 1453TIP3    H125850   2.289   3.352   5.131  1.0595 -1.1354  0.2212
 1453TIP3    H225851   2.240   3.434   5.248 -0.7944 -0.2779 -1.1106
 1454TIP3   OH225852   5.015   4.119   1.886 -0.0228 -0.4534  0.1224
 1454TIP3    H125853   4.969   4.197   1.916 -1.2428 -1.5769  1.3598
 1454TIP3    H225854   5.098   4.120   1.933 -0.0714  0.0385  0.2032
 1455TIP3   OH225855   1.067   4.815   5.500  0.4369  0.0291 -0.2812
 1455TIP3    H125856   1.009   4.890   5.512 -0.0010 -0.0327 -1.7408
 1455TIP3    H225857   1.151   4.854   5.477  0.5383  0.0944  0.2008
 1456TIP3   OH225858   0.880   5.145  15.599 -0.1963 -0.0824  0.2049
 1456TIP3    H125859   0.917   5.075  15.652  2.0835  1.4312  0.7421
 1456TIP3    H225860   0.913   5.128  15.510 -0.1137  0.0056  0.2188
 1457TIP3   OH225861   3.532   5.490  15.940 -0.0539 -0.1994 -0.5050
 1457TIP3    H125862   3.596   5.421  15.958 -0.6997 -0.0965  2.8560
 1457TIP3    H225863   3.585   5.569  15.931  0.4643 -0.1404  2.1114
 1458TIP3   OH225864   2.085   0.182   1.697  0.0485  0.0846 -0.6019
 1458TIP3    H125865   2.008   0.219   1.655 -0.2829  1.4269  1.0852
 1458TIP3    H225866   2.091   0.093   1.662 -2.6910 -0.3274 -0.2235
 1459TIP3   OH225867   1.547   2.308   1.478  0.5572 -0.2284  0.2213
 1459TIP3    H125868   1.497   2.356   1.411  1.6794  2.6319  1.2471
 1459TIP3    H225869   1.598   2.244   1.429 -0.0384  0.5109 -1.4587
 1460TIP3   OH225870   4.501   2.175   3.884 -0.1477 -0.7590 -0.1050
 1460TIP3    H125871   4.472   2.187   3.975  0.7114  1.2925 -0.0428
 1460TIP3    H225872   4.421   2.174   3.833 -0.5647  1.5082  0.3809
 1461TIP3   OH225873   2.172   6.696  14.157  0.4564 -0.3243  0.0446
 1461TIP3    H125874   2.100   6.633  14.152  0.0335  0.2053 -0.6277
 1461TIP3    H225875   2.150   6.764  14.094  2.7902 -1.4309 -2.1899
 1462TIP3   OH225876   0.441   3.920   1.299  0.3063 -0.0947 -0.3267
 1462TIP3    H125877   0.411   4.009   1.315  2.5739  0.9936 -1.5662
 1462TIP3    H225878   0.405   3.897   1.213  0.3411 -0.0561 -0.3519
 1463TIP3   OH225879   1.575   0.187  12.477 -0.4736  0.3897  0.5489
 1463TIP3    H125880   1.651   0.136  12.449 -0.6053 -0.2423  1.3327
 1463TIP3    H225881   1.602   0.278  12.467 -0.3942  0.2122 -1.3102
 1464TIP3   OH225882   2.451   1.615   3.940 -0.1934 -0.2010 -0.7772
 1464TIP3    H125883   2.426   1.525   3.963  0.0589 -0.0419  0.1959
 1464TIP3    H225884   2.368   1.661   3.930 -0.3227 -0.4346 -0.7827
 1465TIP3   OH225885   5.613   5.924  16.630 -0.6115 -0.3765 -0.1081
 1465TIP3    H125886   5.536   5.923  16.687  0.3664  1.8129  1.3620
 1465TIP3    H225887   5.686   5.943  16.688  0.8667 -0.9508 -1.6938
 1466TIP3   OH225888   0.806   1.396   4.123 -0.1814 -0.0561  0.6254
 1466TIP3    H125889   0.750   1.327   4.085  0.0920  0.5037 -0.8622
 1466TIP3    H225890   0.790   1.472   4.068  0.2613  0.8065  1.6645
 1467TIP3   OH225891   6.311   2.657  12.471  0.3990  0.6498  0.3324
 1467TIP3    H125892   6.225   2.695  12.452  0.5304  0.7737 -0.0164
 1467TIP3    H225893   6.294   2.596  12.543  0.2477  1.6468  1.1772
 1468TIP3   OH225894   4.535   2.039   4.954 -0.1888  0.0326 -0.4735
 1468TIP3    H125895   4.528   2.124   4.997 -0.3335 -1.0742  1.8046
 1468TIP3    H225896   4.626   2.012   4.968 -0.4042 -0.6264 -0.3024
 1469TIP3   OH225897   4.684   0.374  11.306  0.6051  0.5323  0.6576
 1469TIP3    H125898   4.753   0.373  11.239  2.0075 -0.4694  2.0477
 1469TIP3    H225899   4.637   0.456  11.290  1.6179  0.8836 -0.8185
 1470TIP3   OH225900   2.279   2.263  10.766  0.2881  0.1785  0.4623
 1470TIP3    H125901   2.346   2.195  10.767  0.2997  0.1416 -0.7741
 1470TIP3    H225902   2.324   2.340  10.730  0.0712  0.6143  1.1106
 1471TIP3   OH225903   3.125   6.134   0.388 -0.1555  0.2361  0.2563
 1471TIP3    H125904   3.107   6.228   0.383 -1.4570 -0.0411 -0.8077
 1471TIP3    H225905   3.168   6.114   0.305 -2.9853 -0.6684 -1.1270
 1472TIP3   OH225906   4.132   0.753  13.173  0.0169 -0.2827 -0.5491
 1472TIP3    H125907   4.213   0.803  13.167  0.2094 -0.5755 -0.4193
 1472TIP3    H225908   4.124   0.731  13.266 -1.8745  2.4794  0.0423
 1473TIP3   OH225909   1.068   3.227   0.177 -0.0890 -0.0626  0.2163
 1473TIP3    H125910   1.159   3.247   0.200 -0.1253  0.4309 -0.0637
 1473TIP3    H225911   1.031   3.311   0.149 -0.7839 -0.1493  0.8308
 1474TIP3   OH225912   4.356   2.714  13.068 -0.0225 -0.5911  0.3553
 1474TIP3    H125913   4.327   2.707  12.977  0.1750 -0.5563  0.2879
 1474TIP3    H225914   4.334   2.803  13.094 -0.5252 -0.7556  0.5004
 1475TIP3   OH225915   3.308   4.367  10.402  0.5050  0.6114  0.1539
 1475TIP3    H125916   3.285   4.276  10.383 -0.9648  0.3873  2.5926
 1475TIP3    H225917   3.341   4.401  10.319  0.9333 -2.0674 -0.8842
 1476TIP3   OH225918   2.512   0.068   3.793  0.1919  0.5490  0.3071
 1476TIP3    H125919   2.531  -0.004   3.733  0.3975  0.4928  0.4390
 1476TIP3    H225920   2.585   0.069   3.854  0.1794  0.8561  0.3213
 1477TIP3   OH225921   1.471   6.783   4.592  0.0430  0.5708 -0.0964
 1477TIP3    H125922   1.533   6.766   4.522 -0.7734  1.2491 -1.0264
 1477TIP3    H225923   1.473   6.705   4.647  1.4523  0.4545 -0.2905
 1478TIP3   OH225924   4.259   3.912  14.673  0.2271 -0.3053  0.1133
 1478TIP3    H125925   4.233   3.914  14.765  1.7361 -2.0517  0.6448
 1478TIP3    H225926   4.212   3.838  14.636 -0.8387  0.7491 -0.7240
 1479TIP3   OH225927   1.243   6.440  13.434 -0.2549 -0.2243 -0.1932
 1479TIP3    H125928   1.171   6.486  13.391 -1.4129 -0.1407  1.7367
 1479TIP3    H225929   1.207   6.411  13.517  1.7423 -0.8484  0.5134
 1480TIP3   OH225930   5.902   1.358  12.677 -0.5783 -0.0941  0.0759
 1480TIP3    H125931   5.864   1.429  12.625  1.7831  1.0671 -0.1831
 1480TIP3    H225932   5.979   1.397  12.719 -0.0560 -2.1201  1.1209
 1481TIP3   OH225933   5.240   4.574   4.302  0.4182  0.3847 -0.5672
 1481TIP3    H125934   5.260   4.558   4.394 -0.3006  0.8629 -0.3159
 1481TIP3    H225935   5.266   4.494   4.257 -2.1800 -1.1974  0.4968
 1482TIP3   OH225936   6.452   0.784  14.278 -0.8085 -0.0241  0.3206
 1482TIP3    H125937   6.518   0.779  14.209 -0.4417 -0.7843  0.7059
 1482TIP3    H225938   6.368   0.771  14.233 -0.4913 -1.6037  0.1430
 1483TIP3   OH225939   0.887   4.043   1.771  0.0932 -0.3235  0.1916
 1483TIP3    H125940   0.893   4.027   1.677 -1.6509 -1.4012  0.2062
 1483TIP3    H225941   0.975   4.028   1.805  0.4636 -1.1666 -1.1084
 1484TIP3   OH225942   6.400   4.294   4.039 -0.2269 -0.5309  0.0270
 1484TIP3    H125943   6.478   4.253   4.076 -0.2067 -0.3835  0.1480
 1484TIP3    H225944   6.351   4.327   4.114 -0.1054 -0.0929 -0.0821
 1485TIP3   OH225945   4.483   4.373  15.432  0.5551 -0.3721  0.8215
 1485TIP3    H125946   4.560   4.400  15.382 -0.3607 -0.8584 -0.9622
 1485TIP3    H225947   4.471   4.441  15.497  2.0969  0.0546  0.6968
 1486TIP3   OH225948   0.927   2.449   3.077 -0.3003 -0.1811 -0.0028
 1486TIP3    H125949   0.949   2.498   2.997  0.7284  0.2311  0.5137
 1486TIP3    H225950   0.937   2.513   3.147 -0.8636 -0.6371  0.4953
 1487TIP3   OH225951   3.923   4.335   2.035  0.1053 -0.0091  0.1396
 1487TIP3    H125952   3.943   4.338   2.129  2.9907  0.4717 -0.3916
 1487TIP3    H225953   3.869   4.257   2.025 -3.0126  1.6333  2.5742
 1488TIP3   OH225954   3.204   0.206   2.746  0.2901 -0.2442  0.9969
 1488TIP3    H125955   3.138   0.156   2.793  0.5719 -0.4232  1.2065
 1488TIP3    H225956   3.246   0.143   2.689  0.3183 -0.1442  0.9069
 1489TIP3   OH225957   3.622   0.503  13.833 -0.5730  0.2722  0.0776
 1489TIP3    H125958   3.630   0.491  13.928  0.8569 -0.2886 -0.0739
 1489TIP3    H225959   3.559   0.574  13.822 -0.2623  0.7949  1.4772
 1490TIP3   OH225960   3.498   0.995   2.821 -0.3564 -0.2864 -0.1538
 1490TIP3    H125961   3.556   1.071   2.818 -0.3449 -0.0184  3.3009
 1490TIP3    H225962   3.411   1.031   2.808 -0.1330 -0.1071 -1.2483
 1491TIP3   OH225963   5.005   0.711   4.094  0.2506 -0.1328 -0.5466
 1491TIP3    H125964   5.083   0.756   4.125  0.1668  0.9119 -1.7653
 1491TIP3    H225965   5.038   0.639   4.040  0.4116  1.0224 -2.0484
 1492TIP3   OH225966   4.391   1.275  13.989  0.2325 -0.0555  0.0312
 1492TIP3    H125967   4.454   1.205  13.973 -0.9608 -0.8131 -1.7510
 1492TIP3    H225968   4.354   1.255  14.075 -0.6229 -2.1280 -0.7557
 1493TIP3   OH225969   4.916   4.052  12.876  0.0532  0.3474  0.6088
 1493TIP3    H125970   4.865   4.011  12.806 -0.8106 -0.7726  1.8477
 1493TIP3    H225971   4.867   4.131  12.899  0.8014  1.2070 -0.5960
 1494TIP3   OH225972   0.399   2.251   5.167  0.0733  0.1621  0.5584
 1494TIP3    H125973   0.313   2.207   5.167  0.5171 -0.7416 -0.1058
 1494TIP3    H225974   0.380   2.340   5.135 -0.7203  0.2125  1.1294
 1495TIP3   OH225975   5.779   0.824  16.116  0.4938 -0.3515 -0.9620
 1495TIP3    H125976   5.697   0.817  16.067 -0.8014 -0.9033  1.1376
 1495TIP3    H225977   5.802   0.734  16.136  1.7563 -0.2078 -1.6860
 1496TIP3   OH225978   5.528   1.162  15.085 -0.1857  0.3450  0.1938
 1496TIP3    H125979   5.462   1.107  15.043  1.1389 -0.6894 -0.5824
 1496TIP3    H225980   5.566   1.107  15.153 -0.0697  0.9094  0.5921
 1497TIP3   OH225981   6.491   0.633  14.506  0.3522  0.9151 -0.2921
 1497TIP3    H125982   6.585   0.631  14.520  0.4554  0.8555 -1.0059
 1497TIP3    H225983   6.479   0.676  14.422 -0.2881  1.4398  0.0530
 1498TIP3   OH225984   3.571   1.753   1.890 -0.3516  0.0587 -0.2160
 1498TIP3    H125985   3.525   1.723   1.812  0.9756 -0.3943 -0.8527
 1498TIP3    H225986   3.629   1.822   1.859 -1.2934  1.3275  0.7445
 1499TIP3   OH225987   0.182   0.755   5.169 -0.1773  0.0628  0.0512
 1499TIP3    H125988   0.247   0.823   5.186 -1.0243  0.8835  0.0631
 1499TIP3    H225989   0.099   0.794   5.196 -0.8290 -0.5813 -0.9562
 1500TIP3   OH225990   6.612   4.371   0.068 -0.3847 -0.4942 -0.0395
 1500TIP3    H125991   6.577   4.448   0.022 -2.5092  0.6704  3.1920
 1500TIP3    H225992   6.674   4.407   0.131 -1.1481 -1.4590  1.2951
 1501TIP3   OH225993   0.269   1.327   0.446  0.2648 -0.0390  0.2687
 1501TIP3    H125994   0.264   1.341   0.541  1.5921 -1.7654  0.6427
 1501TIP3    H225995   0.349   1.277   0.434  0.3707  0.5581 -1.8482
 1502TIP3   OH225996   5.441   4.585  11.697 -0.6403 -0.5718 -0.7906
 1502TIP3    H125997   5.494   4.552  11.624 -0.0001 -0.2426 -0.4822
 1502TIP3    H225998   5.426   4.677  11.676  0.3267 -0.2357 -0.0671
 1503TIP3   OH225999   6.850   6.116  15.336  0.2625  0.1687  0.4553
 1503TIP3    H126000   6.831   6.209  15.319 -0.3372 -0.5214 -4.0183
 1503TIP3    H226001   6.933   6.101  15.292 -0.4094 -1.6986 -0.2659
 1504TIP3   OH226002   2.780   4.975   5.557  0.0444  0.6647  0.0578
 1504TIP3    H126003   2.761   5.069   5.561  0.1804  0.7431 -1.0155
 1504TIP3    H226004   2.694   4.934   5.562 -0.4390  0.9850 -3.3559
 1505TIP3   OH226005   4.099   5.733  12.202  0.5095  0.2078  0.0540
 1505TIP3    H126006   4.041   5.664  12.168  0.8677 -0.4471  0.7332
 1505TIP3    H226007   4.043   5.811  12.205  0.1963  0.0468 -1.0593
 1506TIP3   OH226008   3.031   0.521  15.121 -0.2193  0.2217  0.1397
 1506TIP3    H126009   3.105   0.578  15.100 -0.4839  1.3014  1.9782
 1506TIP3    H226010   2.964   0.545  15.057  0.6683 -0.0899 -0.9341
 1507TIP3   OH226011   6.772   3.621  14.071  0.2825  0.1842 -0.1986
 1507TIP3    H126012   6.711   3.691  14.047 -0.0296 -0.1339 -0.3455
 1507TIP3    H226013   6.850   3.638  14.019 -0.5307 -0.7364 -1.8040
 1508TIP3   OH226014   5.570   0.738   3.862  0.3417 -0.0617 -0.3322
 1508TIP3    H126015   5.614   0.804   3.916 -0.5857  1.8255 -1.7704
 1508TIP3    H226016   5.513   0.692   3.924  0.9667  0.4946  0.7048
 1509TIP3   OH226017   1.053   4.598   1.033 -0.2702 -0.4593 -0.6480
 1509TIP3    H126018   0.975   4.654   1.033  0.2219  0.2745 -1.8435
 1509TIP3    H226019   1.021   4.513   1.003 -0.6351 -0.1774 -1.0768
 1510TIP3   OH226020   5.279   5.700  12.230 -0.2333  0.0443  0.2182
 1510TIP3    H126021   5.233   5.619  12.206  0.1378 -0.6552  1.7458
 1510TIP3    H226022   5.222   5.770  12.198 -1.2881 -0.8070  0.1657
 1511TIP3   OH226023   2.565   0.714  13.390  0.0012 -0.1206 -0.4820
 1511TIP3    H126024   2.578   0.629  13.432 -0.9514 -0.7145 -1.3481
 1511TIP3    H226025   2.623   0.711  13.313  1.4619  0.8175  0.5257
 1512TIP3   OH226026   1.750   1.818  13.305 -0.3146 -0.3097 -0.1696
 1512TIP3    H126027   1.706   1.861  13.378 -1.4028  0.6220 -1.3176
 1512TIP3    H226028   1.842   1.813  13.331  0.7793  6.0199 -1.2810
 1513TIP3   OH226029   6.538   1.212   1.160  0.6754 -0.2105  0.3427
 1513TIP3    H126030   6.533   1.117   1.158 -0.0571 -0.3442  3.3053
 1513TIP3    H226031   6.554   1.238   1.069 -0.4522 -3.0547 -0.7674
 1514TIP3   OH226032   5.216   0.396  14.502 -0.4434 -0.2462 -0.1680
 1514TIP3    H126033   5.288   0.429  14.447  0.8084 -1.5046  0.6444
 1514TIP3    H226034   5.139   0.443  14.471  0.1228 -1.0787 -3.1892
 1515TIP3   OH226035   1.839   0.183  16.176 -0.4341 -0.1534 -0.1202
 1515TIP3    H126036   1.770   0.117  16.186 -1.5295  1.2273  2.8694
 1515TIP3    H226037   1.891   0.175  16.256  0.3268  1.5904 -0.4068
 1516TIP3   OH226038   5.265   4.617   5.693 -0.3390  0.6546  0.0938
 1516TIP3    H126039   5.297   4.634   5.782  0.5548  0.7158 -0.2279
 1516TIP3    H226040   5.199   4.549   5.704  0.6615 -0.2605  0.6836
 1517TIP3   OH226041   4.301   5.631  14.761 -0.0240 -0.1549 -0.7353
 1517TIP3    H126042   4.317   5.713  14.809  2.2407  0.0325 -1.6820
 1517TIP3    H226043   4.334   5.563  14.818 -2.3153 -0.5356  0.2477
 1518TIP3   OH226044   5.055   3.865  15.678  0.3193 -0.2872 -0.6579
 1518TIP3    H126045   5.010   3.923  15.739 -0.9939 -1.8643 -0.0559
 1518TIP3    H226046   5.148   3.880  15.695  0.0785  2.0904 -1.0118
 1519TIP3   OH226047   1.784   4.486   0.512 -0.4517  0.1457 -0.1788
 1519TIP3    H126048   1.827   4.400   0.518 -1.4816 -0.3514  0.4721
 1519TIP3    H226049   1.736   4.494   0.595  0.6826  1.9443  0.3589
 1520TIP3   OH226050   4.303   5.772  12.741  0.0963  0.0570  0.3077
 1520TIP3    H126051   4.373   5.830  12.771 -2.0819  1.6245  2.8173
 1520TIP3    H226052   4.280   5.804  12.654  0.7640  1.1932  0.5399
 1521TIP3   OH226053   4.951   5.518  12.888 -0.0560  0.2707  0.3509
 1521TIP3    H126054   4.883   5.567  12.841 -0.1322 -0.0731  0.0958
 1521TIP3    H226055   5.028   5.525  12.832  0.6903  2.2473  1.5221
 1522TIP3   OH226056   1.750   3.981  15.049 -0.0850  0.2748  1.0521
 1522TIP3    H126057   1.682   3.920  15.022 -0.6334  1.7285 -1.1595
 1522TIP3    H226058   1.832   3.934  15.034 -0.5296 -0.5332  1.1090
 1523TIP3   OH226059   5.675   6.095  12.572 -0.1325  0.1389  0.0697
 1523TIP3    H126060   5.675   6.176  12.622  2.3021 -0.3933  1.0991
 1523TIP3    H226061   5.673   6.025  12.638  0.5222 -0.5915 -0.6503
 1524TIP3   OH226062   2.154   6.102   3.185  0.6963  0.0955 -0.0213
 1524TIP3    H126063   2.059   6.105   3.186  0.7214  1.6639  0.4379
 1524TIP3    H226064   2.177   6.088   3.093  0.0182  1.4383 -0.4217
 1525TIP3   OH226065   1.852   2.601  14.972  0.1848  0.3876  0.4230
 1525TIP3    H126066   1.832   2.684  15.016  0.4008  0.2941  0.6923
 1525TIP3    H226067   1.852   2.536  15.041 -0.3379  0.0981  0.1607
 1526TIP3   OH226068   6.746   2.518   4.193  0.5663 -0.2183  0.5383
 1526TIP3    H126069   6.721   2.540   4.283  0.0983  2.0826 -0.0988
 1526TIP3    H226070   6.824   2.571   4.176 -0.0175  0.2547 -0.7685
 1527TIP3   OH226071   5.183   6.538   0.899  0.5907 -0.3644  0.1583
 1527TIP3    H126072   5.171   6.627   0.933  1.5669 -0.0739 -0.2296
 1527TIP3    H226073   5.095   6.502   0.895  0.2594  0.2922  1.1085
 1528TIP3   OH226074   0.216   6.681  12.059 -0.7850 -0.1827 -0.1424
 1528TIP3    H126075   0.279   6.613  12.036 -2.2117 -1.1427 -1.4169
 1528TIP3    H226076   0.197   6.665  12.152 -1.3940 -1.8344 -0.5071
 1529TIP3   OH226077   2.026   6.821   5.321 -0.0711 -0.2850 -0.6265
 1529TIP3    H126078   1.952   6.882   5.315 -0.3226 -0.6328 -1.0597
 1529TIP3    H226079   1.986   6.737   5.341  0.3147 -0.2290  0.4463
 1530TIP3   OH226080   0.994   0.422  11.681  0.2336  0.3735  0.1424
 1530TIP3    H126081   0.986   0.361  11.607  0.6989 -0.5779  0.8663
 1530TIP3    H226082   1.081   0.462  11.670 -0.7576  2.3334 -1.3624
 1531TIP3   OH226083   0.660   6.838   2.451  0.5327  0.8307  0.2522
 1531TIP3    H126084   0.697   6.792   2.375 -0.6711 -1.9134  1.1784
 1531TIP3    H226085   0.724   6.822   2.521  0.1986  0.7334  0.5367
 1532TIP3   OH226086   0.417   3.661  16.064  0.1624  0.2664 -0.1250
 1532TIP3    H126087   0.403   3.572  16.096  0.7078 -0.5352 -1.9943
 1532TIP3    H226088   0.383   3.661  15.975  0.3718  1.8808 -0.2420
 1533TIP3   OH226089   5.741   3.450  13.764  0.7813 -0.4972 -0.4054
 1533TIP3    H126090   5.688   3.395  13.821  0.0516  0.3131 -0.2927
 1533TIP3    H226091   5.810   3.484  13.821  0.3236 -0.0577 -0.1090
 1534TIP3   OH226092   2.756   4.480   3.808  0.1822 -0.0727  0.3955
 1534TIP3    H126093   2.732   4.421   3.737 -1.4046  1.4640 -0.4330
 1534TIP3    H226094   2.807   4.426   3.868  1.8831 -1.3728 -2.0309
 1535TIP3   OH226095   2.172   3.339  15.933  0.0127  0.1705  0.4200
 1535TIP3    H126096   2.228   3.414  15.913  0.8769 -0.5717 -0.0189
 1535TIP3    H226097   2.228   3.263  15.916 -1.1503 -0.5942 -0.0530
 1536TIP3   OH226098   5.128   0.333   3.549 -0.0903 -0.5067 -0.3352
 1536TIP3    H126099   5.081   0.405   3.592  0.5516 -0.4920  0.3645
 1536TIP3    H226100   5.104   0.341   3.457 -1.9999 -0.9177  0.0866
 1537TIP3   OH226101   6.499   4.598  17.056 -0.1570  0.0827 -0.5221
 1537TIP3    H126102   6.466   4.686  17.075 -0.6583 -0.0351 -0.8370
 1537TIP3    H226103   6.527   4.602  16.965  0.1507  0.0097 -0.4331
 1538TIP3   OH226104   6.160   0.008  13.516 -0.2212  0.1289  0.1177
 1538TIP3    H126105   6.222   0.044  13.452 -0.2371 -0.2259 -0.0968
 1538TIP3    H226106   6.148   0.079  13.580  1.2581 -0.1715  0.7702
 1539TIP3   OH226107   3.984   4.560  15.258 -0.1239 -0.3110  0.2848
 1539TIP3    H126108   3.901   4.523  15.228 -0.3886 -0.7565  1.4860
 1539TIP3    H226109   4.032   4.484  15.292  0.0302  0.1822  1.2115
 1540TIP3   OH226110   3.624   1.475  16.345 -0.7397 -0.5458  0.4030
 1540TIP3    H126111   3.568   1.409  16.303 -0.3636 -1.4866  1.3258
 1540TIP3    H226112   3.705   1.428  16.364 -0.3700  0.2638  0.8503
 1541TIP3   OH226113   2.521   5.385   1.007 -0.3547 -0.2123  0.6679
 1541TIP3    H126114   2.451   5.370   0.943  0.3589 -0.9505  0.0273
 1541TIP3    H226115   2.582   5.444   0.962  0.8957 -1.8935  0.0522
 1542TIP3   OH226116   0.122   0.349   1.404 -0.2882 -0.0026  0.5011
 1542TIP3    H126117   0.135   0.270   1.456 -0.0221 -0.7769 -0.6916
 1542TIP3    H226118   0.188   0.411   1.436  0.4941 -0.7944  0.4538
 1543TIP3   OH226119   4.803   1.653  13.916  0.7010 -0.1683 -0.0085
 1543TIP3    H126120   4.823   1.603  13.995  0.9604 -1.6828 -0.9845
 1543TIP3    H226121   4.878   1.711  13.905  0.7216 -0.0382  0.7910
 1544TIP3   OH226122   6.020   5.106  15.032 -0.5913  0.3853 -0.2482
 1544TIP3    H126123   6.019   5.012  15.052  1.2715  0.6503  1.4215
 1544TIP3    H226124   5.948   5.118  14.970 -1.4914 -1.9769  0.2183
 1545TIP3   OH226125   4.881   5.439   3.773 -0.4892  0.3723  0.1163
 1545TIP3    H126126   4.859   5.456   3.681  0.1344 -1.0216 -0.3136
 1545TIP3    H226127   4.829   5.362   3.797  1.1371 -0.7564  0.1712
 1546TIP3   OH226128   0.333   3.613   2.425 -0.2125  0.2655 -0.3096
 1546TIP3    H126129   0.403   3.549   2.439  1.0479  1.8102  0.8301
 1546TIP3    H226130   0.351   3.682   2.488 -2.7527  0.7795 -0.0418
 1547TIP3   OH226131   1.174   2.370  13.624 -0.1436  0.4471 -0.9952
 1547TIP3    H126132   1.101   2.431  13.625 -0.4768  0.0423 -0.5602
 1547TIP3    H226133   1.134   2.283  13.623  0.3119  0.1878  0.4326
 1548TIP3   OH226134   1.062   4.108  16.749  0.0694  0.1582  0.1115
 1548TIP3    H126135   1.106   4.064  16.822 -1.3257 -0.3352  0.6732
 1548TIP3    H226136   1.037   4.037  16.690 -0.6670  0.3464  0.1854
 1549TIP3   OH226137   2.292   5.270  15.587  0.0154 -0.0139 -0.2790
 1549TIP3    H126138   2.340   5.307  15.661 -0.7278  0.5654 -0.0750
 1549TIP3    H226139   2.360   5.235  15.529  0.6686  0.5998  0.1002
 1550TIP3   OH226140   0.018   0.173  14.173 -0.0934  0.0332 -0.2610
 1550TIP3    H126141   0.013   0.185  14.078 -0.4808 -0.7936 -0.3455
 1550TIP3    H226142  -0.033   0.245  14.209  0.3766  0.5803 -0.6599
 1551TIP3   OH226143   3.796   4.992   1.375  0.1312  0.3121  0.3453
 1551TIP3    H126144   3.717   4.956   1.415  0.2516 -0.5691 -0.1924
 1551TIP3    H226145   3.800   5.082   1.408 -0.2040 -0.1315  1.6676
 1552TIP3   OH226146   4.173   0.462  14.084  0.0028  0.6962  0.0666
 1552TIP3    H126147   4.110   0.517  14.130 -1.0558 -0.1466 -0.3180
 1552TIP3    H226148   4.240   0.442  14.150  0.8659  3.0377 -0.0019
 1553TIP3   OH226149   3.139   0.817   0.065  0.0681  0.2471  0.5244
 1553TIP3    H126150   3.172   0.812   0.154 -0.4729  0.0149  0.7160
 1553TIP3    H226151   3.130   0.910   0.047  1.6872  0.3493  0.1418
 1554TIP3   OH226152   1.425   1.566   6.441  0.1990  0.0873 -0.2358
 1554TIP3    H126153   1.494   1.576   6.376 -0.0954  0.5143 -0.4922
 1554TIP3    H226154   1.363   1.504   6.401  0.0829  0.2497 -0.3099
 1555TIP3   OH226155   1.149   1.028   5.140  0.2798  0.5172 -0.5494
 1555TIP3    H126156   1.063   1.002   5.108 -0.3422  1.6955  0.0847
 1555TIP3    H226157   1.156   0.987   5.227  0.1881  0.7392 -0.4361
 1556TIP3   OH226158   5.831   1.290  13.490  0.2836  0.4255 -0.0461
 1556TIP3    H126159   5.801   1.204  13.520  1.9141  0.3963  1.6742
 1556TIP3    H226160   5.769   1.352  13.528 -1.5089  0.0317 -2.1248
 1557TIP3   OH226161   3.950   4.491   5.792 -0.4617  0.1562 -0.1662
 1557TIP3    H126162   4.009   4.437   5.845 -0.5368  1.2925  1.1255
 1557TIP3    H226163   4.000   4.571   5.774 -1.6631  1.2819  1.2222
 1558TIP3   OH226164   2.568   0.321   3.025  0.2325  0.7066  0.5983
 1558TIP3    H126165   2.565   0.242   2.970  0.2589  1.9845 -1.3598
 1558TIP3    H226166   2.626   0.297   3.097 -0.8141 -1.4783  0.8008
 1559TIP3   OH226167   5.030   5.747  15.999  0.3292 -0.2439 -0.5509
 1559TIP3    H126168   5.056   5.698  16.077  2.6807  1.1797 -0.3456
 1559TIP3    H226169   4.973   5.687  15.952 -0.8582 -1.3038  2.0313
 1560TIP3   OH226170   6.060   1.582   1.273 -0.3415 -0.1226 -0.3304
 1560TIP3    H126171   6.056   1.491   1.301  1.3896 -0.2532 -0.3884
 1560TIP3    H226172   6.115   1.625   1.340 -1.2004  0.9018 -0.2574
 1561TIP3   OH226173   1.902   1.168   4.202 -0.1204  0.4985 -0.2828
 1561TIP3    H126174   1.854   1.224   4.262  0.5990  0.0481  0.7464
 1561TIP3    H226175   1.836   1.111   4.163 -0.3838 -0.5166  1.5528
 1562TIP3   OH226176   0.655   1.637   3.098  0.1707 -0.0318 -0.0397
 1562TIP3    H126177   0.697   1.677   3.174 -1.0097 -0.9698  1.1575
 1562TIP3    H226178   0.623   1.553   3.130 -3.1733  0.8776 -0.5967
 1563TIP3   OH226179   4.902   3.326  12.211  0.1683  0.3708 -0.5388
 1563TIP3    H126180   4.978   3.384  12.212  0.0915  0.4934 -1.2506
 1563TIP3    H226181   4.935   3.243  12.177  0.1218  0.2213 -0.2218
 1564TIP3   OH226182   0.535   6.213   3.216  0.0296 -0.4918 -0.3088
 1564TIP3    H126183   0.622   6.209   3.176  0.2177  3.1517 -0.5305
 1564TIP3    H226184   0.549   6.188   3.307  1.1471 -0.6763 -0.5252
 1565TIP3   OH226185   5.297   1.574   0.857  0.6445  0.2235  0.0865
 1565TIP3    H126186   5.294   1.479   0.871 -1.9179  0.2611  0.2530
 1565TIP3    H226187   5.325   1.583   0.765  1.2550 -0.6635  0.1705
 1566TIP3   OH226188   2.035   0.039  13.159 -0.1190 -0.2836  0.1395
 1566TIP3    H126189   1.945   0.008  13.159 -1.1035  2.2842  0.9750
 1566TIP3    H226190   2.049   0.075  13.247  2.1591 -1.6438  0.4200
 1567TIP3   OH226191   0.199   0.392  14.078  0.1370  0.2159 -0.3573
 1567TIP3    H126192   0.179   0.339  14.155 -3.1999  2.1382  0.3043
 1567TIP3    H226193   0.157   0.345  14.005 -0.0967  0.3441 -0.3077
 1568TIP3   OH226194   1.198   0.250   3.732  0.1209  0.4206 -0.2849
 1568TIP3    H126195   1.204   0.178   3.795  1.8662  1.0703  0.3379
 1568TIP3    H226196   1.129   0.307   3.767  0.4102  0.2801  0.5278
 1569TIP3   OH226197   4.343   3.021  13.040  0.9571  0.4712  0.3796
 1569TIP3    H126198   4.315   3.086  12.975  0.8154  0.1629  0.1269
 1569TIP3    H226199   4.426   3.054  13.073  0.0852  1.6234  1.4615
 1570TIP3   OH226200   5.302   3.174  12.571  0.2969  0.4258  0.4137
 1570TIP3    H126201   5.374   3.235  12.587  1.3165 -0.5647 -0.2933
 1570TIP3    H226202   5.344   3.092  12.546 -1.0615 -0.4155  0.7432
 1571TIP3   OH226203   5.562   5.555   1.171 -0.3218 -0.0883  0.0834
 1571TIP3    H126204   5.583   5.583   1.260 -1.1949  0.2326  0.1971
 1571TIP3    H226205   5.479   5.507   1.180 -1.3948  1.5282 -0.8075
 1572TIP3   OH226206   1.949   2.469   5.671  0.3024  0.8919  0.2765
 1572TIP3    H126207   1.949   2.396   5.609 -1.0428 -0.1512  1.4430
 1572TIP3    H226208   1.862   2.509   5.660  0.5288  1.4766  0.6046
 1573TIP3   OH226209   6.638   2.935  16.858 -0.0632  0.1952 -0.0598
 1573TIP3    H126210   6.683   3.019  16.870  0.4384  0.1381 -1.3520
 1573TIP3    H226211   6.654   2.913  16.766 -1.0460 -0.8237  0.0001
 1574TIP3   OH226212   2.132   5.764  16.828 -0.6580  0.2479 -0.1097
 1574TIP3    H126213   2.114   5.722  16.744 -0.6835 -1.2582  0.6189
 1574TIP3    H226214   2.075   5.841  16.829 -1.4904 -0.3375 -0.9873
 1575TIP3   OH226215   0.859   5.198  14.278  0.2789 -0.3255  0.1189
 1575TIP3    H126216   0.832   5.144  14.204  1.6420  0.0776 -0.6921
 1575TIP3    H226217   0.939   5.157  14.309  0.1494 -0.0204  0.8796
 1576TIP3   OH226218   5.157   4.442   2.626  0.7661 -0.5587  0.0517
 1576TIP3    H126219   5.103   4.364   2.637  1.1662 -1.1799 -1.9626
 1576TIP3    H226220   5.236   4.424   2.678  0.1824 -0.7817  0.8755
 1577TIP3   OH226221   2.964   4.305   1.181  0.1818 -0.1170 -0.5925
 1577TIP3    H126222   2.896   4.331   1.118 -0.6125  0.2695  0.4107
 1577TIP3    H226223   2.943   4.214   1.202 -0.8067  0.3896  0.6879
 1578TIP3   OH226224   0.940   0.040   2.793 -0.1034 -0.0193  0.5794
 1578TIP3    H126225   0.959  -0.025   2.726 -0.9377  1.3734 -1.0774
 1578TIP3    H226226   0.845   0.045   2.797 -0.0809  1.6769  0.0230
 1579TIP3   OH226227   2.764   5.205  14.140 -0.0139  0.3981 -0.0145
 1579TIP3    H126228   2.829   5.257  14.093  1.4337 -1.5619 -0.2811
 1579TIP3    H226229   2.808   5.178  14.221 -0.8516 -0.1135  0.2903
 1580TIP3   OH226230   4.306   3.046   0.698 -0.1445 -0.7982  0.1007
 1580TIP3    H126231   4.262   3.054   0.782  1.1989  1.4864  0.6711
 1580TIP3    H226232   4.246   3.086   0.635 -0.0554 -0.1608  0.4163
 1581TIP3   OH226233   3.783   5.744   2.452 -0.4130  0.0074  0.2955
 1581TIP3    H126234   3.865   5.696   2.454 -0.9723 -1.1377 -1.6464
 1581TIP3    H226235   3.804   5.829   2.490  1.1924 -0.9122  1.5616
 1582TIP3   OH226236   4.936   2.669  12.400  0.1449 -0.9729 -0.1875
 1582TIP3    H126237   4.951   2.594  12.342 -1.6507 -0.3732 -1.4834
 1582TIP3    H226238   4.876   2.635  12.467 -0.6620 -0.7052 -0.7698
 1583TIP3   OH226239   5.752   5.791   4.709 -0.0604 -0.0699 -0.3113
 1583TIP3    H126240   5.815   5.835   4.766  1.3755  0.4002 -2.1805
 1583TIP3    H226241   5.680   5.853   4.700 -0.4671 -0.2873  1.2111
 1584TIP3   OH226242   0.429   3.126   5.186 -0.0129 -0.8782 -0.5884
 1584TIP3    H126243   0.473   3.210   5.171  0.3817 -1.1537 -0.9890
 1584TIP3    H226244   0.435   3.113   5.281 -0.4172 -0.2691 -0.4758
 1585TIP3   OH226245   0.534   1.060   1.702  0.5192  0.2578 -0.4493
 1585TIP3    H126246   0.591   0.993   1.664 -0.8549 -0.7584 -0.7935
 1585TIP3    H226247   0.479   1.013   1.764  0.0189  1.2040 -0.1547
 1586TIP3   OH226248   5.596   5.581   1.436 -0.3367  0.3769 -0.2107
 1586TIP3    H126249   5.515   5.608   1.480  0.5795  1.5274  0.8202
 1586TIP3    H226250   5.643   5.662   1.418 -1.0216  0.0806 -4.2002
 1587TIP3   OH226251   3.477   5.535   0.688 -0.1428  0.5215 -0.1933
 1587TIP3    H126252   3.418   5.468   0.722 -0.7970  0.2632 -1.7322
 1587TIP3    H226253   3.422   5.612   0.677  0.2976  0.9099  0.3174
 1588TIP3   OH226254   5.516   2.697  15.444 -0.6046 -0.0232 -0.4846
 1588TIP3    H126255   5.537   2.606  15.464 -0.7362 -0.0759 -0.5826
 1588TIP3    H226256   5.543   2.707  15.352  1.2365  0.5870  0.0876
 1589TIP3   OH226257   2.700   3.703   1.099  0.3484 -0.4213 -0.1310
 1589TIP3    H126258   2.621   3.757   1.103  1.5995  1.7004 -1.9370
 1589TIP3    H226259   2.684   3.644   1.025 -0.1037 -1.0358  0.4394
 1590TIP3   OH226260   6.076   3.749   3.175 -0.1707  0.1577  0.1725
 1590TIP3    H126261   5.992   3.716   3.143 -1.6429  4.7622 -1.4182
 1590TIP3    H226262   6.132   3.748   3.097 -0.1623  1.0416  0.1578
 1591TIP3   OH226263   6.424   0.219   4.509 -0.2058 -0.2789 -0.1266
 1591TIP3    H126264   6.464   0.305   4.523  0.8627 -0.7280 -0.2721
 1591TIP3    H226265   6.377   0.228   4.427 -0.6448  0.3530  0.1886
 1592TIP3   OH226266   0.577   4.960  16.744  0.2507  0.0274 -0.1839
 1592TIP3    H126267   0.597   5.038  16.693  0.4950 -1.4928 -2.6166
 1592TIP3    H226268   0.637   4.963  16.818  0.5192  1.9186 -0.4401
 1593TIP3   OH226269   2.719   2.082   5.850 -0.2784  0.1740  0.1187
 1593TIP3    H126270   2.700   2.171   5.821  0.0082  0.5112  0.9164
 1593TIP3    H226271   2.688   2.081   5.941  2.6280  0.4908  1.2320
 1594TIP3   OH226272   3.651   1.797   4.797 -0.4620 -0.1966  0.3265
 1594TIP3    H126273   3.622   1.845   4.874  1.0355  1.4586 -0.0615
 1594TIP3    H226274   3.580   1.807   4.734 -1.0130 -0.2074  0.9342
 1595TIP3   OH226275   4.717   4.321  15.935 -0.1209 -0.1898 -0.1357
 1595TIP3    H126276   4.784   4.361  15.880 -1.3638  0.6495 -1.0951
 1595TIP3    H226277   4.731   4.358  16.022  1.0458 -0.5172 -0.1764
 1596TIP3   OH226278   4.988   2.967   4.447 -0.9448  0.4153 -0.0040
 1596TIP3    H126279   4.900   2.939   4.422 -0.7775 -0.2245  0.1137
 1596TIP3    H226280   5.046   2.902   4.408 -0.6309 -0.1379  1.3302
 1597TIP3   OH226281   3.098   4.539   5.552 -0.9034  0.7625 -0.2964
 1597TIP3    H126282   3.016   4.520   5.597 -0.1236 -0.4587  0.6590
 1597TIP3    H226283   3.166   4.518   5.616  0.1653  2.2131 -0.8988
 1598TIP3   OH226284   2.088   3.622  11.490  0.1162  0.3314 -0.2303
 1598TIP3    H126285   1.995   3.614  11.512 -0.4872  2.2795 -1.7794
 1598TIP3    H226286   2.116   3.533  11.468 -0.7945 -0.6386  2.1918
 1599TIP3   OH226287   1.984   3.594  14.747 -0.4703  0.4796  0.2100
 1599TIP3    H126288   2.051   3.528  14.731  0.0301  0.8173  0.8633
 1599TIP3    H226289   1.999   3.661  14.680 -0.4797  0.3148  0.0413
 1600TIP3   OH226290   0.203   3.446  15.857 -0.2174  0.4303  0.0549
 1600TIP3    H126291   0.239   3.404  15.780 -0.4779 -0.1681  0.2526
 1600TIP3    H226292   0.116   3.406  15.868 -0.7047  1.4131 -0.0689
 1601TIP3   OH226293   4.619   3.468  11.227  0.3662 -0.4514 -0.3098
 1601TIP3    H126294   4.602   3.467  11.133 -0.1706 -1.2087 -0.2143
 1601TIP3    H226295   4.561   3.400  11.262  0.9248 -0.5139  0.5051
 1602TIP3   OH226296   0.377   2.081  15.508  0.4692 -0.3597  0.2045
 1602TIP3    H126297   0.381   1.986  15.516  0.0834 -0.6246 -1.9153
 1602TIP3    H226298   0.425   2.100  15.427  1.6898  1.4034  1.2935
 1603TIP3   OH226299   2.291   3.205  11.542  0.4596  0.3319  0.0413
 1603TIP3    H126300   2.377   3.245  11.553  1.2305 -1.2005 -0.1257
 1603TIP3    H226301   2.309   3.121  11.499 -1.1352  0.0427 -0.1287
 1604TIP3   OH226302   2.959   6.685   0.097  0.0606  0.2550  0.1228
 1604TIP3    H126303   2.939   6.671   0.189 -0.0808 -1.0474 -0.0773
 1604TIP3    H226304   3.016   6.611   0.073  1.5300  1.4938 -0.4201
 1605TIP3   OH226305   1.758   1.446  13.004  0.4174 -0.2739 -0.2922
 1605TIP3    H126306   1.751   1.369  13.060 -0.7131 -0.3226 -0.4654
 1605TIP3    H226307   1.822   1.502  13.048 -0.7894 -0.0943  1.3208
 1606TIP3   OH226308   2.828   0.002  16.606  0.1120 -0.6058  0.0881
 1606TIP3    H126309   2.882   0.064  16.655  1.5566 -1.0580 -0.8696
 1606TIP3    H226310   2.871  -0.006  16.521 -1.0144 -1.6163 -0.4239
 1607TIP3   OH226311   1.300   6.337   1.528 -0.0069 -0.2075 -0.1283
 1607TIP3    H126312   1.273   6.296   1.610 -0.7473 -0.7951 -0.6503
 1607TIP3    H226313   1.296   6.431   1.545  2.1495 -0.2889  1.2313
 1608TIP3   OH226314   3.055   2.044   0.876 -0.1057 -0.4597  0.2288
 1608TIP3    H126315   3.014   1.962   0.848 -0.4434 -0.0361 -0.5320
 1608TIP3    H226316   3.148   2.034   0.853  0.1550 -1.2163  1.4979
 1609TIP3   OH226317   3.742   2.272   5.547 -0.2908 -0.3328  0.0443
 1609TIP3    H126318   3.803   2.208   5.584 -1.4485 -1.0984  0.6660
 1609TIP3    H226319   3.794   2.318   5.481  1.5571  0.4083  1.8901
 1610TIP3   OH226320   1.126   2.064  15.106  0.4283 -0.5835 -0.1479
 1610TIP3    H126321   1.036   2.057  15.138  0.0133 -1.5640 -1.4696
 1610TIP3    H226322   1.117   2.097  15.017  1.2596 -2.1110 -0.8372
 1611TIP3   OH226323   1.081   0.311   4.943  0.0546 -0.0334 -0.1281
 1611TIP3    H126324   1.123   0.278   4.864 -0.0771 -1.1862  0.2598
 1611TIP3    H226325   0.988   0.293   4.930  0.0437 -0.3166  0.3150
 1612TIP3   OH226326   1.802   2.913  13.777  0.5368  0.4904 -0.0756
 1612TIP3    H126327   1.856   2.856  13.833 -0.7476 -0.8516 -0.1505
 1612TIP3    H226328   1.771   2.981  13.836  1.1092  0.4315  0.3074
 1613TIP3   OH226329   3.555   5.631   2.558  0.6529  0.3282 -0.3480
 1613TIP3    H126330   3.648   5.651   2.549  0.6344  0.3985 -0.3863
 1613TIP3    H226331   3.551   5.566   2.628  0.9594 -1.5544 -2.0221
 1614TIP3   OH226332   6.558   6.503  14.182 -0.5662  0.0225  0.2211
 1614TIP3    H126333   6.489   6.568  14.195 -0.5731 -0.2314  1.5378
 1614TIP3    H226334   6.562   6.491  14.087  0.8379  3.4618 -0.3242
 1615TIP3   OH226335   1.178   0.220  14.166 -0.1525  0.5408 -0.1861
 1615TIP3    H126336   1.129   0.296  14.197  0.6500  0.9871 -0.0099
 1615TIP3    H226337   1.220   0.249  14.085 -0.9882 -0.1530 -0.8940
 1616TIP3   OH226338   4.155   0.577   2.709 -0.1085 -0.3067  0.1813
 1616TIP3    H126339   4.074   0.550   2.754 -0.1056 -1.6703 -0.5723
 1616TIP3    H226340   4.159   0.520   2.632  1.0670  0.4341 -0.3231
 1617TIP3   OH226341   3.012   4.453   6.094 -0.2830 -0.1154 -0.2042
 1617TIP3    H126342   3.064   4.444   6.173 -0.1083  1.2739 -0.1324
 1617TIP3    H226343   3.003   4.548   6.082 -0.2923 -0.2954 -1.8452
 1618TIP3   OH226344   0.219   3.106   4.594 -0.0125 -0.3712  0.5544
 1618TIP3    H126345   0.288   3.058   4.640  1.5719  1.0077 -0.2775
 1618TIP3    H226346   0.174   3.039   4.542  0.4085 -1.3736  1.4329
 1619TIP3   OH226347   3.549   5.897  10.957  0.1421  0.1325  0.0924
 1619TIP3    H126348   3.643   5.916  10.960 -0.0259  0.9445  0.3660
 1619TIP3    H226349   3.535   5.834  11.028  0.6376 -0.7438 -0.5699
 1620TIP3   OH226350   4.771   5.885   0.546  0.4940 -0.2255  0.3429
 1620TIP3    H126351   4.843   5.877   0.483  0.5607  0.2713  0.3568
 1620TIP3    H226352   4.747   5.977   0.544 -1.2585 -0.6537 -0.8762
 1621TIP3   OH226353   1.840   0.067  14.410  0.4954  0.1741  0.3296
 1621TIP3    H126354   1.874   0.128  14.345 -0.1018 -0.1815 -0.3400
 1621TIP3    H226355   1.889  -0.014  14.396  1.5917  0.5995  1.5053
 1622TIP3   OH226356   5.650   4.514  11.096  0.0737 -0.2398  0.3412
 1622TIP3    H126357   5.559   4.505  11.123  0.7583 -3.3744  2.1349
 1622TIP3    H226358   5.693   4.559  11.168  0.0786  0.8205 -0.2982
 1623TIP3   OH226359   3.423   1.867   5.340 -0.0345 -0.3272  0.0715
 1623TIP3    H126360   3.498   1.808   5.336  1.9116  1.8829  1.2867
 1623TIP3    H226361   3.401   1.872   5.433 -0.1487  0.8364 -0.0068
 1624TIP3   OH226362   4.353   4.712  10.131 -0.6200  0.1047  0.0667
 1624TIP3    H126363   4.289   4.753  10.189  0.0110 -0.3415  1.0953
 1624TIP3    H226364   4.410   4.661  10.189  0.7018  0.5218 -0.7973
 1625TIP3   OH226365   4.930   0.549  16.807 -0.7337  0.4921  0.3010
 1625TIP3    H126366   4.921   0.562  16.901  2.1414  0.1443  0.7438
 1625TIP3    H226367   4.879   0.470  16.789 -0.6651  0.0763  1.7620
 1626TIP3   OH226368   0.282   1.650  12.848  0.1459  0.1761 -0.0578
 1626TIP3    H126369   0.203   1.679  12.893 -0.1717 -2.0764  0.9522
 1626TIP3    H226370   0.354   1.694  12.893 -0.3849  0.4865  0.4960
 1627TIP3   OH226371   3.699   0.505  10.743 -0.0315 -0.0753  0.7452
 1627TIP3    H126372   3.720   0.598  10.755  2.4957 -0.2343 -1.3309
 1627TIP3    H226373   3.679   0.497  10.649  1.1852 -1.8012  0.5815
 1628TIP3   OH226374   1.977   2.074  14.709 -0.8252 -0.4366  0.2746
 1628TIP3    H126375   1.927   2.054  14.630  0.3898 -1.5530 -0.2482
 1628TIP3    H226376   1.923   2.042  14.781 -1.9423  0.5811 -0.0730
 1629TIP3   OH226377   5.864   0.803   3.161  0.2502  0.2368  0.4233
 1629TIP3    H126378   5.891   0.730   3.217  2.8942  0.5287 -0.3300
 1629TIP3    H226379   5.847   0.763   3.076 -0.4993  0.2319  0.5681
 1630TIP3   OH226380   1.590   0.743   0.327 -0.3434 -0.3929  0.0981
 1630TIP3    H126381   1.673   0.723   0.371 -1.4776 -2.3175  1.5056
 1630TIP3    H226382   1.524   0.737   0.396 -1.9270 -1.2351 -1.4169
 1631TIP3   OH226383   4.503   0.586   0.155  0.2114  0.4052 -0.3914
 1631TIP3    H126384   4.587   0.554   0.186 -0.5554 -0.7518  0.5896
 1631TIP3    H226385   4.471   0.644   0.224 -0.9338 -1.1996  0.5036
 1632TIP3   OH226386   6.286   0.014   2.856  0.3520  0.2466  0.3931
 1632TIP3    H126387   6.337   0.091   2.831 -1.4338  2.1336  2.2117
 1632TIP3    H226388   6.202   0.025   2.811  0.4470 -1.2652 -0.2166
 1633TIP3   OH226389   2.817   2.674  10.924  0.6688  0.6107 -0.6232
 1633TIP3    H126390   2.778   2.597  10.964  0.5462  1.3801  0.7806
 1633TIP3    H226391   2.800   2.664  10.830 -1.1307 -0.0523 -0.2476
 1634TIP3   OH226392   5.189   4.397   5.460  0.2422 -0.4119 -0.1056
 1634TIP3    H126393   5.145   4.377   5.542  0.5925  0.7946  0.4068
 1634TIP3    H226394   5.132   4.461   5.417 -0.2196 -1.4548 -1.0794
 1635TIP3   OH226395   3.528   4.012   6.384 -0.2287 -0.1765 -0.3785
 1635TIP3    H126396   3.550   4.012   6.478  0.3161  0.7303 -0.4943
 1635TIP3    H226397   3.560   4.097   6.352 -1.0558 -0.1752 -1.2386
 1636TIP3   OH226398   6.163   1.637   5.053  0.7133 -0.8611  0.3565
 1636TIP3    H126399   6.209   1.604   5.130 -1.6433 -0.0022  2.2467
 1636TIP3    H226400   6.213   1.714   5.026  0.3316  0.1879  2.4866
 1637TIP3   OH226401   0.451   3.452  12.383  0.3145 -0.0736 -0.6989
 1637TIP3    H126402   0.529   3.443  12.438 -0.2654 -0.2805  0.1127
 1637TIP3    H226403   0.455   3.542  12.350  2.1155 -0.7938 -2.5968
 1638TIP3   OH226404   4.769   2.088   2.457  0.1343  0.2684 -0.6761
 1638TIP3    H126405   4.756   2.062   2.366  0.2005 -0.8913 -0.3720
 1638TIP3    H226406   4.852   2.135   2.456  0.6998 -0.6995 -1.0521
 1639TIP3   OH226407   3.618   6.067  16.066 -0.0565  0.4090  0.2025
 1639TIP3    H126408   3.618   6.158  16.096  0.7019  0.0407  1.3955
 1639TIP3    H226409   3.707   6.052  16.033 -0.5374  0.4519 -1.1581
 1640TIP3   OH226410   1.921   3.649  16.692 -0.3183  0.5611 -0.8520
 1640TIP3    H126411   1.964   3.708  16.631 -0.7807  1.5054 -0.2924
 1640TIP3    H226412   1.923   3.695  16.776 -0.1184 -0.5002 -0.2502
 1641TIP3   OH226413   3.272   3.807  12.499  0.4985 -0.1335  0.4942
 1641TIP3    H126414   3.197   3.749  12.496 -1.1580  1.9184 -0.4077
 1641TIP3    H226415   3.247   3.882  12.445  2.2307  1.7225  2.0663
 1642TIP3   OH226416   2.572   5.676   2.796 -0.2877 -0.3383  0.6531
 1642TIP3    H126417   2.655   5.695   2.753 -0.7672 -0.7948 -0.5013
 1642TIP3    H226418   2.505   5.710   2.736 -0.9761 -1.0661  0.9874
 1643TIP3   OH226419   6.038   2.371   0.111  0.1487  0.2293 -0.0981
 1643TIP3    H126420   5.952   2.411   0.124  0.4018  0.5476  0.6475
 1643TIP3    H226421   6.100   2.435   0.146  0.6402 -0.2792 -0.0229
 1644TIP3   OH226422   3.564   4.194  15.615  0.1642 -0.5501 -0.1182
 1644TIP3    H126423   3.655   4.220  15.605  0.0474  0.3824  1.0311
 1644TIP3    H226424   3.560   4.152  15.700 -1.5308  4.9832  3.0333
 1645TIP3   OH226425   5.153   3.395   4.334 -0.1111 -0.0148  0.1038
 1645TIP3    H126426   5.098   3.409   4.411 -0.7318 -0.5996 -0.2205
 1645TIP3    H226427   5.111   3.322   4.288  0.6652 -0.1478 -0.4055
 1646TIP3   OH226428   5.689   1.908   2.212  0.0266 -0.5389  0.4893
 1646TIP3    H126429   5.708   1.817   2.190  0.7413  0.0318 -1.4863
 1646TIP3    H226430   5.689   1.954   2.128 -0.6100  1.2446  1.4013
 1647TIP3   OH226431   4.716   6.318  13.178 -0.2991  0.2679 -0.2085
 1647TIP3    H126432   4.692   6.230  13.206 -0.6741  0.1161 -0.9724
 1647TIP3    H226433   4.640   6.372  13.202  0.1100  0.4744  0.6575
 1648TIP3   OH226434   1.908   4.621  15.554 -0.0678 -0.0339  0.1544
 1648TIP3    H126435   1.917   4.652  15.464  0.2286  1.0801  0.5552
 1648TIP3    H226436   1.989   4.573  15.571  0.3065  0.5821  0.1373
 1649TIP3   OH226437   1.447   2.950  12.839 -0.1291 -0.5408  0.0426
 1649TIP3    H126438   1.536   2.916  12.823 -1.1972 -3.5536 -0.2080
 1649TIP3    H226439   1.447   3.037  12.801  3.5526  0.8521  2.6327
 1650TIP3   OH226440   6.282   0.832   4.373  0.2573 -0.0353  0.3590
 1650TIP3    H126441   6.297   0.923   4.400  1.0219 -0.1492  0.3165
 1650TIP3    H226442   6.229   0.839   4.294 -1.9717  0.3112  1.7704
 1651TIP3   OH226443   4.657   1.174   2.462 -0.2345 -0.0642  0.5240
 1651TIP3    H126444   4.619   1.258   2.436 -0.3641  0.5186  2.4618
 1651TIP3    H226445   4.582   1.118   2.480 -0.1473 -0.2687  0.2644
 1652TIP3   OH226446   2.399   5.513   1.990  0.3390 -0.8685 -0.1304
 1652TIP3    H126447   2.416   5.420   2.006  0.1105 -1.0284 -0.7561
 1652TIP3    H226448   2.309   5.526   2.020  0.1478 -1.0063 -0.6308
 1653TIP3   OH226449   0.714   6.214  15.686  0.0660 -0.2132  0.2342
 1653TIP3    H126450   0.769   6.292  15.696  0.3514 -0.5516  1.4407
 1653TIP3    H226451   0.759   6.163  15.619  1.2912 -0.5114  1.2447
 1654TIP3   OH226452   6.066   3.038   3.085 -0.6967  0.2153 -0.0762
 1654TIP3    H126453   6.056   3.010   2.994 -2.0397  0.1415  0.0834
 1654TIP3    H226454   6.027   3.126   3.088  1.3414  1.1750 -0.0453
 1655TIP3   OH226455   3.706   3.725   1.038  0.6607  0.5653 -0.4191
 1655TIP3    H126456   3.735   3.808   1.001  0.7940  0.5231 -0.4077
 1655TIP3    H226457   3.612   3.736   1.050  0.9119  1.2618  1.0127
 1656TIP3   OH226458   0.504   3.609   5.228 -0.4864 -0.3371  0.0838
 1656TIP3    H126459   0.536   3.679   5.171 -2.7162  1.3711  0.8335
 1656TIP3    H226460   0.414   3.594   5.200 -0.8928 -1.0858  1.6676
 1657TIP3   OH226461   3.590   1.408   5.981  0.6840 -0.3308  0.4087
 1657TIP3    H126462   3.537   1.364   6.047  2.8132 -2.2274  0.9630
 1657TIP3    H226463   3.662   1.449   6.030  0.5117  1.0738 -0.4366
 1658TIP3   OH226464   3.751   3.289  10.695 -0.6676  0.1355 -0.1186
 1658TIP3    H126465   3.666   3.273  10.653  0.2140  1.5897 -2.7078
 1658TIP3    H226466   3.737   3.369  10.746 -1.5896 -1.3213  2.0771
 1659TIP3   OH226467   5.407   4.451   4.797 -0.6756 -0.1372  0.4074
 1659TIP3    H126468   5.476   4.503   4.837 -1.8777  1.7451  0.1809
 1659TIP3    H226469   5.372   4.398   4.869  0.9892 -1.1615  0.5056
 1660TIP3   OH226470   3.058   0.658   3.365 -0.4030 -0.5086 -0.3125
 1660TIP3    H126471   3.076   0.572   3.325 -1.3595 -1.2235  0.7150
 1660TIP3    H226472   3.092   0.650   3.454  1.8565  1.1248 -0.9596
 1661TIP3   OH226473   2.196   1.311  11.305  0.4332  0.0612 -0.1630
 1661TIP3    H126474   2.115   1.318  11.254 -0.3997 -0.6484  1.0148
 1661TIP3    H226475   2.205   1.397  11.346 -1.1271 -0.5642  1.6642
 1662TIP3   OH226476   2.575   6.552  15.965 -0.3809 -0.3936 -0.3091
 1662TIP3    H126477   2.595   6.470  16.011 -0.8936 -0.7178 -0.6553
 1662TIP3    H226478   2.655   6.573  15.918  0.4162  0.3361  1.2813
 1663TIP3   OH226479   5.494   0.739  13.865  0.4845 -0.1632 -0.3543
 1663TIP3    H126480   5.531   0.672  13.807  0.9501 -2.0019  1.9050
 1663TIP3    H226481   5.562   0.806  13.870  0.6988 -0.2911 -1.4185
 1664TIP3   OH226482   3.254   0.987   5.438  0.2215  0.1608  0.5734
 1664TIP3    H126483   3.175   0.942   5.408  0.8116 -1.3080  1.1720
 1664TIP3    H226484   3.223   1.044   5.509 -0.3292 -0.2830  0.7014
 1665TIP3   OH226485   2.316   2.553  14.164 -0.9793 -0.9409 -0.1596
 1665TIP3    H126486   2.410   2.536  14.170 -0.4666  0.9749 -1.6003
 1665TIP3    H226487   2.297   2.613  14.236 -0.4102  1.0563 -1.5989
 1666TIP3   OH226488   4.412   5.760  14.224  0.3826  0.1393  0.3806
 1666TIP3    H126489   4.380   5.795  14.307  0.2087 -2.1866  1.3736
 1666TIP3    H226490   4.462   5.832  14.185  0.6625  1.2324  2.5974
 1667TIP3   OH226491   6.228   1.107  11.376  0.8784  0.1098  0.0291
 1667TIP3    H126492   6.163   1.151  11.322 -0.7724 -2.0319  0.1034
 1667TIP3    H226493   6.262   1.037  11.320  2.7024  0.7833  0.2213
 1668TIP3   OH226494   6.374   5.369   2.342 -0.3435 -0.4478  0.4231
 1668TIP3    H126495   6.354   5.365   2.248 -0.9544 -0.1621  0.5355
 1668TIP3    H226496   6.469   5.373   2.346 -0.2651 -1.4580 -0.1475
 1669TIP3   OH226497   0.077   4.973   3.216 -0.4041  0.2007 -0.2493
 1669TIP3    H126498   0.137   5.026   3.269 -0.5171 -0.5028  0.6197
 1669TIP3    H226499  -0.002   4.966   3.270 -1.3461  1.2105 -1.4240
 1670TIP3   OH226500   2.854   2.362  15.047  0.5853  0.6327  0.1178
 1670TIP3    H126501   2.834   2.269  15.060  1.1462  0.3908 -0.6869
 1670TIP3    H226502   2.944   2.363  15.014  0.2582  1.4031 -0.7935
 1671TIP3   OH226503   5.699   3.960   0.574  0.0765  0.3158  0.0598
 1671TIP3    H126504   5.725   3.992   0.661  1.6564 -0.4555 -0.0923
 1671TIP3    H226505   5.603   3.964   0.575  0.0364  0.0572  1.9438
 1672TIP3   OH226506   0.646   1.316  11.081  0.3015 -0.0907 -0.4426
 1672TIP3    H126507   0.550   1.317  11.078  0.2010 -2.8373 -0.5975
 1672TIP3    H226508   0.673   1.278  10.998  1.5615  0.7008 -0.4295
 1673TIP3   OH226509   4.401   3.505   6.232 -0.1090 -0.0090 -0.6827
 1673TIP3    H126510   4.365   3.416   6.222  0.9182 -0.4797 -0.3490
 1673TIP3    H226511   4.324   3.561   6.235 -0.7720 -0.8215 -1.5146
 1674TIP3   OH226512   3.171   5.327  14.444 -0.1183 -0.1700  0.2189
 1674TIP3    H126513   3.261   5.355  14.430  0.3858 -1.5228  0.5946
 1674TIP3    H226514   3.168   5.301  14.536 -0.4392 -1.6619 -0.1824
 1675TIP3   OH226515   6.231   2.877  10.563 -0.0272 -0.0518 -0.0655
 1675TIP3    H126516   6.217   2.971  10.568  1.0906  0.1240  0.0861
 1675TIP3    H226517   6.149   2.842  10.530  0.0231  1.1387 -1.5519
 1676TIP3   OH226518   4.425   0.321  15.988 -0.1166 -0.1558 -0.4135
 1676TIP3    H126519   4.336   0.299  16.017  0.1375 -1.1896 -0.3720
 1676TIP3    H226520   4.419   0.411  15.956 -1.2828 -0.3702 -0.8390
 1677TIP3   OH226521   0.406   1.391   3.027  0.3325  0.3888  0.6490
 1677TIP3    H126522   0.484   1.446   3.029  0.7126 -0.1271  0.0070
 1677TIP3    H226523   0.338   1.448   2.990  0.8447  0.2811 -0.4712
 1678TIP3   OH226524   0.859   4.183   0.289  0.4350  0.3071 -0.1876
 1678TIP3    H126525   0.848   4.088   0.293  1.0737  0.2465  0.2182
 1678TIP3    H226526   0.931   4.202   0.349 -0.1664  1.1295  0.2911
 1679TIP3   OH226527   2.041   4.619   3.144  0.1350 -0.5181  0.3753
 1679TIP3    H126528   2.089   4.693   3.107 -0.9226 -0.7935 -1.6415
 1679TIP3    H226529   1.962   4.658   3.181  0.1055 -0.5181  0.3116
 1680TIP3   OH226530   4.875   1.736  12.879 -0.0404  0.1561  0.0646
 1680TIP3    H126531   4.824   1.688  12.944 -1.5673 -0.2583 -1.3600
 1680TIP3    H226532   4.856   1.691  12.796  1.1347  1.1931 -0.8009
 1681TIP3   OH226533   4.355   3.866   6.023  0.5063 -0.1265 -0.1328
 1681TIP3    H126534   4.431   3.825   6.065 -0.2838  0.7933  2.3398
 1681TIP3    H226535   4.281   3.809   6.044 -0.2624  1.4347  1.6448
 1682TIP3   OH226536   1.331   4.263   1.266  0.1512  0.5626 -0.4384
 1682TIP3    H126537   1.341   4.312   1.185 -0.4794 -1.0122 -1.5254
 1682TIP3    H226538   1.358   4.173   1.243 -1.0091 -0.1394  0.8050
 1683TIP3   OH226539   3.168   0.503  16.869  0.2174  0.8472 -0.7760
 1683TIP3    H126540   3.146   0.444  16.797  1.4117  1.1313 -1.4126
 1683TIP3    H226541   3.109   0.478  16.940  0.8606 -1.3151 -0.9238
 1684TIP3   OH226542   5.416   2.499   3.074 -0.1381 -0.4245 -0.7807
 1684TIP3    H126543   5.326   2.507   3.042 -0.2843  1.2708 -0.0475
 1684TIP3    H226544   5.407   2.471   3.165 -0.1313  2.7394  0.2942
 1685TIP3   OH226545   1.086   4.294   3.288  0.2872 -0.4130  0.8300
 1685TIP3    H126546   0.992   4.311   3.277  0.3603 -1.1746 -1.3324
 1685TIP3    H226547   1.117   4.369   3.339 -1.3496  0.2020  1.0113
 1686TIP3   OH226548   0.409   2.520   3.593 -0.2794 -0.1920 -0.4534
 1686TIP3    H126549   0.360   2.532   3.675  2.1973 -0.6597  1.2176
 1686TIP3    H226550   0.437   2.428   3.595  1.0680  0.1802 -1.0545
 1687TIP3   OH226551   5.301   5.676  16.408 -0.0274  0.4251  0.7827
 1687TIP3    H126552   5.291   5.631  16.325  3.3011 -0.5708  0.7890
 1687TIP3    H226553   5.284   5.609  16.475  4.2464 -0.9286  0.7865
 1688TIP3   OH226554   2.731   5.849  14.130 -0.7058 -0.0612 -0.5033
 1688TIP3    H126555   2.689   5.910  14.192 -0.1974 -0.5905  0.3725
 1688TIP3    H226556   2.678   5.857  14.050 -2.6076 -0.8414  0.6208
 1689TIP3   OH226557   3.909   3.929   3.338 -0.4411  0.0500 -0.1341
 1689TIP3    H126558   3.936   3.980   3.261 -1.0905  0.5044 -0.0679
 1689TIP3    H226559   3.818   3.906   3.321 -0.5968  0.1791  0.5176
 1690TIP3   OH226560   6.338   2.235  16.524  0.3297 -0.6423  0.2614
 1690TIP3    H126561   6.305   2.170  16.462  1.5589 -1.1927  0.1589
 1690TIP3    H226562   6.267   2.246  16.587 -2.0604  1.8807 -2.5842
 1691TIP3   OH226563   0.850   5.729   0.431  0.8505 -0.7387 -0.2143
 1691TIP3    H126564   0.825   5.816   0.402  1.6551  0.2818  1.9867
 1691TIP3    H226565   0.767   5.683   0.443  0.3459  0.2256  0.0902
 1692TIP3   OH226566   6.280   3.595   0.131  0.2942 -0.2584  0.8758
 1692TIP3    H126567   6.339   3.587   0.206 -1.3322  1.1764  2.4152
 1692TIP3    H226568   6.320   3.662   0.075  0.4149  0.3153  1.6352
 1693TIP3   OH226569   6.434   3.475  10.313  0.1363 -0.2173  0.9990
 1693TIP3    H126570   6.494   3.404  10.292  0.7340  0.3653  0.6995
 1693TIP3    H226571   6.466   3.511  10.395  0.7179  0.6408  0.4102
 1694TIP3   OH226572   1.457   6.654   5.648 -0.8250  0.0213  0.1383
 1694TIP3    H126573   1.372   6.639   5.607 -1.7224  2.5002  0.9119
 1694TIP3    H226574   1.446   6.627   5.739 -0.2314 -1.1672 -0.1119
 1695TIP3   OH226575   0.775   2.559  12.243  0.7250  0.0806 -0.0533
 1695TIP3    H126576   0.758   2.472  12.207  0.6563 -0.8027  1.9353
 1695TIP3    H226577   0.870   2.569  12.240  0.6680  0.3477 -1.1387
 1696TIP3   OH226578   6.509   1.722   5.438  0.1095  0.6497 -0.4026
 1696TIP3    H126579   6.554   1.798   5.474 -1.1576  0.9947  0.5094
 1696TIP3    H226580   6.554   1.647   5.476 -0.1367  0.9873  0.5836
 1697TIP3   OH226581   5.941   2.235  13.617  0.1184  0.4106 -0.2584
 1697TIP3    H126582   5.853   2.255  13.650 -0.2485  0.7392 -1.3888
 1697TIP3    H226583   5.926   2.192  13.533  0.9699 -2.3295  0.8828
 1698TIP3   OH226584   0.387   1.938   4.467 -0.5002 -0.1978 -0.3841
 1698TIP3    H126585   0.355   2.022   4.499 -0.2108 -0.2866  0.1507
 1698TIP3    H226586   0.434   1.900   4.541 -1.6065 -1.3433 -0.2238
 1699TIP3   OH226587   0.289   3.448  16.266 -0.7219  0.0975 -0.1174
 1699TIP3    H126588   0.246   3.372  16.227  0.1413 -0.1284 -0.6405
 1699TIP3    H226589   0.219   3.514  16.272 -1.6358 -0.9069  0.8883
 1700TIP3   OH226590   3.105   1.541  16.647 -0.2863 -0.2223 -0.6535
 1700TIP3    H126591   3.108   1.570  16.556  0.3468 -0.9747 -0.8887
 1700TIP3    H226592   3.162   1.602  16.694 -2.0540  1.3094 -0.3955
 1701TIP3   OH226593   2.042   3.479  13.687  0.2978 -0.1812  0.2938
 1701TIP3    H126594   2.102   3.554  13.690 -1.2282  1.1095 -0.2531
 1701TIP3    H226595   2.001   3.478  13.773  1.4369 -1.4034  0.8633
 1702TIP3   OH226596   3.937   0.157   3.040  0.3414 -0.1935  0.4086
 1702TIP3    H126597   3.889   0.116   3.111 -0.2951 -2.0522 -1.0115
 1702TIP3    H226598   4.029   0.141   3.061  0.1260 -2.1145  0.1111
 1703TIP3   OH226599   5.894   4.837  13.426 -0.1645 -0.2116  0.6743
 1703TIP3    H126600   5.879   4.894  13.351  1.0091  0.4106  0.8887
 1703TIP3    H226601   5.973   4.788  13.403 -1.4658 -2.2406  0.2308
 1704TIP3   OH226602   3.979   0.049  17.092  0.2440 -0.6087 -0.3652
 1704TIP3    H126603   3.973   0.096  17.009 -1.9204 -1.1147 -0.5414
 1704TIP3    H226604   4.065   0.074  17.127  1.8454 -1.4288 -3.3400
 1705TIP3   OH226605   1.803   2.218  16.681  0.9088 -0.0749 -0.8226
 1705TIP3    H126606   1.752   2.279  16.735  1.6572  0.0265 -0.2026
 1705TIP3    H226607   1.876   2.270  16.648  0.4371 -0.1305 -1.9860
 1706TIP3   OH226608   0.948   0.105   2.247 -0.1595 -0.1285  0.2437
 1706TIP3    H126609   0.903   0.188   2.265  0.5611  0.7201 -1.5951
 1706TIP3    H226610   0.970   0.071   2.334 -2.0329  0.7010  1.0976
 1707TIP3   OH226611   4.335   0.409  11.250  0.4843  0.3075  0.0832
 1707TIP3    H126612   4.306   0.496  11.222  0.9044  0.6579  0.7265
 1707TIP3    H226613   4.377   0.372  11.173  0.8071  0.8987 -0.0277
 1708TIP3   OH226614   5.695   6.205  11.255  0.0392 -0.4521 -0.2209
 1708TIP3    H126615   5.639   6.164  11.321 -0.5336 -1.6518 -1.3992
 1708TIP3    H226616   5.633   6.249  11.196  0.5304  0.4842 -0.0574
 1709TIP3   OH226617   5.056   3.594   0.328  0.5578 -0.1623 -0.1441
 1709TIP3    H126618   4.961   3.604   0.334  0.5797  0.2553 -0.4273
 1709TIP3    H226619   5.091   3.662   0.386  0.6984  0.6906 -1.1919
 1710TIP3   OH226620   4.141   6.374   1.915 -0.2547  0.0151  0.6506
 1710TIP3    H126621   4.233   6.390   1.935 -0.3534 -1.1629  2.3505
 1710TIP3    H226622   4.122   6.289   1.957 -1.5200 -0.9383 -1.6459
 1711TIP3   OH226623   0.426   0.026   2.729  0.1073 -0.2587  0.2045
 1711TIP3    H126624   0.359   0.090   2.707  0.2602  0.3375  1.4464
 1711TIP3    H226625   0.423  -0.037   2.656 -0.6915  0.6204 -0.5472
 1712TIP3   OH226626   5.254   4.954  13.341 -0.4119 -0.2891 -0.3768
 1712TIP3    H126627   5.304   4.886  13.296 -1.0962 -0.6223 -0.6549
 1712TIP3    H226628   5.268   4.936  13.434  0.2137 -0.2007 -0.4498
 1713TIP3   OH226629   0.405   6.021  11.711 -0.0710 -0.3336 -0.1777
 1713TIP3    H126630   0.447   5.981  11.635 -0.1105 -1.3646  0.3263
 1713TIP3    H226631   0.439   6.111  11.713 -0.1362 -0.2620 -1.4516
 1714TIP3   OH226632   2.891   3.193   1.753  0.0825  0.1285 -0.6446
 1714TIP3    H126633   2.946   3.231   1.821 -0.3562 -0.9551  0.3546
 1714TIP3    H226634   2.825   3.143   1.801  1.5163 -3.1993 -1.7838
 1715TIP3   OH226635   3.005   3.471   4.087  0.0469 -0.1151 -0.0756
 1715TIP3    H126636   3.081   3.516   4.049 -0.9623  1.1192 -0.7078
 1715TIP3    H226637   3.017   3.379   4.063  1.8074 -0.1208  0.6350
 1716TIP3   OH226638   6.129   2.467   6.072 -0.0104 -0.7611  0.1452
 1716TIP3    H126639   6.183   2.398   6.032  0.0045 -0.0721 -1.0663
 1716TIP3    H226640   6.141   2.455   6.167 -0.3727 -2.6926 -0.0230
 1717TIP3   OH226641   1.458   0.510  15.098 -0.2025 -0.2392 -0.1120
 1717TIP3    H126642   1.476   0.432  15.150  0.3485 -0.3542 -0.4581
 1717TIP3    H226643   1.514   0.501  15.021 -1.2006 -0.2153 -0.8662
 1718TIP3   OH226644   6.797   3.164   5.884 -0.3319 -0.1186 -0.4345
 1718TIP3    H126645   6.768   3.098   5.821 -1.4345 -0.7668  0.7069
 1718TIP3    H226646   6.857   3.117   5.943  0.8829  0.5381 -1.1104
 1719TIP3   OH226647   6.830   0.024  11.612 -0.2368 -0.4446  0.5441
 1719TIP3    H126648   6.900  -0.009  11.667  1.3059  0.1545 -0.9740
 1719TIP3    H226649   6.783   0.087  11.669  1.8044  0.7849  0.9706
 1720TIP3   OH226650   6.861   1.224   4.556 -0.1530 -0.6907 -0.1201
 1720TIP3    H126651   6.790   1.288   4.563  0.1679 -0.4226  0.8408
 1720TIP3    H226652   6.833   1.165   4.486 -0.0750  0.9749 -1.6208
 1721TIP3   OH226653   2.860   4.682   4.504 -0.2218 -0.2658 -0.2021
 1721TIP3    H126654   2.872   4.679   4.409 -2.6315  0.1620 -0.5990
 1721TIP3    H226655   2.820   4.767   4.521 -0.9121 -0.7910  1.0115
 1722TIP3   OH226656   0.655   6.842   0.981  0.1736 -0.0084 -0.7805
 1722TIP3    H126657   0.747   6.865   0.997 -0.4658  2.2753 -0.0276
 1722TIP3    H226658   0.605   6.909   1.028 -1.8890 -0.8479 -1.6622
 1723TIP3   OH226659   0.765   0.359   6.469  0.1602  0.1350 -0.2371
 1723TIP3    H126660   0.819   0.366   6.548  0.4947  1.4236 -0.5508
 1723TIP3    H226661   0.763   0.266   6.449  2.2709  0.0339 -0.2056
 1724TIP3   OH226662   5.720   4.032   3.846 -0.0711 -0.1167  0.4658
 1724TIP3    H126663   5.720   4.116   3.892  1.1556 -0.5533  1.3339
 1724TIP3    H226664   5.805   4.029   3.801 -0.5797 -0.4091 -0.5046
 1725TIP3   OH226665   6.356   4.447   1.283 -0.1946  0.1964 -0.0572
 1725TIP3    H126666   6.434   4.500   1.266 -0.9812  0.8077 -2.0040
 1725TIP3    H226667   6.364   4.422   1.375  1.8130  1.0219  0.0402
 1726TIP3   OH226668   1.410   4.932  14.844  0.5260  0.3097 -0.5713
 1726TIP3    H126669   1.379   4.868  14.779 -0.2834  0.7591 -0.6419
 1726TIP3    H226670   1.340   4.936  14.909  0.3297  1.4627 -0.8167
 1727TIP3   OH226671   2.937   6.603  14.749  0.7843  0.4370  0.0607
 1727TIP3    H126672   2.974   6.599  14.838 -3.1800 -1.3720  1.8961
 1727TIP3    H226673   2.976   6.528  14.704  1.7356  0.4782  0.7780
 1728TIP3   OH226674   5.051   4.958  12.975 -0.6617 -0.5286 -0.2225
 1728TIP3    H126675   5.050   5.050  13.003 -2.2814 -1.0488  1.6451
 1728TIP3    H226676   5.002   4.958  12.892 -0.8472  0.2662 -0.1253
 1729TIP3   OH226677   3.105   4.593   2.643  0.2649 -0.1531  0.1502
 1729TIP3    H126678   3.039   4.563   2.705 -1.5851 -0.1941 -1.7001
 1729TIP3    H226679   3.111   4.687   2.658 -0.0179 -0.1957  0.5445
 1730TIP3   OH226680   4.307   5.034   6.414 -0.1179  0.1168 -0.6377
 1730TIP3    H126681   4.356   5.105   6.456 -0.4958 -0.7540  1.3822
 1730TIP3    H226682   4.270   5.075   6.335 -0.2067  2.1363  0.3710
 1731TIP3   OH226683   2.629   2.983   0.076 -0.1506  0.0018 -0.2202
 1731TIP3    H126684   2.724   2.981   0.083  0.0106  1.3045 -1.3777
 1731TIP3    H226685   2.608   3.076   0.064 -1.4678 -0.3492 -0.9052
 1732TIP3   OH226686   2.462   5.214   3.903  0.0833  0.2019  0.1505
 1732TIP3    H126687   2.439   5.121   3.901  0.6386  0.0694 -0.3088
 1732TIP3    H226688   2.531   5.220   3.970  1.8683 -0.1645 -1.5736
 1733TIP3   OH226689   5.248   1.748   5.705  0.5148 -0.0197  0.1346
 1733TIP3    H126690   5.289   1.668   5.671 -0.4242 -0.3134 -0.3475
 1733TIP3    H226691   5.316   1.815   5.696  0.4161 -0.1431 -2.0847
 1734TIP3   OH226692   4.255   1.149   6.355 -0.1084  0.1460 -0.3126
 1734TIP3    H126693   4.312   1.190   6.420  0.1801 -0.4696 -0.1674
 1734TIP3    H226694   4.168   1.185   6.373  0.1360  0.6729 -0.1793
 1735TIP3   OH226695   4.286   1.492   2.984 -0.2191 -0.3847 -0.0538
 1735TIP3    H126696   4.264   1.443   3.064 -0.3608 -1.4817 -0.7385
 1735TIP3    H226697   4.276   1.428   2.914  0.9634  0.2726 -0.8492
 1736TIP3   OH226698   6.430   2.386   1.449 -0.4512  1.8130  0.3332
 1736TIP3    H126699   6.445   2.433   1.368  0.8957  0.0069 -0.5331
 1736TIP3    H226700   6.358   2.325   1.428  0.7019  0.4971  0.0726
 1737TIP3   OH226701   6.065   0.117   5.082  0.1309 -0.3443  0.1960
 1737TIP3    H126702   6.148   0.110   5.036 -0.0629  3.0071 -0.9320
 1737TIP3    H226703   6.001   0.137   5.014 -0.9850  0.3817  1.4081
 1738TIP3   OH226704   4.644   4.503  15.705  0.0721 -1.2453  0.2879
 1738TIP3    H126705   4.652   4.430  15.645  0.9829 -0.8834 -0.0526
 1738TIP3    H226706   4.557   4.538  15.689 -0.4022 -2.2884  0.5103
 1739TIP3   OH226707   6.597   4.210  11.151  0.4416  1.0705  0.2118
 1739TIP3    H126708   6.558   4.285  11.105  0.3439 -0.2473 -2.0135
 1739TIP3    H226709   6.523   4.167  11.193  0.3407  1.6017  0.5906
 1740TIP3   OH226710   5.368   4.819  16.978  0.1316  0.4711 -0.4154
 1740TIP3    H126711   5.382   4.847  16.887  0.0573 -0.8112 -0.8499
 1740TIP3    H226712   5.411   4.733  16.983 -1.8980 -0.5912  0.0621
 1741TIP3   OH226713   4.428   1.479   1.238  0.6954 -0.8144 -0.9921
 1741TIP3    H126714   4.482   1.440   1.307 -2.2059  0.0476  2.0224
 1741TIP3    H226715   4.419   1.571   1.264 -0.3403 -0.4047 -2.6555
 1742TIP3   OH226716   6.170   5.062  16.219 -0.2047  0.2194  0.5926
 1742TIP3    H126717   6.200   5.144  16.179  2.1108 -0.9584 -0.3013
 1742TIP3    H226718   6.165   5.081  16.312  0.4385  1.3601  0.4140
 1743TIP3   OH226719   1.470   6.498  16.864  0.3646 -0.1139  0.6162
 1743TIP3    H126720   1.475   6.429  16.798 -0.4788 -1.4163  1.8473
 1743TIP3    H226721   1.475   6.580  16.814  0.0403 -1.0393 -1.0115
 1744TIP3   OH226722   0.241   2.285  11.022  0.0236 -0.1983 -0.2149
 1744TIP3    H126723   0.303   2.331  10.966  0.7133  0.7435  1.2719
 1744TIP3    H226724   0.174   2.350  11.043 -0.6104 -0.7458 -0.5013
 1745TIP3   OH226725   3.485   3.297  10.908 -0.2742 -0.1555  0.0019
 1745TIP3    H126726   3.427   3.373  10.906  1.0076  0.9141  1.1884
 1745TIP3    H226727   3.486   3.270  11.000  0.2805 -0.7917 -0.1821
 1746TIP3   OH226728   3.241   5.340  16.907  0.2831  0.0945  0.3031
 1746TIP3    H126729   3.176   5.381  16.849 -0.5187 -1.6210 -0.0795
 1746TIP3    H226730   3.191   5.310  16.982  0.5956 -1.2823 -0.0105
 1747TIP3   OH226731   4.675   4.142   1.197 -0.6497 -0.2542  0.1399
 1747TIP3    H126732   4.614   4.087   1.148  0.8138 -0.5496 -1.4385
 1747TIP3    H226733   4.761   4.122   1.160  0.3319  0.7337  1.7477
 1748TIP3   OH226734   4.110   1.688   1.219 -0.1647 -0.0368  0.0117
 1748TIP3    H126735   4.038   1.747   1.239  0.6568  0.4771  1.6417
 1748TIP3    H226736   4.184   1.723   1.268  0.7306 -1.5764 -0.1748
 1749TIP3   OH226737   2.935   0.800   2.760 -0.7002 -0.1045 -0.0983
 1749TIP3    H126738   3.024   0.825   2.785 -0.2425 -1.0379 -0.7382
 1749TIP3    H226739   2.908   0.868   2.698  0.5439 -1.1191 -1.8477
 1750TIP3   OH226740   2.883   5.615   4.808 -0.0506  0.2789  0.1549
 1750TIP3    H126741   2.836   5.698   4.796 -0.4518 -0.0108 -0.2748
 1750TIP3    H226742   2.953   5.618   4.742 -0.7058 -0.1845 -0.5745
 1751TIP3   OH226743   1.395   6.096   0.185 -0.4333  0.1679 -0.1443
 1751TIP3    H126744   1.369   6.006   0.206 -0.6429  0.2870  0.1107
 1751TIP3    H226745   1.398   6.140   0.270  2.2458 -0.2567  0.0668
 1752TIP3   OH226746   4.605   1.821  11.377 -0.0787  0.4523 -0.0531
 1752TIP3    H126747   4.539   1.886  11.356 -1.3368 -0.0623  2.0509
 1752TIP3    H226748   4.599   1.756  11.307 -1.2659  0.7996 -0.2851
 1753TIP3   OH226749   4.147   4.274   2.598  0.0676  0.2867 -0.2564
 1753TIP3    H126750   4.126   4.199   2.542 -0.9481  0.9627 -0.8093
 1753TIP3    H226751   4.188   4.235   2.675 -1.0338 -0.9025 -0.2360
 1754TIP3   OH226752   5.219   1.383  11.544 -0.0220 -0.2794  0.0521
 1754TIP3    H126753   5.241   1.470  11.574 -0.0435  0.2036 -1.2575
 1754TIP3    H226754   5.302   1.336  11.543  0.1093 -0.0468  0.0519
 1755TIP3   OH226755   0.044   5.815   3.888  0.0041  0.2261  0.1666
 1755TIP3    H126756   0.009   5.742   3.836  0.7796 -0.9762  1.2565
 1755TIP3    H226757  -0.016   5.824   3.962 -1.2654  2.1332 -1.0041
 1756TIP3   OH226758   1.888   4.592   2.761  0.1923  0.5367  0.0942
 1756TIP3    H126759   1.818   4.618   2.702  0.9482  1.5055 -0.4081
 1756TIP3    H226760   1.855   4.515   2.806 -1.6040  1.5503  0.5980
 1757TIP3   OH226761   3.457   2.387  11.529 -0.2418 -0.1276 -0.4800
 1757TIP3    H126762   3.543   2.382  11.571 -1.4737 -3.3977  2.1061
 1757TIP3    H226763   3.455   2.473  11.488  2.6970  1.7862  2.8638
 1758TIP3   OH226764   4.033   0.815   4.910 -0.1747  0.0726 -0.7083
 1758TIP3    H126765   4.061   0.781   4.995 -0.5294 -0.5550 -0.8306
 1758TIP3    H226766   4.031   0.910   4.921  1.7104  0.1397 -0.6258
 1759TIP3   OH226767   5.439   0.967  16.023  0.5611 -0.0246 -0.4859
 1759TIP3    H126768   5.510   0.911  15.992 -0.1584 -0.4241 -1.4558
 1759TIP3    H226769   5.373   0.907  16.056  1.1850  0.3799  1.6557
 1760TIP3   OH226770   1.728   6.800   0.887 -0.1547 -0.5514 -0.3934
 1760TIP3    H126771   1.755   6.828   0.800  0.6620 -1.2803 -0.3843
 1760TIP3    H226772   1.650   6.852   0.906  1.5785  2.1296 -0.1432
 1761TIP3   OH226773   5.863   2.050  15.625  0.1899 -0.0271 -0.8777
 1761TIP3    H126774   5.902   1.964  15.640  0.1985  0.1595  0.2594
 1761TIP3    H226775   5.781   2.048  15.673  0.5591  0.8623 -0.1885
 1762TIP3   OH226776   3.491   0.775  14.415 -0.6868  0.1569  0.2607
 1762TIP3    H126777   3.471   0.760  14.322 -1.0050  0.9349  0.1897
 1762TIP3    H226778   3.516   0.690  14.449 -0.5040 -0.1226 -0.5613
 1763TIP3   OH226779   0.131   5.911  12.670  0.1900 -0.0703  0.0586
 1763TIP3    H126780   0.110   5.896  12.762  0.6999 -1.1002  0.0154
 1763TIP3    H226781   0.046   5.910  12.626 -0.0219  0.0357  0.4628
 1764TIP3   OH226782   5.673   5.193   5.535  0.1041 -0.1989 -0.2079
 1764TIP3    H126783   5.700   5.155   5.619  1.1143 -0.5148 -0.6548
 1764TIP3    H226784   5.670   5.287   5.551 -1.0910 -0.3388  0.5472
 1765TIP3   OH226785   0.737   4.585   6.435 -0.0440 -0.6616 -0.2267
 1765TIP3    H126786   0.820   4.553   6.472  0.5977 -0.8256 -1.7491
 1765TIP3    H226787   0.670   4.531   6.477  0.5873 -0.4498  1.1180
 1766TIP3   OH226788   6.040   0.435  13.544  0.2434 -0.5558 -0.1403
 1766TIP3    H126789   6.068   0.484  13.467 -0.3626  0.5943  0.3437
 1766TIP3    H226790   5.989   0.498  13.596  1.2791 -1.0692  1.5827
 1767TIP3   OH226791   0.582   4.292  11.818  0.4861  0.5952  0.2558
 1767TIP3    H126792   0.640   4.366  11.839 -0.4827  1.0215  1.5429
 1767TIP3    H226793   0.507   4.332  11.775 -0.1816  0.4134  1.2306
 1768TIP3   OH226794   3.742   1.732  16.464  0.3269  0.5919  0.2501
 1768TIP3    H126795   3.833   1.732  16.434  0.3342 -1.6416  0.0886
 1768TIP3    H226796   3.706   1.649  16.432 -1.3939  0.8355  1.3903
 1769TIP3   OH226797   2.329   5.244  13.880 -0.1810  0.6560 -0.3051
 1769TIP3    H126798   2.309   5.249  13.973  0.2333 -1.7383 -0.0295
 1769TIP3    H226799   2.416   5.204  13.875 -0.8231 -0.6889 -1.7086
 1770TIP3   OH226800   3.205   3.030  12.573  0.1432 -0.1508 -0.2879
 1770TIP3    H126801   3.246   3.117  12.573  0.3630 -0.2346  1.2325
 1770TIP3    H226802   3.112   3.048  12.557  0.1905  0.3608 -0.0018
 1771TIP3   OH226803   0.531   5.232  10.955  0.0709  0.9581  0.3688
 1771TIP3    H126804   0.561   5.152  10.912  0.0327  0.3462  1.4415
 1771TIP3    H226805   0.435   5.227  10.951  0.0244  0.1380  1.8175
 1772TIP3   OH226806   3.373   2.198   4.192  0.3658  0.2763  0.2645
 1772TIP3    H126807   3.465   2.218   4.178  0.3884  1.4196  1.7964
 1772TIP3    H226808   3.328   2.280   4.170 -0.1303  0.2027  0.9897
 1773TIP3   OH226809   5.122   6.654  15.831  0.3812  0.7485  0.2549
 1773TIP3    H126810   5.177   6.732  15.834  0.2318  0.8443  2.6355
 1773TIP3    H226811   5.129   6.616  15.919  0.7330 -2.1482 -0.9157
 1774TIP3   OH226812   5.510   2.499   4.875 -0.0015 -0.2836  0.1193
 1774TIP3    H126813   5.478   2.408   4.874 -1.4434  0.1350  2.1093
 1774TIP3    H226814   5.454   2.543   4.939  2.3891  1.3924  1.1727
 1775TIP3   OH226815   0.789   0.596   0.946 -0.4812  0.5052  0.3694
 1775TIP3    H126816   0.847   0.546   0.889 -1.4081 -0.7651  0.5050
 1775TIP3    H226817   0.774   0.679   0.900  1.7017  1.0409  0.4998
 1776TIP3   OH226818   5.483   3.688   3.429  0.2308  0.2144 -0.3673
 1776TIP3    H126819   5.517   3.778   3.427 -0.4332  0.4621 -0.9015
 1776TIP3    H226820   5.399   3.693   3.383  0.4887 -0.8070 -0.9917
 1777TIP3   OH226821   6.781   6.716   3.530  0.1657  0.2260 -0.6234
 1777TIP3    H126822   6.859   6.739   3.581 -0.5274  1.0550  0.0785
 1777TIP3    H226823   6.752   6.633   3.567  0.2018  0.3586 -0.2995
 1778TIP3   OH226824   0.658   2.291  11.254  0.0476 -0.3170 -0.2263
 1778TIP3    H126825   0.723   2.336  11.308  0.4494 -0.2558 -0.7479
 1778TIP3    H226826   0.590   2.356  11.239 -0.3268 -0.4975  0.6338
 1779TIP3   OH226827   0.090   6.540   6.381  0.2689 -0.0050  0.0645
 1779TIP3    H126828   0.076   6.626   6.421 -0.9671  0.0663 -0.4556
 1779TIP3    H226829   0.013   6.489   6.407  1.2169 -1.1229  0.7546
 1780TIP3   OH226830   5.349   5.305  16.349 -0.0995  0.4072  0.0431
 1780TIP3    H126831   5.338   5.372  16.281  0.3471  1.5397  1.0693
 1780TIP3    H226832   5.441   5.279  16.343  0.5802  2.2332  1.7414
 1781TIP3   OH226833   1.029   3.379  14.581 -0.0633  0.4768  0.4892
 1781TIP3    H126834   1.083   3.458  14.572  0.5013  0.0918  0.4824
 1781TIP3    H226835   1.013   3.372  14.675 -0.7246  0.9953  0.4291
 1782TIP3   OH226836   2.589   2.248  13.284  0.2172 -0.2049 -0.1138
 1782TIP3    H126837   2.504   2.216  13.313 -0.1728 -0.2808 -1.2746
 1782TIP3    H226838   2.634   2.274  13.364 -0.7155 -0.6125  0.5548
 1783TIP3   OH226839   3.997   2.384   4.526 -0.8869 -0.1876  0.1459
 1783TIP3    H126840   4.018   2.473   4.552  1.1076 -0.9289  1.3075
 1783TIP3    H226841   3.996   2.334   4.608  1.3288 -1.8001 -0.6798
 1784TIP3   OH226842   5.518   1.200   2.092 -0.3040  0.2233 -0.2828
 1784TIP3    H126843   5.428   1.205   2.060 -0.6265 -0.0932  0.5694
 1784TIP3    H226844   5.567   1.164   2.018 -1.2295 -1.5194 -0.1145
 1785TIP3   OH226845   0.569   4.416   3.322  0.0411 -0.0934  0.2820
 1785TIP3    H126846   0.531   4.502   3.336 -1.0111 -0.5357  0.2000
 1785TIP3    H226847   0.586   4.382   3.410  1.2853  0.5381  0.3076
 1786TIP3   OH226848   4.928   3.894   2.072  0.2736 -0.3900 -0.8339
 1786TIP3    H126849   4.927   3.965   2.008 -0.8800  1.7419  1.3821
 1786TIP3    H226850   4.836   3.870   2.083  0.6864 -2.9514 -2.1533
 1787TIP3   OH226851   5.770   2.017   3.356  0.3899 -0.2672  0.2445
 1787TIP3    H126852   5.772   1.991   3.264 -2.1439  0.1419  0.0095
 1787TIP3    H226853   5.852   1.983   3.392  1.9715  0.5081 -2.3628
 1788TIP3   OH226854   4.376   6.017  10.986 -0.0700 -0.3722  0.4438
 1788TIP3    H126855   4.471   6.026  10.985 -0.2532  2.1834  0.4183
 1788TIP3    H226856   4.348   6.048  10.900 -0.9856 -0.1134  0.8242
 1789TIP3   OH226857   2.425   0.406  13.960  0.6683 -0.2640  0.2314
 1789TIP3    H126858   2.493   0.428  14.023  0.8922  2.0324 -0.6976
 1789TIP3    H226859   2.453   0.448  13.878 -0.5159 -1.6028 -0.9291
 1790TIP3   OH226860   6.684   6.372  11.938  0.1555 -0.4049 -0.6256
 1790TIP3    H126861   6.725   6.316  11.873  0.1317 -2.7475  1.2269
 1790TIP3    H226862   6.740   6.450  11.942  0.3297 -0.3232 -3.1078
 1791TIP3   OH226863   2.961   2.069  12.449  0.4578  0.0552 -0.6238
 1791TIP3    H126864   3.025   2.066  12.521  2.0035 -0.3195 -1.9501
 1791TIP3    H226865   2.924   1.981  12.447  0.4376  0.0538 -0.3293
 1792TIP3   OH226866   6.629   0.361   3.936  0.0178 -0.4547  0.0084
 1792TIP3    H126867   6.544   0.371   3.894  0.8812 -1.2933 -2.0217
 1792TIP3    H226868   6.626   0.276   3.979 -1.1654  0.7461  2.5558
 1793TIP3   OH226869   3.441   1.938  12.592  0.2439 -0.0912 -0.1961
 1793TIP3    H126870   3.525   1.976  12.619  0.3085  0.6610 -1.3647
 1793TIP3    H226871   3.427   1.971  12.503 -1.1337 -0.4770 -0.1536
 1794TIP3   OH226872   0.577   5.504   0.847  0.1028  0.6281 -0.0248
 1794TIP3    H126873   0.485   5.479   0.852  0.9037 -2.5140  1.3075
 1794TIP3    H226874   0.615   5.443   0.785  1.3915  1.7391 -0.3777
 1795TIP3   OH226875   5.743   2.767   4.173 -0.4457 -0.4208  0.5064
 1795TIP3    H126876   5.705   2.728   4.252 -3.6276  2.5535  0.6728
 1795TIP3    H226877   5.794   2.842   4.205  0.1953 -0.5594 -0.1510
 1796TIP3   OH226878   5.236   6.476   3.230 -0.5092  0.8736 -0.4325
 1796TIP3    H126879   5.269   6.508   3.315  1.0753 -0.1498 -0.6160
 1796TIP3    H226880   5.292   6.519   3.166  0.6983 -1.0564 -0.7491
 1797TIP3   OH226881   1.853   6.007  14.567 -0.1554 -0.6195 -0.1666
 1797TIP3    H126882   1.935   6.025  14.522 -0.3199  2.5989  0.5732
 1797TIP3    H226883   1.879   5.975  14.653  0.4309  1.4252  0.4657
 1798TIP3   OH226884   4.033   3.721  14.668 -0.0063  0.1714 -0.1062
 1798TIP3    H126885   4.093   3.685  14.734  0.8407 -1.0629 -1.4844
 1798TIP3    H226886   3.949   3.680  14.688  0.2035 -0.0729  0.3016
 1799TIP3   OH226887   3.303   0.096  11.244  0.1560  0.1884 -0.0590
 1799TIP3    H126888   3.354   0.042  11.184 -0.2987 -1.6165  1.1011
 1799TIP3    H226889   3.303   0.047  11.327 -1.8050  1.0527  0.5206
 1800TIP3   OH226890   6.443   0.889  14.597  0.2293 -0.4249 -0.4820
 1800TIP3    H126891   6.526   0.938  14.591 -0.9494  2.0932  1.4959
 1800TIP3    H226892   6.470   0.798  14.603  2.8797  0.2866 -0.0360
 1801TIP3   OH226893   0.945   6.627  11.756  0.3374 -0.5725 -0.1111
 1801TIP3    H126894   0.850   6.639  11.751  0.4449  0.2647 -0.2582
 1801TIP3    H226895   0.981   6.703  11.710  1.1226  0.0927  1.5168
 1802TIP3   OH226896   3.710   1.462   2.820 -0.1768 -0.5816  0.2741
 1802TIP3    H126897   3.798   1.489   2.792 -0.3686  1.7593  1.6351
 1802TIP3    H226898   3.689   1.387   2.765  1.8973 -0.0197 -1.4242
 1803TIP3   OH226899   2.216   0.322  12.803  0.7066 -0.1797 -0.7727
 1803TIP3    H126900   2.298   0.286  12.768  2.3125  2.1111  0.3496
 1803TIP3    H226901   2.230   0.328  12.897 -1.1676 -0.6343 -0.4254
 1804TIP3   OH226902   2.139   0.725  14.873  0.1022  0.2448  0.2027
 1804TIP3    H126903   2.070   0.668  14.838 -0.3152  0.5069  0.5973
 1804TIP3    H226904   2.206   0.664  14.904 -0.1895 -0.0247  0.3087
 1805TIP3   OH226905   2.447   2.314  16.113 -0.5811 -0.2712 -0.1279
 1805TIP3    H126906   2.494   2.353  16.039 -0.2103 -1.2572 -0.4292
 1805TIP3    H226907   2.356   2.337  16.098 -0.2516  1.4184  0.2979
 1806TIP3   OH226908   6.419   2.556   4.314  0.3684  0.2924 -0.5547
 1806TIP3    H126909   6.392   2.561   4.222 -2.0231  0.3242  0.0811
 1806TIP3    H226910   6.361   2.617   4.360  1.1816 -0.0891  1.0688
 1807TIP3   OH226911   4.695   1.626  16.903 -0.2592 -0.1822 -0.1596
 1807TIP3    H126912   4.654   1.685  16.840 -0.6164 -0.7223 -0.4477
 1807TIP3    H226913   4.738   1.560  16.848 -1.7672 -1.4788  0.1333
 1808TIP3   OH226914   2.761   1.237  12.890 -0.2030  0.7661  0.1979
 1808TIP3    H126915   2.782   1.321  12.851 -2.3322  1.6768  0.8847
 1808TIP3    H226916   2.665   1.232  12.888 -0.1292 -1.8984 -0.3210
 1809TIP3   OH226917   3.814   1.825   5.370  0.1889  0.4809  0.3106
 1809TIP3    H126918   3.749   1.876   5.419  0.7842 -0.9094  2.7668
 1809TIP3    H226919   3.767   1.746   5.343  0.6243 -0.2307  1.5330
 1810TIP3   OH226920   4.033   4.257  16.547 -0.0110 -0.1484  0.0670
 1810TIP3    H126921   3.953   4.207  16.563  1.2004 -2.9566 -1.7742
 1810TIP3    H226922   4.011   4.314  16.474 -0.1786 -1.5146 -0.9938
 1811TIP3   OH226923   1.444   2.313  10.950 -0.1118 -0.0070  0.0950
 1811TIP3    H126924   1.410   2.236  10.905 -0.4691 -1.2908  2.4400
 1811TIP3    H226925   1.366   2.365  10.971 -0.2744 -0.9316  1.8774
 1812TIP3   OH226926   2.861   6.346   4.339  0.4364  0.7135 -0.6666
 1812TIP3    H126927   2.897   6.386   4.260 -0.8017 -0.5785 -1.9436
 1812TIP3    H226928   2.937   6.311   4.386  1.2365  2.0296 -0.9571
 1813TIP3   OH226929   3.379   4.703   4.372  0.2602 -0.3135  0.1932
 1813TIP3    H126930   3.289   4.715   4.399 -0.0543 -1.3413 -0.3376
 1813TIP3    H226931   3.431   4.747   4.439 -0.5944 -0.5453  1.0238
 1814TIP3   OH226932   0.786   4.048  12.171  0.0961  0.2896  0.4193
 1814TIP3    H126933   0.724   4.120  12.167 -0.3632 -0.0707  0.9183
 1814TIP3    H226934   0.761   3.991  12.099 -0.2795  0.0487  0.7365
 1815TIP3   OH226935   0.296   0.597  11.167  0.1483 -0.3481 -0.4660
 1815TIP3    H126936   0.236   0.547  11.223 -1.3265 -1.5437 -2.9422
 1815TIP3    H226937   0.241   0.663  11.126  0.9153 -0.2412 -1.3634
 1816TIP3   OH226938   1.598   4.435  13.490 -0.0283 -0.5150  0.0169
 1816TIP3    H126939   1.691   4.428  13.466 -0.6191 -0.7282 -2.4846
 1816TIP3    H226940   1.563   4.347  13.474 -0.7322 -0.3806  0.7508
 1817TIP3   OH226941   6.650   4.067   5.237 -1.3555 -0.2809  0.6838
 1817TIP3    H126942   6.644   4.140   5.175  0.1522 -1.2262 -0.6492
 1817TIP3    H226943   6.561   4.057   5.270 -1.8706  1.3034 -0.1044
 1818TIP3   OH226944   4.888   0.975  14.790  0.4463  0.4760 -0.1503
 1818TIP3    H126945   4.816   1.038  14.795 -0.6289 -0.5300 -1.9221
 1818TIP3    H226946   4.956   1.021  14.741  0.2284  0.7723 -0.1794
 1819TIP3   OH226947   0.331   2.124  11.913 -0.8531  0.3526  0.1942
 1819TIP3    H126948   0.295   2.172  11.839  0.6765  0.8197 -0.2923
 1819TIP3    H226949   0.371   2.191  11.968  3.2960 -0.3464 -1.5997
 1820TIP3   OH226950   5.022   3.657  13.663 -0.1483 -0.6289 -0.2114
 1820TIP3    H126951   5.085   3.585  13.656 -0.7096 -1.0444 -1.1746
 1820TIP3    H226952   4.947   3.629  13.611 -0.0970  0.9559 -1.2093
 1821TIP3   OH226953   2.688   0.285   4.922 -0.2828 -0.8423 -0.1854
 1821TIP3    H126954   2.650   0.311   5.006 -0.9207  0.4041 -0.8215
 1821TIP3    H226955   2.637   0.208   4.895 -2.4195  0.7380 -0.9776
 1822TIP3   OH226956   0.681   1.091  13.154  0.4018 -0.0620  0.3251
 1822TIP3    H126957   0.734   1.161  13.117 -0.7551  0.4611 -0.4152
 1822TIP3    H226958   0.608   1.082  13.093  0.1904 -1.4846  0.7452
 1823TIP3   OH226959   5.071   0.188   4.420  0.2665  0.7593  0.0009
 1823TIP3    H126960   5.084   0.140   4.338 -0.9097  1.5997 -0.7148
 1823TIP3    H226961   5.013   0.133   4.471  1.3009  0.0559  0.4577
 1824TIP3   OH226962   4.114   4.113   3.487  0.0798 -0.2872 -0.3435
 1824TIP3    H126963   4.159   4.176   3.430  0.0915 -0.7678 -0.8773
 1824TIP3    H226964   4.078   4.167   3.558  1.2425  0.1403 -0.0566
 1825TIP3   OH226965   2.143   0.374  16.136  0.2432  0.8544 -0.0744
 1825TIP3    H126966   2.102   0.314  16.198  0.3684 -1.7682 -2.3462
 1825TIP3    H226967   2.216   0.413  16.184  0.2749 -0.9867  1.4524
 1826TIP3   OH226968   2.438   6.353  14.222 -0.4095  0.0902 -0.8926
 1826TIP3    H126969   2.473   6.424  14.169  0.3678  1.4854  1.3537
 1826TIP3    H226970   2.482   6.275  14.188  0.2707  0.9526 -2.0810
 1827TIP3   OH226971   1.632   3.426   0.664  0.0517 -0.0374 -0.3149
 1827TIP3    H126972   1.681   3.508   0.658 -1.0838  0.7390  0.6976
 1827TIP3    H226973   1.540   3.452   0.654 -0.2957 -1.2274 -0.3326
 1828TIP3   OH226974   3.445   6.360  16.573  0.4637 -0.3857 -0.4915
 1828TIP3    H126975   3.455   6.370  16.479 -1.0591  0.9055 -0.5681
 1828TIP3    H226976   3.380   6.426  16.597  2.7043  1.1517  1.8901
 1829TIP3   OH226977   3.906   2.213   3.239  0.1832 -0.4958 -0.4381
 1829TIP3    H126978   3.867   2.147   3.181  2.0526 -2.2905  0.2469
 1829TIP3    H226979   3.977   2.168   3.284  0.0892  1.3788  1.8103
 1830TIP3   OH226980   1.161   5.353   1.343  0.1248  0.3417 -0.3538
 1830TIP3    H126981   1.196   5.290   1.280 -0.4767 -1.5347  1.1096
 1830TIP3    H226982   1.238   5.398   1.378  0.6669 -0.3568 -0.6317
 1831TIP3   OH226983   3.591   4.418  11.420  0.4778 -0.3505  0.3393
 1831TIP3    H126984   3.639   4.356  11.365  1.0113  0.1674  0.2036
 1831TIP3    H226985   3.535   4.364  11.475  1.4054 -0.9962  0.6828
 1832TIP3   OH226986   0.115   3.748   1.173  0.1125 -0.4073  0.0262
 1832TIP3    H126987   0.167   3.699   1.236  0.0153 -0.9010 -0.2810
 1832TIP3    H226988   0.176   3.772   1.103  0.0990 -0.3171  0.0442
 1833TIP3   OH226989   3.542   4.914   6.334  0.1117  0.2360  0.1586
 1833TIP3    H126990   3.555   4.819   6.333 -0.5242  0.1344  0.6390
 1833TIP3    H226991   3.541   4.937   6.427 -0.7795  0.5566  0.0778
 1834TIP3   OH226992   4.316   6.814  13.720  0.0343 -0.1631  0.0418
 1834TIP3    H126993   4.317   6.907  13.696 -0.3590  0.2335  1.4646
 1834TIP3    H226994   4.402   6.781  13.695  0.5384  0.8375  0.4154
 1835TIP3   OH226995   6.625   1.209   2.101  0.6309  0.2649 -0.4313
 1835TIP3    H126996   6.709   1.206   2.148 -0.6285  0.7065  2.0161
 1835TIP3    H226997   6.600   1.302   2.104 -0.3997 -0.0056 -0.1968
 1836TIP3   OH226998   0.103   1.847  10.594 -0.4976 -0.0640  0.3080
 1836TIP3    H126999   0.100   1.927  10.542 -0.9271 -0.1216  0.2469
 1836TIP3    H227000   0.196   1.824  10.598 -0.2277  1.1036  1.3329
 1837TIP3   OH227001   5.770   1.575   5.273  0.2361  0.2105 -0.2337
 1837TIP3    H127002   5.757   1.564   5.367 -0.2278  1.1212 -0.1793
 1837TIP3    H227003   5.859   1.543   5.257 -0.6561 -2.7179  0.0189
 1838TIP3   OH227004   6.781   4.968   4.414  0.2701 -0.1675  0.5844
 1838TIP3    H127005   6.686   4.967   4.405 -0.2044  0.1791  4.2251
 1838TIP3    H227006   6.799   4.902   4.481  2.7526 -1.0046 -0.7867
 1839TIP3   OH227007   1.742   2.748   3.357  0.3894 -0.1785 -0.3138
 1839TIP3    H127008   1.810   2.685   3.333  0.0814 -0.9952  0.9239
 1839TIP3    H227009   1.784   2.804   3.423  0.2324  0.0642 -0.4178
 1840TIP3   OH227010   1.947   5.190  11.430 -0.0186  0.0398 -0.1046
 1840TIP3    H127011   1.922   5.098  11.435  0.4024 -0.0340  0.7310
 1840TIP3    H227012   1.981   5.201  11.342  3.4821 -1.5283  0.9043
 1841TIP3   OH227013   1.987   4.938  11.630 -0.2281  0.4528  1.2531
 1841TIP3    H127014   1.999   4.936  11.535  0.4846  0.9484  1.3193
 1841TIP3    H227015   1.956   5.027  11.648  0.8109  0.7704  1.5893
 1842TIP3   OH227016   6.446   4.392  11.011  0.1417 -0.4072 -0.2178
 1842TIP3    H127017   6.416   4.370  10.923  0.6285 -0.9915 -0.2419
 1842TIP3    H227018   6.370   4.378  11.067 -0.4419  0.8592 -0.6633
 1843TIP3   OH227019   0.138   5.524  12.772 -0.1524  0.4712  0.0744
 1843TIP3    H127020   0.111   5.535  12.863 -0.5075  1.5991 -0.1585
 1843TIP3    H227021   0.234   5.516  12.777 -0.2288 -0.2039  0.6036
 1844TIP3   OH227022   0.329   4.938  13.205  0.1887  0.1382  0.2773
 1844TIP3    H127023   0.423   4.937  13.220  0.4729 -1.4555 -1.2346
 1844TIP3    H227024   0.293   4.890  13.280  0.8938 -1.6750 -0.4824
 1845TIP3   OH227025   5.631   0.113  16.538 -0.3745 -1.0349 -0.3564
 1845TIP3    H127026   5.639   0.109  16.633 -0.7381  2.7537 -0.0021
 1845TIP3    H227027   5.547   0.157  16.523 -0.7991 -2.4186 -2.4967
 1846TIP3   OH227028   1.078   0.095   3.971 -0.2943 -0.5907  0.2063
 1846TIP3    H127029   0.984   0.106   3.963 -0.4297 -0.3954  1.8968
 1846TIP3    H227030   1.101   0.035   3.900 -1.6206 -0.3771 -0.4298
 1847TIP3   OH227031   1.954   6.140  11.174  0.3237  0.8121  0.7322
 1847TIP3    H127032   1.886   6.093  11.222 -0.4958  0.4910 -0.7027
 1847TIP3    H227033   1.906   6.203  11.119  1.0094 -0.5535 -1.5513
 1848TIP3   OH227034   4.748   1.124   0.898 -0.5264  0.2875 -0.1894
 1848TIP3    H127035   4.716   1.209   0.869 -0.0438  0.3430 -0.5728
 1848TIP3    H227036   4.841   1.123   0.873 -0.2919  0.0277  0.6493
 1849TIP3   OH227037   2.964   2.843   0.537  0.0133 -0.0906  0.0559
 1849TIP3    H127038   3.018   2.878   0.466  0.9227 -1.0746  0.2355
 1849TIP3    H227039   2.908   2.916   0.563  0.2678  0.5335 -1.0940
 1850TIP3   OH227040   3.570   1.043  14.122 -0.1386  0.3124  0.4594
 1850TIP3    H127041   3.663   1.022  14.115 -0.0716 -0.1948  2.2935
 1850TIP3    H227042   3.565   1.138  14.107  0.7474  0.4210  0.7981
 1851TIP3   OH227043   1.064   2.174   6.459  0.0048 -0.3180 -0.1253
 1851TIP3    H127044   1.150   2.184   6.501 -0.0327  0.2757 -0.1860
 1851TIP3    H227045   1.080   2.192   6.367 -0.5146  1.6664  0.1284
 1852TIP3   OH227046   4.419   5.583  15.687  0.2304 -0.1750  0.1111
 1852TIP3    H127047   4.331   5.558  15.716 -1.1807 -0.5535 -3.8353
 1852TIP3    H227048   4.418   5.679  15.687 -1.3166 -0.1079 -2.4830
 1853TIP3   OH227049   0.479   2.305   2.293  0.4356  0.0540 -0.4626
 1853TIP3    H127050   0.387   2.329   2.300  0.4119 -0.4282  1.8371
 1853TIP3    H227051   0.484   2.251   2.214 -1.7208 -1.7148  0.4872
 1854TIP3   OH227052   2.046   4.527  16.891 -0.3403 -0.4812  0.1976
 1854TIP3    H127053   2.040   4.617  16.921  1.0476  0.5134 -2.2534
 1854TIP3    H227054   2.111   4.487  16.949 -0.8420  0.0882  1.1894
 1855TIP3   OH227055   0.628   3.809   2.860  0.8917 -0.6240  0.1535
 1855TIP3    H127056   0.550   3.769   2.899  0.3103  0.8418  0.5557
 1855TIP3    H227057   0.660   3.743   2.798  0.5155 -2.0761  1.4291
 1856TIP3   OH227058   2.981   3.133  13.086 -0.2197  0.7962  0.0299
 1856TIP3    H127059   2.978   3.053  13.139 -0.6271 -0.9746 -2.4739
 1856TIP3    H227060   2.999   3.203  13.149  2.8715 -1.5306  2.0386
 1857TIP3   OH227061   4.143   1.539  10.854 -0.4372  0.1053  0.0873
 1857TIP3    H127062   4.151   1.472  10.922 -1.0976  1.0651  1.1432
 1857TIP3    H227063   4.159   1.492  10.772  0.6486 -1.0272  0.9108
 1858TIP3   OH227064   4.123   3.017   5.097 -0.9630 -0.1798 -0.1652
 1858TIP3    H127065   4.203   3.048   5.055 -1.5533  0.1159 -1.1109
 1858TIP3    H227066   4.086   3.095   5.139 -1.4944  0.0231 -0.9762
 1859TIP3   OH227067   0.779   0.291  11.111  0.0282  0.1728 -0.0076
 1859TIP3    H127068   0.764   0.202  11.145  0.8623 -0.1846 -0.5349
 1859TIP3    H227069   0.699   0.311  11.062 -0.0210 -0.4360 -0.1885
 1860TIP3   OH227070   1.473   2.228   5.055 -0.3835 -0.4997 -0.1977
 1860TIP3    H127071   1.565   2.219   5.081  0.4251  0.9897 -2.2614
 1860TIP3    H227072   1.424   2.178   5.120  1.7898 -0.4026  1.6087
 1861TIP3   OH227073   5.722   6.837   5.521  0.0385  0.4383  0.1817
 1861TIP3    H127074   5.814   6.832   5.496 -0.7731 -1.8801 -3.1492
 1861TIP3    H227075   5.695   6.745   5.528 -2.0047  1.0670  1.1340
 1862TIP3   OH227076   4.188   5.527   4.322 -0.1065 -0.0129 -0.0011
 1862TIP3    H127077   4.262   5.570   4.279  0.5978 -0.6955  0.4907
 1862TIP3    H227078   4.229   5.464   4.381 -1.0793  0.2848  1.0025
 1863TIP3   OH227079   0.681   3.820   5.166 -0.2820 -0.5151  0.1314
 1863TIP3    H127080   0.741   3.749   5.141  0.7155 -0.0056  1.0126
 1863TIP3    H227081   0.730   3.900   5.146 -0.4670 -0.0920  1.3399
 1864TIP3   OH227082   2.052   2.760   1.397  0.2967 -0.0589  0.2573
 1864TIP3    H127083   2.022   2.805   1.476 -1.6591  2.4003 -1.7208
 1864TIP3    H227084   2.138   2.800   1.380  0.8875 -0.8433  1.2511
 1865TIP3   OH227085   4.885   3.029   0.259 -0.3343  0.4859 -0.1959
 1865TIP3    H127086   4.958   3.078   0.296  0.5915 -0.1440 -1.1220
 1865TIP3    H227087   4.834   3.094   0.211  0.1745  0.7824 -0.3504
 1866TIP3   OH227088   0.769   3.696   3.923  0.3132  0.6591 -0.5168
 1866TIP3    H127089   0.855   3.737   3.915  0.9157 -0.1768  1.1127
 1866TIP3    H227090   0.738   3.722   4.010 -0.1079 -0.7929 -0.2042
 1867TIP3   OH227091   4.527   2.406   1.625  0.4297 -0.2020 -0.6390
 1867TIP3    H127092   4.508   2.315   1.647  1.9858  0.0520  2.1239
 1867TIP3    H227093   4.477   2.422   1.544 -0.8693 -3.0921 -0.5170
 1868TIP3   OH227094   6.230   2.097  16.315  0.0405  0.5998 -0.1019
 1868TIP3    H127095   6.218   2.002  16.323  2.3247  0.1297 -1.1745
 1868TIP3    H227096   6.170   2.124  16.245 -0.6356 -0.0419  0.2231
 1869TIP3   OH227097   5.854   3.151  15.324 -0.7413 -0.0717 -0.3269
 1869TIP3    H127098   5.864   3.201  15.243  1.3060 -1.1796 -0.8177
 1869TIP3    H227099   5.780   3.093  15.308 -0.4042 -0.2203 -1.3784
 1870TIP3   OH227100   2.755   3.007   1.913 -0.8287 -0.1901 -0.9713
 1870TIP3    H127101   2.824   2.963   1.963 -0.8816  0.6093 -0.1552
 1870TIP3    H227102   2.680   3.007   1.972 -0.1962  2.9241  0.0238
 1871TIP3   OH227103   5.017   5.809   2.881  0.4555  0.5991  0.1620
 1871TIP3    H127104   5.107   5.837   2.896  0.9230 -0.8491  0.1586
 1871TIP3    H227105   5.017   5.715   2.897 -1.2961  0.7185  1.1891
 1872TIP3   OH227106   0.025   0.684  14.789  0.0891 -0.3578 -0.1484
 1872TIP3    H127107   0.119   0.696  14.800 -0.2794  2.4004  1.0104
 1872TIP3    H227108   0.012   0.681  14.695  1.3242 -0.5677 -0.3311
 1873TIP3   OH227109   3.977   5.777   4.018  0.2839  0.2770  0.3113
 1873TIP3    H127110   4.051   5.835   4.035 -0.4018  0.9577  1.0602
 1873TIP3    H227111   3.957   5.790   3.925  2.1675 -1.2164 -0.3561
 1874TIP3   OH227112   2.363   3.363   0.525  0.2531 -0.1000  0.3877
 1874TIP3    H127113   2.346   3.351   0.432  1.0782 -0.0895  0.2271
 1874TIP3    H227114   2.435   3.427   0.528  1.0938 -1.0395  0.9692
 1875TIP3   OH227115   3.996   6.159  15.338  0.3443  0.1155 -0.0490
 1875TIP3    H127116   4.008   6.160  15.433  1.2627  0.2480 -0.1576
 1875TIP3    H227117   3.905   6.184  15.325 -0.7287 -2.7931  0.9366
 1876TIP3   OH227118   0.097   6.538   1.387  0.3969 -0.5577 -0.3951
 1876TIP3    H127119   0.033   6.475   1.420 -0.5719  1.2214  1.3557
 1876TIP3    H227120   0.045   6.615   1.365  1.8975  1.1762  1.6664
 1877TIP3   OH227121   1.631   4.120   0.292  0.0189 -0.3624  0.2176
 1877TIP3    H127122   1.685   4.066   0.234 -0.1130  0.1164 -0.3699
 1877TIP3    H227123   1.691   4.187   0.325 -0.3145  0.4931 -0.8587
 1878TIP3   OH227124   3.554   4.043   5.069  0.5423 -0.5649  0.3465
 1878TIP3    H127125   3.600   3.976   5.120  3.1709  0.2730 -0.7818
 1878TIP3    H227126   3.607   4.122   5.079 -1.6712  1.0051  0.4161
 1879TIP3   OH227127   4.873   5.181   3.219  0.2823 -0.0858 -0.0261
 1879TIP3    H127128   4.881   5.133   3.136 -0.8659  1.3942 -1.0580
 1879TIP3    H227129   4.788   5.225   3.213  1.3617  2.3078  0.6901
 1880TIP3   OH227130   2.765   2.387  12.511 -0.1484  0.2894  0.1145
 1880TIP3    H127131   2.758   2.356  12.601 -0.9051 -1.9868 -0.6523
 1880TIP3    H227132   2.675   2.411  12.487 -0.1345 -0.0952 -0.3419
 1881TIP3   OH227133   4.858   1.804   1.661  0.2483  0.0026  0.2504
 1881TIP3    H127134   4.866   1.728   1.718  0.3355 -0.3558 -0.2358
 1881TIP3    H227135   4.921   1.867   1.696  1.0200 -0.5928 -0.0496
 1882TIP3   OH227136   1.689   4.922   3.823 -0.1720 -0.5859 -0.0429
 1882TIP3    H127137   1.694   5.007   3.780 -1.1255  0.4072  1.6864
 1882TIP3    H227138   1.607   4.884   3.794  0.0811 -0.7648 -0.5336
 1883TIP3   OH227139   0.030   5.943  13.076 -0.2542 -0.3896 -0.1073
 1883TIP3    H127140   0.053   5.910  13.163  2.3911  0.0639 -0.5444
 1883TIP3    H227141   0.031   5.865  13.020 -0.6124 -0.4915  0.0270
 1884TIP3   OH227142   4.476   6.141  13.436  0.0126 -0.0491  0.0843
 1884TIP3    H127143   4.402   6.082  13.423 -0.3179  0.0963  1.1975
 1884TIP3    H227144   4.457   6.186  13.518  2.4606 -1.7401  1.7242
 1885TIP3   OH227145   4.850   2.580  10.893  0.2952 -0.2784  0.2930
 1885TIP3    H127146   4.779   2.640  10.916 -0.6442 -1.0431 -0.5383
 1885TIP3    H227147   4.869   2.533  10.975  1.7513  1.7968  1.2346
 1886TIP3   OH227148   2.980   5.205  12.157 -0.4253 -0.0703  0.4089
 1886TIP3    H127149   3.012   5.258  12.230 -1.2798  2.3238 -0.8451
 1886TIP3    H227150   3.056   5.153  12.130 -0.3372 -1.7346  3.5037
 1887TIP3   OH227151   2.927   3.035   3.154  0.1685  0.3039  0.2383
 1887TIP3    H127152   2.845   3.065   3.115 -0.3443  0.3181  1.2817
 1887TIP3    H227153   2.993   3.053   3.088 -0.9441 -1.7122 -1.5480
 1888TIP3   OH227154   3.534   1.208  10.234  0.0222  0.0354  0.1360
 1888TIP3    H127155   3.597   1.253  10.290 -0.1633  0.8116 -0.2651
 1888TIP3    H227156   3.456   1.263  10.235 -0.9605 -1.2950  1.2386
 1889TIP3   OH227157   1.639   4.340  16.736 -0.0139  0.4157  0.1491
 1889TIP3    H127158   1.724   4.319  16.698 -0.3907 -1.5352  0.2703
 1889TIP3    H227159   1.579   4.341  16.662 -0.2443 -0.4384  0.3120
 1890TIP3   OH227160   0.087   1.884  15.981 -0.6251 -0.5875 -0.0655
 1890TIP3    H127161   0.108   1.799  15.943 -1.2984 -1.2574  1.0029
 1890TIP3    H227162   0.152   1.896  16.051 -0.5086 -0.2010 -0.2345
 1891TIP3   OH227163   4.947   6.470  12.322 -0.7616 -0.3389  0.0354
 1891TIP3    H127164   5.000   6.495  12.398  0.5244 -0.8732 -0.6481
 1891TIP3    H227165   5.011   6.458  12.252 -1.7681 -1.3352 -0.7411
 1892TIP3   OH227166   3.405   3.115  11.868  1.4273 -0.5224  0.2857
 1892TIP3    H127167   3.480   3.065  11.835 -0.2344 -1.3167 -2.6521
 1892TIP3    H227168   3.389   3.181  11.801 -0.4196 -0.2739  0.9231
 1893TIP3   OH227169   3.522   4.935   6.016  0.2811  0.7190 -0.8171
 1893TIP3    H127170   3.595   4.960   5.960  0.2330  0.5767 -0.9453
 1893TIP3    H227171   3.562   4.888   6.089  0.3292  0.7674 -0.8122
 1894TIP3   OH227172   2.592   5.179  13.682  0.2392 -0.2260 -0.1647
 1894TIP3    H127173   2.636   5.130  13.752 -1.7396 -1.5911  0.2148
 1894TIP3    H227174   2.589   5.269  13.714  0.2188 -0.6515  1.1078
 1895TIP3   OH227175   3.426   1.116  15.877  0.2269  0.0118 -0.2676
 1895TIP3    H127176   3.448   1.069  15.797  1.1878  1.3978 -0.8576
 1895TIP3    H227177   3.341   1.156  15.860 -0.8880 -1.9253  0.4600
 1896TIP3   OH227178   5.693   4.315   0.908 -0.4009 -0.1631 -0.3496
 1896TIP3    H127179   5.711   4.316   1.002  1.4773  1.0305 -0.6825
 1896TIP3    H227180   5.742   4.390   0.873 -2.4808  0.4936 -2.0514
 1897TIP3   OH227181   0.523   5.451  15.560 -0.0934 -0.0541  0.1885
 1897TIP3    H127182   0.549   5.375  15.613  2.8087  2.0721  2.0642
 1897TIP3    H227183   0.451   5.491  15.610 -0.9082 -0.9020 -0.2633
 1898TIP3   OH227184   4.582   3.133   1.379 -0.1987  0.2441 -0.0564
 1898TIP3    H127185   4.565   3.066   1.312 -0.5269  0.4438 -0.1745
 1898TIP3    H227186   4.674   3.155   1.367 -0.0279 -0.3555  0.1373
 1899TIP3   OH227187   0.183   3.439  12.305  0.2730  0.2560  0.6157
 1899TIP3    H127188   0.258   3.436  12.364 -0.0118 -0.0266  0.9724
 1899TIP3    H227189   0.212   3.493  12.231  0.4155  1.2006  1.3363
 1900TIP3   OH227190   2.574   2.341   0.280  0.2997 -0.4384  0.6347
 1900TIP3    H127191   2.658   2.373   0.312 -0.2169 -0.0474  1.6454
 1900TIP3    H227192   2.594   2.302   0.195  1.8108 -1.9583  1.6330
 1901TIP3   OH227193   5.526   3.608  16.308  0.2384 -0.1776  0.4533
 1901TIP3    H127194   5.560   3.592  16.220  0.4310  0.7016  0.3590
 1901TIP3    H227195   5.517   3.521  16.347 -0.0329 -0.5882 -0.5013
 1902TIP3   OH227196   1.345   6.441  15.072  0.1465  0.2814 -0.1905
 1902TIP3    H127197   1.307   6.476  14.991  0.6274  0.5787 -0.2883
 1902TIP3    H227198   1.439   6.458  15.064  0.1749  0.4588  0.5035
 1903TIP3   OH227199   2.829   4.347  16.936  0.2464 -0.0293  0.1066
 1903TIP3    H127200   2.845   4.383  17.023 -0.9680 -0.4461  0.5162
 1903TIP3    H227201   2.744   4.383  16.910 -0.0597 -1.0258 -0.3072
 1904TIP3   OH227202   0.581   5.817  15.628 -0.1057  0.1537  0.0791
 1904TIP3    H127203   0.537   5.819  15.713 -1.1766  1.8298 -0.4601
 1904TIP3    H227204   0.523   5.764  15.572  1.0713 -1.7475  0.5935
 1905TIP3   OH227205   0.437   6.240  17.010  0.5087  0.1383 -0.4537
 1905TIP3    H127206   0.377   6.183  16.963 -0.2490  0.5060  0.0559
 1905TIP3    H227207   0.519   6.234  16.961  0.0702 -0.3953 -1.1330
 1906TIP3   OH227208   4.032   6.036   0.930  0.2380 -0.0952 -0.2349
 1906TIP3    H127209   3.945   6.070   0.951 -0.1965 -1.0532 -0.4506
 1906TIP3    H227210   4.080   6.042   1.012 -0.1774  0.0133  0.0047
 1907TIP3   OH227211   3.981   1.340  15.067  0.1961  0.0611 -0.1324
 1907TIP3    H127212   4.036   1.404  15.112  0.1739  0.7016 -0.9905
 1907TIP3    H227213   4.042   1.277  15.030  0.2015 -0.6315  1.0044
 1908TIP3   OH227214   6.517   5.176   1.963  0.0640 -0.6975  0.1708
 1908TIP3    H127215   6.469   5.100   1.930  0.2480 -0.5953 -0.3426
 1908TIP3    H227216   6.564   5.143   2.039 -2.1551 -0.3977  1.7783
 1909TIP3   OH227217   4.315   2.084   0.682  0.0214  0.1353  0.4907
 1909TIP3    H127218   4.404   2.112   0.703  0.5729 -1.1491 -0.0393
 1909TIP3    H227219   4.308   2.096   0.588  0.1547 -1.0936  0.3003
 1910TIP3   OH227220   6.164   6.265   1.167 -0.0341 -0.2485  0.0025
 1910TIP3    H127221   6.072   6.241   1.159 -0.2007 -0.1218  1.2181
 1910TIP3    H227222   6.163   6.359   1.185  0.3554 -0.1739 -0.3529
 1911TIP3   OH227223   0.168   4.413  15.750 -0.2781  0.4800 -0.0121
 1911TIP3    H127224   0.124   4.343  15.799 -0.1037 -0.3695 -1.0237
 1911TIP3    H227225   0.098   4.452  15.698 -0.2129  0.4836 -0.0968
 1912TIP3   OH227226   1.279   1.744   2.823 -0.0008  0.2970  0.3926
 1912TIP3    H127227   1.312   1.697   2.746  1.9428  0.8922  0.8117
 1912TIP3    H227228   1.276   1.676   2.891  0.3876  0.2227  0.3435
 1913TIP3   OH227229   5.630   3.518   4.282 -0.3711  0.7312  0.1866
 1913TIP3    H127230   5.564   3.497   4.348 -0.6536  2.0507  0.3426
 1913TIP3    H227231   5.580   3.533   4.202 -0.0471 -0.6295 -0.3155
 1914TIP3   OH227232   2.731   4.902  12.102  0.2531 -0.4204 -0.2105
 1914TIP3    H127233   2.712   4.963  12.173 -2.3481  1.1578 -2.0492
 1914TIP3    H227234   2.677   4.825  12.121 -1.7846  0.6658 -1.1483
 1915TIP3   OH227235   4.407   5.106   3.671 -0.4975 -0.1452 -0.0498
 1915TIP3    H127236   4.405   5.115   3.767  4.2571 -1.7609  0.4363
 1915TIP3    H227237   4.369   5.020   3.655  0.1141 -0.5339  0.5521
 1916TIP3   OH227238   6.357   3.070  15.252  0.6207  0.2520 -0.2176
 1916TIP3    H127239   6.395   2.983  15.265 -1.4966 -0.7362 -0.1092
 1916TIP3    H227240   6.297   3.080  15.326 -0.4862  1.0275 -1.1870
 1917TIP3   OH227241   5.085   2.568   1.060  0.1362  0.3455 -0.6004
 1917TIP3    H127242   5.177   2.546   1.048  1.0157  1.9072  2.2140
 1917TIP3    H227243   5.079   2.660   1.032 -0.7344  0.0852 -1.3126
 1918TIP3   OH227244   3.675   5.187   5.112 -0.2287  0.0832  0.0175
 1918TIP3    H127245   3.659   5.248   5.039 -0.3090 -0.0933 -0.1124
 1918TIP3    H227246   3.660   5.100   5.075  3.2944 -0.3405 -0.7842
 1919TIP3   OH227247   3.114   2.397  16.769  0.4843 -0.7070  0.5762
 1919TIP3    H127248   3.050   2.450  16.817 -0.5413 -1.0251 -0.3861
 1919TIP3    H227249   3.117   2.314  16.817  0.0730 -0.7330  0.5632
 1920TIP3   OH227250   1.770   5.550  15.288 -0.0833 -0.4465  0.2581
 1920TIP3    H127251   1.819   5.632  15.279 -1.1831  0.3927  1.5412
 1920TIP3    H227252   1.803   5.511  15.368 -1.2129 -0.0353  0.9567
 1921TIP3   OH227253   5.120   1.922   1.819  0.3124  0.4560 -0.5231
 1921TIP3    H127254   5.203   1.910   1.774  1.6834 -0.2320  1.9794
 1921TIP3    H227255   5.104   2.016   1.816  1.5591  0.6836 -0.4440
 1922TIP3   OH227256   4.625   6.030  16.465  0.1076 -0.5623 -0.2573
 1922TIP3    H127257   4.718   6.027  16.490  0.0842  0.5697  0.0295
 1922TIP3    H227258   4.624   6.080  16.384 -0.2133 -0.9974 -0.5250
 1923TIP3   OH227259   5.897   5.726   0.012  0.6220 -0.3839  0.1420
 1923TIP3    H127260   5.844   5.697   0.087  0.2729  0.9100  0.4345
 1923TIP3    H227261   5.854   5.807  -0.017 -1.5215 -2.6562 -3.8735
 1924TIP3   OH227262   0.214   2.427  16.294  0.5857 -0.5838 -0.5988
 1924TIP3    H127263   0.122   2.418  16.271  0.3780 -0.4874  0.1612
 1924TIP3    H227264   0.261   2.374  16.229  0.0524 -0.1065 -1.3882
 1925TIP3   OH227265   1.583   2.150  15.454 -0.1159 -0.0940  0.3682
 1925TIP3    H127266   1.598   2.075  15.512  0.3083 -0.8847 -0.7260
 1925TIP3    H227267   1.512   2.198  15.496  0.0869 -0.7030  1.4720
 1926TIP3   OH227268   0.295   0.294   3.007 -0.3748  0.6268  0.1954
 1926TIP3    H127269   0.240   0.234   2.956 -0.7011 -0.9502  2.2503
 1926TIP3    H227270   0.233   0.354   3.049 -0.1614  1.4712 -0.6544
 1927TIP3   OH227271   5.307   5.062  10.791  0.4633  0.2884 -0.7047
 1927TIP3    H127272   5.318   5.028  10.703  1.1957 -1.2536 -0.0587
 1927TIP3    H227273   5.394   5.094  10.816  0.3658  0.3194 -0.3967
 1928TIP3   OH227274   0.144   5.913   0.672  0.0252 -0.1066  0.5665
 1928TIP3    H127275   0.097   5.947   0.748 -0.2199 -1.0856  0.8604
 1928TIP3    H227276   0.203   5.985   0.646 -0.8666  0.7378  0.8334
 1929TIP3   OH227277   3.774   1.662   3.969  0.0251 -0.1210  0.5435
 1929TIP3    H127278   3.685   1.631   3.985  0.1653 -0.5152  0.5813
 1929TIP3    H227279   3.777   1.677   3.875  0.0393 -0.5009  0.4813
 1930TIP3   OH227280   1.712   0.158  12.874  0.4826  0.1482 -0.4610
 1930TIP3    H127281   1.646   0.180  12.939 -0.0913  0.6971 -1.2119
 1930TIP3    H227282   1.772   0.232  12.875  0.2195  0.3685 -0.8749
 1931TIP3   OH227283   2.985   1.990   6.368 -0.1240  0.5484 -0.0335
 1931TIP3    H127284   3.070   2.034   6.376  0.0392 -0.0469  2.0205
 1931TIP3    H227285   2.989   1.947   6.282  2.4575 -1.0339  0.7607
 1932TIP3   OH227286   3.943   4.386  14.639  0.0328 -0.8138 -0.1667
 1932TIP3    H127287   3.987   4.470  14.620 -2.3368  0.7532  0.7840
 1932TIP3    H227288   3.962   4.331  14.563  1.6873  0.5476 -0.8218
 1933TIP3   OH227289   0.747   0.923  12.950 -0.0507  0.1876 -0.5788
 1933TIP3    H127290   0.840   0.942  12.934 -0.4366  0.7538 -2.4382
 1933TIP3    H227291   0.731   0.953  13.039  1.6311 -0.2812 -0.0783
 1934TIP3   OH227292   5.666   1.614   3.022 -0.3799  0.3383  0.1708
 1934TIP3    H127293   5.688   1.672   2.949  1.1644 -0.0463  0.3071
 1934TIP3    H227294   5.627   1.672   3.087  1.3848  1.2965  0.4121
 1935TIP3   OH227295   3.424   3.093   1.602  0.1638 -0.5116 -0.0471
 1935TIP3    H127296   3.451   3.156   1.670  1.8865 -1.4815  0.2232
 1935TIP3    H227297   3.334   3.072   1.624 -0.8388  2.5571 -0.7120
 1936TIP3   OH227298   3.794   1.393   0.630 -0.3767  0.0922  0.0793
 1936TIP3    H127299   3.847   1.315   0.645 -0.5115 -0.0027  0.0660
 1936TIP3    H227300   3.794   1.438   0.715  0.9798  0.8814 -0.3189
 1937TIP3   OH227301   6.439   3.753  15.958  0.4472 -0.3124 -0.6321
 1937TIP3    H127302   6.362   3.810  15.960  0.4013 -0.4047  0.8327
 1937TIP3    H227303   6.497   3.789  16.024  0.0280 -2.4668  1.0190
 1938TIP3   OH227304   0.727   2.827  11.523  0.0180  0.3428 -0.2649
 1938TIP3    H127305   0.775   2.829  11.441  0.5239  1.1688  0.0375
 1938TIP3    H227306   0.635   2.838  11.497  0.0345 -0.7384 -0.8053
 1939TIP3   OH227307   4.991   4.892  15.017  0.2636  0.2910 -0.1400
 1939TIP3    H127308   4.954   4.860  14.935  0.8609  0.9458 -0.6728
 1939TIP3    H227309   5.060   4.952  14.991  1.4552 -0.5956  0.8275
 1940TIP3   OH227310   1.597   2.726  11.873  0.5429  0.1434 -0.1773
 1940TIP3    H127311   1.604   2.815  11.907 -2.6654  1.6216 -2.7686
 1940TIP3    H227312   1.540   2.681  11.936 -1.6310  1.4576 -1.0813
 1941TIP3   OH227313   4.631   3.882   2.597  0.1686  0.8251 -0.2714
 1941TIP3    H127314   4.575   3.894   2.521  1.4226 -0.5224 -1.4659
 1941TIP3    H227315   4.570   3.859   2.668 -1.0856  2.7913 -0.6099
 1942TIP3   OH227316   6.511   4.568   6.109 -0.6731 -0.9296 -0.1490
 1942TIP3    H127317   6.449   4.514   6.060 -0.6769 -0.2983 -0.8785
 1942TIP3    H227318   6.562   4.506   6.160  0.4328 -1.8123 -2.1982
 1943TIP3   OH227319   6.193   3.986   0.305  0.2476 -0.6577  0.6193
 1943TIP3    H127320   6.223   3.929   0.375  0.1901 -0.3066  0.9334
 1943TIP3    H227321   6.264   3.986   0.241  1.6995  1.4967  2.1162
 1944TIP3   OH227322   6.484   3.174   4.845 -0.2278  0.2958  0.2161
 1944TIP3    H127323   6.466   3.268   4.848 -0.2128  0.3446 -0.8619
 1944TIP3    H227324   6.479   3.152   4.752  0.4539 -0.6402  0.3936
 1945TIP3   OH227325   1.769   2.591   5.238  0.2521 -0.0347  0.2167
 1945TIP3    H127326   1.743   2.537   5.164  1.1338  0.0260 -0.1527
 1945TIP3    H227327   1.687   2.618   5.279 -0.2297 -2.7209  1.2311
 1946TIP3   OH227328   2.872   1.336   1.873  0.1996  0.1825 -0.4660
 1946TIP3    H127329   2.842   1.278   1.803 -2.2765  1.0746 -0.2490
 1946TIP3    H227330   2.963   1.356   1.850  0.0860 -1.1507 -2.3033
 1947TIP3   OH227331   6.069   0.201  16.836 -0.1408 -0.4561  0.8999
 1947TIP3    H127332   6.044   0.293  16.839 -0.3152 -0.5219  1.5932
 1947TIP3    H227333   5.986   0.153  16.840 -0.1613 -0.6469 -0.9223
 1948TIP3   OH227334   4.506   4.466  12.220  0.4299 -0.3943  0.1153
 1948TIP3    H127335   4.538   4.454  12.310 -0.3945  0.8471  0.6057
 1948TIP3    H227336   4.540   4.552  12.194 -0.5632 -0.0795 -0.1969
 1949TIP3   OH227337   4.740   5.470  12.641  1.1355 -0.6523  0.2117
 1949TIP3    H127338   4.648   5.478  12.616  1.1156 -0.1689  0.4322
 1949TIP3    H227339   4.782   5.429  12.564  0.7315 -0.9252  0.1356
 1950TIP3   OH227340   1.873   5.256   0.298  0.1645 -0.3199  0.1032
 1950TIP3    H127341   1.787   5.276   0.335  0.1428  1.1139 -0.6337
 1950TIP3    H227342   1.858   5.178   0.244 -1.5095  1.6918 -2.6358
 1951TIP3   OH227343   5.254   0.701   0.548  0.1397 -0.1290  0.3255
 1951TIP3    H127344   5.254   0.638   0.619  1.8085 -1.1704 -0.5160
 1951TIP3    H227345   5.296   0.654   0.475  1.1493  1.8286 -0.4260
 1952TIP3   OH227346   2.343   4.921  16.191  0.6476  0.7391 -0.1121
 1952TIP3    H127347   2.424   4.935  16.241  0.9075 -2.2648  0.4779
 1952TIP3    H227348   2.342   4.827  16.173  0.3946  1.4407 -5.5453
 1953TIP3   OH227349   0.899   2.637  11.649 -0.4986 -0.3211  0.1675
 1953TIP3    H127350   0.986   2.676  11.660 -0.8212  0.1528  1.2413
 1953TIP3    H227351   0.848   2.703  11.603  0.1763 -1.3235 -2.1447
 1954TIP3   OH227352   5.835   5.476   5.333 -0.2892 -0.2962  0.2827
 1954TIP3    H127353   5.744   5.470   5.362 -0.3993  0.1049  0.0204
 1954TIP3    H227354   5.879   5.528   5.401 -0.5042  0.4751 -0.1606
 1955TIP3   OH227355   5.502   2.438   2.686 -0.0867  0.3733  0.2390
 1955TIP3    H127356   5.461   2.370   2.740 -0.4449  0.7369  0.4359
 1955TIP3    H227357   5.449   2.516   2.703 -1.2582  0.1193 -1.8956
 1956TIP3   OH227358   3.183   3.567   4.383  0.9472  0.1144 -0.0360
 1956TIP3    H127359   3.240   3.580   4.459 -0.3982  1.3533  0.8046
 1956TIP3    H227360   3.099   3.540   4.421  0.8685 -1.4814 -1.2365
 1957TIP3   OH227361   6.227   2.361  12.888  0.0211 -0.1687  0.1324
 1957TIP3    H127362   6.142   2.316  12.889  0.2208 -0.5925 -0.7416
 1957TIP3    H227363   6.249   2.373  12.981 -0.2651 -1.4491  0.3851
 1958TIP3   OH227364   6.586   1.949   4.398 -0.3122 -0.0038 -0.3844
 1958TIP3    H127365   6.667   1.942   4.347  0.3774 -0.6973  0.7677
 1958TIP3    H227366   6.533   2.012   4.350  1.2001  1.0111 -0.7804
 1959TIP3   OH227367   2.214   5.175  12.379 -0.0090 -0.4492  0.5100
 1959TIP3    H127368   2.233   5.106  12.316 -1.5913 -2.0875  1.7178
 1959TIP3    H227369   2.161   5.238  12.330  2.7338  0.8393 -1.0460
 1960TIP3   OH227370   3.853   2.213   4.232 -0.1430 -0.0658 -0.2750
 1960TIP3    H127371   3.832   2.153   4.304  0.8479 -0.9852 -0.7258
 1960TIP3    H227372   3.937   2.251   4.257 -0.8438  1.3037  0.0880
 1961TIP3   OH227373   2.138   0.088   0.599 -0.0236  0.2571  0.4189
 1961TIP3    H127374   2.178   0.033   0.531  0.2232 -0.7586  1.3492
 1961TIP3    H227375   2.138   0.176   0.562 -1.0268 -0.4547 -1.4001
 1962TIP3   OH227376   4.618   1.700   4.724 -0.1179 -0.2242  0.1332
 1962TIP3    H127377   4.561   1.763   4.680 -2.8061 -1.0267  2.2154
 1962TIP3    H227378   4.616   1.622   4.669  1.9660  0.8439 -1.6338
 1963TIP3   OH227379   2.117   0.316   3.744 -0.3501  0.2850 -0.1683
 1963TIP3    H127380   2.039   0.319   3.800 -0.2578  1.8849 -0.0774
 1963TIP3    H227381   2.190   0.303   3.806 -0.4269 -0.0241 -0.1392
 1964TIP3   OH227382   2.517   6.650  16.973 -0.2214 -0.1060  0.1385
 1964TIP3    H127383   2.556   6.701  16.902  2.7225  0.1884  1.8187
 1964TIP3    H227384   2.540   6.698  17.052  0.3809 -2.6168  1.5972
 1965TIP3   OH227385   2.622   1.878  16.133  0.6203  0.2469 -0.2835
 1965TIP3    H127386   2.674   1.901  16.056  2.5177 -0.5718  0.6876
 1965TIP3    H227387   2.622   1.957  16.187  2.5104 -0.2681  0.5537
 1966TIP3   OH227388   6.022   6.086  10.889 -1.0549 -0.6458 -0.1205
 1966TIP3    H127389   6.001   6.103  10.797 -0.3494 -0.2931 -0.2283
 1966TIP3    H227390   5.967   6.012  10.913 -2.0069 -0.0861 -0.5214
 1967TIP3   OH227391   6.102   5.333   6.296  0.6366 -0.2598  0.4649
 1967TIP3    H127392   6.191   5.329   6.261 -0.2301 -0.9591 -1.8627
 1967TIP3    H227393   6.064   5.410   6.254 -0.0333 -0.2906  1.0048
 1968TIP3   OH227394   4.273   0.725   3.123 -0.2754  0.2671 -0.3366
 1968TIP3    H127395   4.290   0.753   3.033  3.2585 -0.2269  0.0385
 1968TIP3    H227396   4.265   0.630   3.118 -1.1477  0.3225 -0.2201
 1969TIP3   OH227397   2.607   1.705  15.225  0.1478  0.0712  0.7789
 1969TIP3    H127398   2.688   1.660  15.249 -0.2554 -1.2395 -0.2197
 1969TIP3    H227399   2.544   1.635  15.210 -0.7224  1.0022 -0.0604
 1970TIP3   OH227400   0.499   5.550   2.345  0.0332  0.8072  0.5512
 1970TIP3    H127401   0.476   5.567   2.254 -0.8118  2.1553  0.9826
 1970TIP3    H227402   0.415   5.530   2.387  0.4577 -0.1039  0.9841
 1971TIP3   OH227403   2.094   6.198   2.787 -0.0801  0.2270  0.3580
 1971TIP3    H127404   2.014   6.186   2.838 -0.8939  0.0863 -0.9091
 1971TIP3    H227405   2.082   6.143   2.710  1.2381  0.2268  0.1332
 1972TIP3   OH227406   4.494   4.717  14.938 -0.0385  0.3061 -0.1724
 1972TIP3    H127407   4.469   4.785  14.876 -1.2147 -0.0572 -0.1350
 1972TIP3    H227408   4.411   4.693  14.981  0.5294 -0.4015  0.5587
 1973TIP3   OH227409   4.303   2.478  13.177  0.8567  0.7456 -0.2151
 1973TIP3    H127410   4.302   2.563  13.133  0.6292  1.2140  0.6542
 1973TIP3    H227411   4.326   2.499  13.268 -0.7374  0.0774  0.3782
 1974TIP3   OH227412   4.760   4.221  15.633  0.6110  0.1152 -0.5065
 1974TIP3    H127413   4.706   4.143  15.620 -0.0676  0.0105  2.2499
 1974TIP3    H227414   4.828   4.194  15.695 -0.3462  1.9421  1.4679
 1975TIP3   OH227415   0.139   0.235   3.558  0.3771 -0.4211  0.2472
 1975TIP3    H127416   0.100   0.230   3.645  0.3997 -2.9405  0.2046
 1975TIP3    H227417   0.233   0.243   3.574  0.3248 -0.2023  0.4442
 1976TIP3   OH227418   0.669   0.835  11.775 -0.5570  0.5816  0.0217
 1976TIP3    H127419   0.676   0.739  11.769 -0.8047  0.6352 -1.2764
 1976TIP3    H227420   0.594   0.857  11.719 -0.5189  1.5415  0.3308
 1977TIP3   OH227421   4.172   2.740   5.874  0.1721 -0.2466  0.6631
 1977TIP3    H127422   4.140   2.818   5.919  0.4789  0.1965  0.1285
 1977TIP3    H227423   4.136   2.747   5.785  1.0952 -0.1432  0.2873
 1978TIP3   OH227424   3.490   2.925  12.533  0.8007  0.1154  0.2207
 1978TIP3    H127425   3.411   2.977  12.549  1.1283  0.2452  1.6231
 1978TIP3    H227426   3.466   2.864  12.464 -0.6052  0.0006  0.7798
 1979TIP3   OH227427   4.875   0.084   2.105  0.4557 -0.4960  0.2723
 1979TIP3    H127428   4.903   0.048   2.021  0.9205 -1.2781  0.7464
 1979TIP3    H227429   4.792   0.127   2.087  1.1646  0.4597 -0.8453
 1980TIP3   OH227430   1.947   0.665  16.769  0.3832  0.0108  0.3775
 1980TIP3    H127431   1.933   0.725  16.696  0.6297 -0.2547  0.1066
 1980TIP3    H227432   1.963   0.580  16.728 -0.9506 -0.4617  0.7675
 1981TIP3   OH227433   6.408   6.720   1.832  0.4539  0.4000  0.0017
 1981TIP3    H127434   6.344   6.657   1.797  0.1626  1.7982 -2.1639
 1981TIP3    H227435   6.363   6.804   1.829  2.1324  1.3106 -0.8740
 1982TIP3   OH227436   3.606   6.401  12.622  0.1489 -0.2338  0.2299
 1982TIP3    H127437   3.612   6.466  12.693 -0.6075  3.2219 -2.5682
 1982TIP3    H227438   3.514   6.376  12.619 -0.1883  1.0036 -0.5523
 1983TIP3   OH227439   6.423   5.320  13.321  0.9002 -0.3629 -0.1507
 1983TIP3    H127440   6.484   5.297  13.250  1.7710  1.6037 -0.0941
 1983TIP3    H227441   6.445   5.259  13.391  0.6607 -1.7301 -1.2016
 1984TIP3   OH227442   6.132   3.097  11.434  0.1881  0.1686 -0.0492
 1984TIP3    H127443   6.055   3.132  11.389  0.6513  0.2833 -0.7490
 1984TIP3    H227444   6.170   3.172  11.479  0.6824  0.3922 -0.8373
 1985TIP3   OH227445   4.635   2.998   5.722 -0.2135  0.3028 -0.1191
 1985TIP3    H127446   4.555   2.948   5.707  0.4631 -0.4538 -1.3639
 1985TIP3    H227447   4.605   3.084   5.748 -1.4122 -0.4590  1.0969
 1986TIP3   OH227448   4.500   3.243   5.880  0.2097  0.0609  0.2104
 1986TIP3    H127449   4.462   3.175   5.936 -0.0146 -0.7323 -0.8556
 1986TIP3    H227450   4.558   3.293   5.937 -1.5473  0.5735  1.6176
 1987TIP3   OH227451   0.980   4.351  16.884 -0.2381  0.2603  0.2951
 1987TIP3    H127452   0.980   4.259  16.859  0.4395 -0.0669  1.4161
 1987TIP3    H227453   0.980   4.350  16.980 -0.6556  1.4291  0.3247
 1988TIP3   OH227454   0.500   0.769  12.200 -0.0857 -0.0196  0.0613
 1988TIP3    H127455   0.496   0.674  12.213  1.0820 -0.2648 -1.1680
 1988TIP3    H227456   0.584   0.784  12.157 -1.9662  1.0582 -3.6664
 1989TIP3   OH227457   1.565   4.141  13.411 -0.0493  0.4824  0.1535
 1989TIP3    H127458   1.569   4.099  13.497  0.7239  1.1222  0.4499
 1989TIP3    H227459   1.521   4.078  13.355  0.7498 -0.5635  0.6706
 1990TIP3   OH227460   5.540   6.044   1.585  0.5259  0.0219  0.6934
 1990TIP3    H127461   5.626   6.084   1.570  0.4187  0.0099  0.0251
 1990TIP3    H227462   5.519   6.065   1.676 -0.1396  2.6574  0.0132
 1991TIP3   OH227463   0.606   0.687  14.217  0.0034 -0.0270  0.2312
 1991TIP3    H127464   0.573   0.684  14.307 -1.2396 -4.6499 -0.0817
 1991TIP3    H227465   0.532   0.719  14.165 -1.1717 -2.2004  0.4459
 1992TIP3   OH227466   4.341   2.682  11.818  0.2353 -0.4489 -0.1563
 1992TIP3    H127467   4.275   2.686  11.748 -0.9586  0.5259  0.9713
 1992TIP3    H227468   4.322   2.599  11.862 -1.1639  0.4307  0.9836
 1993TIP3   OH227469   0.982   5.100  13.439  0.5292 -0.4006 -0.0023
 1993TIP3    H127470   0.951   5.059  13.358 -2.5600  0.3735  0.6808
 1993TIP3    H227471   1.037   5.032  13.480  1.0707 -1.2933 -2.0644
 1994TIP3   OH227472   6.420   2.036   2.429 -0.1110 -0.3090  0.6748
 1994TIP3    H127473   6.419   1.945   2.400 -1.2517  0.3645 -1.6255
 1994TIP3    H227474   6.337   2.047   2.477 -1.2338  0.1246 -1.2837
 1995TIP3   OH227475   4.868   6.471  13.355  0.5925  0.1518 -0.4799
 1995TIP3    H127476   4.867   6.383  13.393  0.5458 -1.1898 -3.3552
 1995TIP3    H227477   4.817   6.463  13.274 -1.8688  3.5501  0.5012
 1996TIP3   OH227478   0.616   5.538   3.693  0.9147 -0.2451 -0.1760
 1996TIP3    H127479   0.707   5.520   3.718  0.9899  1.9387  1.4151
 1996TIP3    H227480   0.623   5.586   3.610  1.1088 -1.0730 -0.6534
 1997TIP3   OH227481   0.723   0.359  13.079  0.5184  0.0327  0.2116
 1997TIP3    H127482   0.760   0.279  13.043  1.9207  0.9138 -0.3393
 1997TIP3    H227483   0.652   0.382  13.019 -1.1282 -1.7168  1.3368
 1998TIP3   OH227484   3.110   3.042   2.909  0.5731  0.1452 -0.0728
 1998TIP3    H127485   3.192   3.017   2.868  1.0148  0.7297  0.4335
 1998TIP3    H227486   3.047   2.978   2.878  0.7192  0.9712 -2.2470
 1999TIP3   OH227487   1.076   0.958  15.428  0.5337  0.1444 -0.6239
 1999TIP3    H127488   1.148   0.990  15.481  0.1494 -0.1647  0.1069
 1999TIP3    H227489   1.042   0.883  15.478 -0.8471  0.8295 -0.5016
 2000TIP3   OH227490   6.448   3.746   5.263  0.3182 -0.2323  0.0171
 2000TIP3    H127491   6.415   3.691   5.191 -1.1335 -0.7298  1.0176
 2000TIP3    H227492   6.444   3.689   5.340 -1.2008  1.2036  1.0814
 2001TIP3   OH227493   3.044   6.112  13.498  0.0374  0.0802 -0.2429
 2001TIP3    H127494   3.059   6.204  13.519  0.7528  0.7163 -3.1310
 2001TIP3    H227495   3.075   6.064  13.574  2.7382  2.0974  0.0681
 2002TIP3   OH227496   4.655   2.995   2.089 -0.3460  0.4009 -0.2934
 2002TIP3    H127497   4.706   3.070   2.121 -1.4993  1.0170  0.1961
 2002TIP3    H227498   4.675   2.925   2.150  0.6423  0.3372 -0.6724
 2003TIP3   OH227499   2.532   0.880   2.048  0.6248  0.1176  0.0002
 2003TIP3    H127500   2.530   0.949   2.114 -0.8878  0.4626 -0.3669
 2003TIP3    H227501   2.491   0.805   2.091 -0.1388  0.2686 -0.4494
 2004TIP3   OH227502   2.238   3.358   2.707  0.8185 -0.5711 -0.1779
 2004TIP3    H127503   2.248   3.274   2.752  1.4108  0.0844  0.9892
 2004TIP3    H227504   2.299   3.416   2.753 -0.8121  0.9406  0.2011
 2005TIP3   OH227505   5.667   5.930  11.208 -0.3983 -0.0083  0.0153
 2005TIP3    H127506   5.739   5.993  11.206 -1.2976  1.0497  0.2142
 2005TIP3    H227507   5.690   5.864  11.142  1.7579 -0.8454  1.4864
 2006TIP3   OH227508   0.718   0.835  15.234  0.4928 -0.3699 -0.3248
 2006TIP3    H127509   0.646   0.840  15.297  1.1397 -1.3619  0.5363
 2006TIP3    H227510   0.763   0.919  15.241 -0.9049  0.4940 -1.3097
 2007TIP3   OH227511   2.975   2.208  13.342 -0.1110 -0.1381 -0.5424
 2007TIP3    H127512   3.067   2.180  13.342 -0.4055 -1.1517 -1.1593
 2007TIP3    H227513   2.962   2.246  13.255 -0.0215  0.9181 -0.1085
 2008TIP3   OH227514   3.699   5.917   0.682  0.2884  0.1337  0.1936
 2008TIP3    H127515   3.716   5.910   0.776 -2.4090 -2.5764  0.6421
 2008TIP3    H227516   3.756   5.851   0.643 -1.0383 -1.2377  0.4420
 2009TIP3   OH227517   4.535   2.540   4.240 -0.0204  0.0478 -0.4416
 2009TIP3    H127518   4.505   2.472   4.302  0.3245  1.1340  0.9807
 2009TIP3    H227519   4.631   2.536   4.245  0.0095  1.2147  0.3598
 2010TIP3   OH227520   6.309   3.346  14.655 -0.1632 -0.2097 -0.0829
 2010TIP3    H127521   6.216   3.332  14.673 -0.3367  0.6238 -0.2551
 2010TIP3    H227522   6.313   3.372  14.563  0.2185 -0.0875 -0.0376
 2011TIP3   OH227523   6.594   6.380  13.583  0.9360  0.0143 -0.2653
 2011TIP3    H127524   6.661   6.442  13.555  0.6748  2.2570  3.4353
 2011TIP3    H227525   6.513   6.413  13.544  0.8301  2.0675  1.5132
 2012TIP3   OH227526   0.086   2.408  15.109  0.4861  0.0990  0.5967
 2012TIP3    H127527   0.055   2.353  15.037  0.9894 -3.2207  2.7090
 2012TIP3    H227528   0.177   2.383  15.121  0.3179  0.3072  2.6130
 2013TIP3   OH227529   0.556   0.702  17.054  0.4695 -0.7012  0.3638
 2013TIP3    H127530   0.512   0.670  17.132 -1.1900 -1.9776 -1.0076
 2013TIP3    H227531   0.636   0.650  17.048  1.4396  0.4950  1.9888
 2014TIP3   OH227532   3.186   4.378   2.458 -0.1805  0.1980 -0.0451
 2014TIP3    H127533   3.234   4.442   2.407  0.2346  0.8101  1.0860
 2014TIP3    H227534   3.165   4.423   2.540  1.2385 -1.4931  1.3253
 2015TIP3   OH227535   2.765   0.003   1.130 -0.4069  0.1004 -0.5039
 2015TIP3    H127536   2.741   0.069   1.066 -1.9124 -0.0228 -0.0993
 2015TIP3    H227537   2.771   0.051   1.213 -2.3603 -0.3731 -0.0498
 2016TIP3   OH227538   1.520   5.475   6.126  0.2338 -0.2869  0.5037
 2016TIP3    H127539   1.557   5.464   6.038  0.1279  0.4201  0.3649
 2016TIP3    H227540   1.426   5.479   6.111  0.2503  0.5077  0.5690
 2017TIP3   OH227541   4.578   3.030   3.826  0.5105  0.1252 -0.0114
 2017TIP3    H127542   4.573   3.010   3.732  0.0546 -0.8745  0.2144
 2017TIP3    H227543   4.509   3.096   3.839  0.4807  0.1658 -0.3529
 2018TIP3   OH227544   1.981   1.370   4.850  0.4143  0.4931  0.4759
 2018TIP3    H127545   2.067   1.342   4.818 -0.2489 -0.0254 -0.8859
 2018TIP3    H227546   1.999   1.403   4.939  1.4920 -2.9192  1.6875
 2019TIP3   OH227547   0.056   4.631  11.081  0.1787 -0.1521  0.1101
 2019TIP3    H127548   0.071   4.721  11.051 -0.4303 -0.0653  0.0413
 2019TIP3    H227549  -0.039   4.621  11.078  0.2441 -0.8132  0.0795
 2020TIP3   OH227550   6.071   0.459   0.977 -0.1235  0.1707 -0.3721
 2020TIP3    H127551   6.025   0.520   0.920  1.7567  2.2892  0.1977
 2020TIP3    H227552   6.038   0.478   1.065  0.2970  0.2212 -0.2198
 2021TIP3   OH227553   0.691   3.892   3.368 -0.2736  0.6760  0.2747
 2021TIP3    H127554   0.607   3.846   3.360 -0.2976  0.8719 -0.7222
 2021TIP3    H227555   0.717   3.909   3.278  1.7291 -0.9797  0.4653
 2022TIP3   OH227556   2.502   3.414  11.409  0.2422  0.0663  0.5778
 2022TIP3    H127557   2.479   3.463  11.330  0.7178  0.7910  0.8878
 2022TIP3    H227558   2.563   3.347  11.378  0.5935  0.4826  0.3634
 2023TIP3   OH227559   1.313   4.035   2.613 -0.5127  0.5552  0.0265
 2023TIP3    H127560   1.314   4.091   2.690  1.9590 -0.0355  0.5169
 2023TIP3    H227561   1.338   4.092   2.541  0.6924  0.4253  0.3087
 2024TIP3   OH227562   5.835   5.487   5.907 -0.0168 -0.0774  0.2917
 2024TIP3    H127563   5.899   5.541   5.861 -1.3810  2.4802  1.1187
 2024TIP3    H227564   5.845   5.512   5.999 -1.3811 -0.4729  0.5736
 2025TIP3   OH227565   6.674   4.099   4.868  0.4058 -0.1511  0.6233
 2025TIP3    H127566   6.748   4.114   4.926 -0.6678 -0.1890  2.0691
 2025TIP3    H227567   6.602   4.150   4.906 -0.4755 -0.5810 -0.3909
 2026TIP3   OH227568   2.275   6.029   5.579 -0.1420 -0.1808  0.6204
 2026TIP3    H127569   2.326   6.037   5.498  1.3736  2.7421  1.6879
 2026TIP3    H227570   2.198   6.085   5.563 -0.9521 -1.3132  0.4776
 2027TIP3   OH227571   0.665   6.694   3.596  0.0065  0.5305 -0.0991
 2027TIP3    H127572   0.670   6.617   3.652 -0.3645  1.0881  0.7205
 2027TIP3    H227573   0.617   6.664   3.519 -0.0812 -0.0719  0.1841
 2028TIP3   OH227574   1.171   2.647   2.821 -0.6189  0.2565  0.7977
 2028TIP3    H127575   1.210   2.566   2.790 -0.5599  0.7351 -0.4513
 2028TIP3    H227576   1.076   2.631   2.820 -0.6334  0.3571  0.0592
 2029TIP3   OH227577   1.644   6.299   4.829  0.8567 -0.3444  0.1739
 2029TIP3    H127578   1.558   6.274   4.795  1.0332 -0.1670 -0.4047
 2029TIP3    H227579   1.653   6.392   4.808  1.6786 -0.6300 -0.8337
 2030TIP3   OH227580   1.781   0.858   0.075 -0.4124  0.0392  0.2302
 2030TIP3    H127581   1.786   0.941   0.027  0.6385 -0.3046 -0.2766
 2030TIP3    H227582   1.750   0.795   0.011  0.6581 -0.3502  0.0806
 2031TIP3   OH227583   2.136   2.438   2.471 -0.5419  0.0759  0.4155
 2031TIP3    H127584   2.096   2.519   2.503  0.4436  1.1678 -0.9647
 2031TIP3    H227585   2.227   2.461   2.456  0.0204 -1.6381  1.0397
 2032TIP3   OH227586   5.515   5.248  11.214 -0.1643 -0.3045 -0.1602
 2032TIP3    H127587   5.540   5.311  11.147 -0.2126  0.3734  0.4508
 2032TIP3    H227588   5.442   5.200  11.175 -0.6180  0.5208 -0.3459
 2033TIP3   OH227589   3.731   0.901  15.819  0.1264 -0.2942 -0.0712
 2033TIP3    H127590   3.807   0.861  15.775 -0.5690 -0.4063 -1.1970
 2033TIP3    H227591   3.726   0.989  15.783 -0.3885 -0.3490 -0.1402
 2034TIP3   OH227592   0.771   4.053  13.755 -1.0294 -0.3488 -0.2954
 2034TIP3    H127593   0.835   4.121  13.732  0.3945 -1.3757  0.4787
 2034TIP3    H227594   0.748   4.013  13.671 -0.2244 -0.3200 -0.5386
 2035TIP3   OH227595   4.770   6.298   0.257 -0.5215 -0.0905  0.1660
 2035TIP3    H127596   4.765   6.253   0.173  0.9263  0.3621 -0.1943
 2035TIP3    H227597   4.753   6.390   0.236 -0.6637 -0.0494  0.4508
 2036TIP3   OH227598   2.274   6.653   0.011 -0.1186  0.8439 -0.1897
 2036TIP3    H127599   2.345   6.637  -0.050 -0.6113  2.0201 -1.1122
 2036TIP3    H227600   2.316   6.656   0.097  0.5556 -1.0447 -0.3964
 2037TIP3   OH227601   5.334   1.197  13.860 -0.4513  0.6308 -0.1399
 2037TIP3    H127602   5.318   1.132  13.791 -1.1709  3.3044 -2.7036
 2037TIP3    H227603   5.278   1.169  13.933 -0.3600 -1.8244 -0.9056
 2038TIP3   OH227604   0.521   3.545  13.000 -0.2438  0.2198  0.3384
 2038TIP3    H127605   0.448   3.510  12.949 -2.5224  2.5015  1.7657
 2038TIP3    H227606   0.541   3.629  12.960  0.5379  0.3115  0.8979
 2039TIP3   OH227607   6.774   2.858   1.626  0.3081 -0.8090 -0.2064
 2039TIP3    H127608   6.810   2.805   1.698 -0.2573 -2.4665 -1.0936
 2039TIP3    H227609   6.682   2.834   1.623  0.4564 -1.2284 -1.8778
 2040TIP3   OH227610   4.537   6.001   4.526  0.6077  0.1101  0.2365
 2040TIP3    H127611   4.514   5.912   4.553 -0.8749  0.2454 -0.4824
 2040TIP3    H227612   4.568   5.992   4.436  1.8862  0.1520  0.6518
 2041TIP3   OH227613   3.670   0.585  16.934 -0.1584  0.2923 -0.6026
 2041TIP3    H127614   3.638   0.609  17.021  1.6626 -0.3632  0.2995
 2041TIP3    H227615   3.591   0.568  16.883 -1.2478 -0.5578  1.2915
 2042TIP3   OH227616   6.201   6.460   3.110  0.3073  0.2825 -0.0427
 2042TIP3    H127617   6.275   6.508   3.072 -0.7305  0.8700 -1.3880
 2042TIP3    H227618   6.155   6.526   3.162 -2.2080  1.4049 -3.4050
 2043TIP3   OH227619   0.208   3.842  13.971  0.0966 -0.1650 -0.6710
 2043TIP3    H127620   0.198   3.748  13.982  1.2354 -0.0852  1.5312
 2043TIP3    H227621   0.232   3.874  14.058  1.6822  1.8931 -1.7850
 2044TIP3   OH227622   2.664   0.617   5.709 -0.4100  0.1744 -0.4734
 2044TIP3    H127623   2.590   0.556   5.723 -0.0787 -0.4017 -1.1931
 2044TIP3    H227624   2.634   0.674   5.638  0.1499 -0.6040 -1.3581
 2045TIP3   OH227625   6.689   1.198  16.876 -0.2831  0.3408  0.0810
 2045TIP3    H127626   6.612   1.154  16.912 -0.6425  1.1648  0.3335
 2045TIP3    H227627   6.669   1.291  16.883  0.4149  0.5464 -0.5732
 2046TIP3   OH227628   3.871   1.878   0.869  0.2954  0.3618 -0.9172
 2046TIP3    H127629   3.803   1.812   0.863  1.0105 -0.4026 -0.8709
 2046TIP3    H227630   3.941   1.836   0.919  1.0547  0.9015 -1.4962
 2047TIP3   OH227631   4.965   6.808   3.557  0.0215  0.7364  0.4491
 2047TIP3    H127632   5.016   6.732   3.586  0.4550  1.2426  1.0553
 2047TIP3    H227633   4.954   6.795   3.463 -0.8220 -0.6040  0.7063
 2048TIP3   OH227634   0.147   5.521   1.183 -0.7024  0.6543 -0.2483
 2048TIP3    H127635   0.159   5.582   1.111  0.3229 -0.1513 -0.7871
 2048TIP3    H227636   0.062   5.543   1.220 -1.4180  0.8435 -1.9395
 2049TIP3   OH227637   2.120   6.144  13.944  0.2050  0.1335  0.0294
 2049TIP3    H127638   2.134   6.219  14.002  1.5217  1.0286 -1.3614
 2049TIP3    H227639   2.208   6.123  13.911 -0.4613 -0.5261 -1.4077
 2050TIP3   OH227640   5.532   4.421  12.282  0.3325 -0.3508  0.5602
 2050TIP3    H127641   5.617   4.460  12.260 -0.6185  0.5592 -1.8589
 2050TIP3    H227642   5.526   4.430  12.377  2.4648  0.5607  0.6782
 2051TIP3   OH227643   4.895   6.848   2.509 -0.4251  0.2189  0.6011
 2051TIP3    H127644   4.951   6.781   2.548  1.3979  0.4112 -1.5171
 2051TIP3    H227645   4.885   6.914   2.578 -0.3708 -1.1145  1.9423
 2052TIP3   OH227646   3.344   6.115  10.106 -0.4018 -0.0171 -0.0036
 2052TIP3    H127647   3.411   6.105  10.038  0.4153 -0.0295  0.7723
 2052TIP3    H227648   3.337   6.029  10.145 -0.1638  0.2086  0.5479
 2053TIP3   OH227649   4.388   3.204   5.623 -0.5625 -0.2149 -0.2526
 2053TIP3    H127650   4.425   3.218   5.710 -1.9497 -0.9656  0.4779
 2053TIP3    H227651   4.408   3.286   5.576  1.2855 -0.2807  0.3336
 2054TIP3   OH227652   4.412   0.923  15.876  0.2779  0.9605  0.5497
 2054TIP3    H127653   4.405   0.917  15.972 -1.4069 -1.0976  0.3860
 2054TIP3    H227654   4.447   1.010  15.860  2.2833  0.7589  3.0926
 2055TIP3   OH227655   2.518   1.793   4.989  0.7656  0.2533  0.3948
 2055TIP3    H127656   2.508   1.885   4.962  0.4818  0.0536 -0.1950
 2055TIP3    H227657   2.469   1.743   4.924  0.2304 -0.2637  1.1746
 2056TIP3   OH227658   4.584   4.880  10.090 -0.4919  0.5008 -0.3508
 2056TIP3    H127659   4.539   4.796  10.097  0.4551 -0.0690 -0.8367
 2056TIP3    H227660   4.519   4.945  10.117 -1.0256 -0.4389  0.6879
 2057TIP3   OH227661   5.536   5.486   4.975  0.2230 -0.1300 -0.4257
 2057TIP3    H127662   5.474   5.453   4.909  0.5309 -0.9186 -0.3217
 2057TIP3    H227663   5.499   5.570   5.002 -0.5928 -0.4061 -0.6621
 2058TIP3   OH227664   3.340   3.175  12.242  0.2203 -0.6593 -0.0453
 2058TIP3    H127665   3.368   3.206  12.328 -0.6470  0.1874 -0.0574
 2058TIP3    H227666   3.268   3.115  12.260 -1.8037  1.5347 -0.2318
 2059TIP3   OH227667   0.449   5.179   1.731  0.0279 -0.5708 -0.2965
 2059TIP3    H127668   0.468   5.085   1.733  2.0018 -0.2010 -0.2833
 2059TIP3    H227669   0.436   5.198   1.638  2.9927 -0.2940 -0.7420
 2060TIP3   OH227670   5.522   3.907   5.172 -0.0955  0.3054 -0.3414
 2060TIP3    H127671   5.455   3.853   5.130  1.2016 -0.4479 -1.5650
 2060TIP3    H227672   5.598   3.898   5.115  1.4389  0.1294  1.6270
 2061TIP3   OH227673   5.967   1.820   0.308 -0.4510  0.2994  0.2544
 2061TIP3    H127674   6.054   1.859   0.319  0.5306 -1.3073 -1.3793
 2061TIP3    H227675   5.938   1.803   0.398  1.4570 -0.2373  0.8266
 2062TIP3   OH227676   4.405   5.666   0.336  0.2129  0.2905  0.3098
 2062TIP3    H127677   4.402   5.582   0.290  0.9939  0.0720  0.6438
 2062TIP3    H227678   4.318   5.704   0.322 -0.1980 -0.6323  0.2565
 2063TIP3   OH227679   6.371   4.825   1.023  0.7532  0.1211 -0.3855
 2063TIP3    H127680   6.352   4.739   0.987  1.6571 -0.5564  0.6779
 2063TIP3    H227681   6.430   4.866   0.960  4.5009 -2.0745  1.3617
 2064TIP3   OH227682   2.464   0.473  12.419 -0.5278  0.3703 -0.1321
 2064TIP3    H127683   2.406   0.403  12.390 -0.0952  0.4779 -1.2992
 2064TIP3    H227684   2.481   0.525  12.341  0.7745  0.6059  0.2748
 2065TIP3   OH227685   3.666   2.634  11.283  0.1536 -0.2415  0.0230
 2065TIP3    H127686   3.735   2.568  11.295 -1.0526 -1.8591 -1.4031
 2065TIP3    H227687   3.713   2.714  11.260  1.5908 -1.3490 -1.1207
 2066TIP3   OH227688   6.147   6.193  11.703  0.1500 -0.1963 -0.2880
 2066TIP3    H127689   6.205   6.137  11.651  0.1545  0.3205 -0.8610
 2066TIP3    H227690   6.165   6.169  11.794  0.7026 -0.5839 -0.4928
 2067TIP3   OH227691   3.873   5.993   2.505  0.2502 -0.2643 -0.0326
 2067TIP3    H127692   3.950   6.009   2.449  1.0505 -0.6734  0.9163
 2067TIP3    H227693   3.910   5.980   2.592 -0.9160 -0.4608  0.4447
 2068TIP3   OH227694   3.121   5.872   1.655  0.2697 -0.2866 -0.2194
 2068TIP3    H127695   3.214   5.856   1.672  0.9210  1.4604 -1.7841
 2068TIP3    H227696   3.077   5.791   1.680  2.3624 -1.5848 -0.5606
 2069TIP3   OH227697   6.186   6.248  13.514  0.1746 -0.1049 -0.0727
 2069TIP3    H127698   6.188   6.155  13.494 -0.0507 -0.0363 -0.4164
 2069TIP3    H227699   6.095   6.266  13.538  0.4292 -0.1766  0.9750
 2070TIP3   OH227700   0.957   2.386  14.157  0.1802  0.3120 -0.7299
 2070TIP3    H127701   1.009   2.462  14.183  1.7813 -0.1127 -2.5048
 2070TIP3    H227702   1.020   2.325  14.119 -1.2865 -1.2811 -0.7422
 2071TIP3   OH227703   2.440   4.643  11.792  0.1877 -0.1991 -0.4392
 2071TIP3    H127704   2.436   4.616  11.700  0.2020  0.8163 -0.7560
 2071TIP3    H227705   2.420   4.564  11.841  1.3034 -1.0501 -1.2807
 2072TIP3   OH227706   1.611   0.886  13.778 -0.0180  0.4263 -0.2884
 2072TIP3    H127707   1.706   0.879  13.768  0.1030  1.5956 -0.0191
 2072TIP3    H227708   1.576   0.818  13.720  0.9982 -0.5268  0.1789
 2073TIP3   OH227709   1.056   2.791  15.000 -0.0167 -0.1615  0.3745
 2073TIP3    H127710   1.019   2.745  15.076  1.9050  0.7232  1.9500
 2073TIP3    H227711   1.105   2.724  14.953  0.0130 -0.4236  0.7713
 2074TIP3   OH227712   1.350   5.255  13.886  0.0387  0.3446 -0.0905
 2074TIP3    H127713   1.430   5.202  13.890  0.6851  1.2578 -0.5133
 2074TIP3    H227714   1.299   5.215  13.815 -2.0341 -3.0670  2.9775
 2075TIP3   OH227715   3.015   6.852   1.002  0.2916 -0.5636 -0.3215
 2075TIP3    H127716   3.033   6.944   0.983  0.0786 -0.7630 -1.5975
 2075TIP3    H227717   2.923   6.850   1.027  1.0866  0.0243  3.2136
 2076TIP3   OH227718   3.513   3.330  15.744 -0.0869 -0.0273 -0.4717
 2076TIP3    H127719   3.565   3.298  15.818 -2.3663 -0.3763  1.0814
 2076TIP3    H227720   3.468   3.253  15.711  0.0795  0.3247 -1.5823
 2077TIP3   OH227721   0.839   6.141  10.963  0.1903  0.3584  0.6777
 2077TIP3    H127722   0.853   6.227  10.923  0.8566  0.1526  0.4479
 2077TIP3    H227723   0.871   6.079  10.897 -0.2841 -0.0642  0.8448
 2078TIP3   OH227724   0.761   4.697   2.961  0.1793  0.1503 -0.6698
 2078TIP3    H127725   0.830   4.670   2.900  0.5897 -0.8868  0.2378
 2078TIP3    H227726   0.703   4.621   2.968  0.8669 -0.2444  1.2315
 2079TIP3   OH227727   0.770   0.066  15.816 -0.1226  0.0142 -0.0988
 2079TIP3    H127728   0.753   0.010  15.891  0.5412  1.2128  0.9914
 2079TIP3    H227729   0.688   0.112  15.801 -0.5747 -0.9874 -0.8018
 2080TIP3   OH227730   4.866   5.095   2.458 -0.4638 -0.6321  0.7818
 2080TIP3    H127731   4.771   5.079   2.462 -0.4805 -0.9047 -0.5111
 2080TIP3    H227732   4.876   5.161   2.391  0.0012  1.9038  3.1720
 2081TIP3   OH227733   2.837   2.047  12.747 -0.2569 -0.0374  0.1497
 2081TIP3    H127734   2.919   2.007  12.720 -0.7771 -0.4065 -0.9472
 2081TIP3    H227735   2.805   1.991  12.817 -0.1626 -0.6025 -0.2502
 2082TIP3   OH227736   5.411   2.664  14.181 -0.1394  0.5549 -0.7224
 2082TIP3    H127737   5.361   2.726  14.127  1.7755  1.7759 -1.2033
 2082TIP3    H227738   5.498   2.704  14.188 -0.1190  0.1639  2.8505
 2083TIP3   OH227739   0.700   3.249  13.427 -0.1215 -0.1745 -0.3065
 2083TIP3    H127740   0.637   3.215  13.364  0.6822 -0.5374 -0.9312
 2083TIP3    H227741   0.660   3.329  13.460 -0.9895 -0.4985 -0.5487
 2084TIP3   OH227742   3.996   6.846  12.434 -0.2982  0.3282 -0.3396
 2084TIP3    H127743   4.033   6.844  12.346  1.9160  1.2309  0.4796
 2084TIP3    H227744   3.939   6.923  12.434 -0.9705 -0.1584 -1.2017
 2085TIP3   OH227745   4.345   6.163  15.914 -0.2223 -0.0155 -0.0816
 2085TIP3    H127746   4.303   6.083  15.883 -1.4078 -0.4272  2.3685
 2085TIP3    H227747   4.279   6.207  15.967  1.2164  1.3285  0.7038
 2086TIP3   OH227748   3.904   3.186   4.225  0.4713 -0.1995 -0.2273
 2086TIP3    H127749   3.884   3.121   4.292  0.1733 -0.1675 -0.2807
 2086TIP3    H227750   3.869   3.268   4.259  0.2479 -0.1979 -0.4504
 2087TIP3   OH227751   4.540   1.449   3.320 -0.0784  0.1797 -0.3557
 2087TIP3    H127752   4.582   1.482   3.241 -1.4364  0.8591 -0.8313
 2087TIP3    H227753   4.560   1.355   3.321  2.2010  0.6203 -0.0385
 2088TIP3   OH227754   4.781   2.532  16.346 -0.6514  0.2998 -1.0533
 2088TIP3    H127755   4.737   2.599  16.398  0.0286 -0.3913  0.4954
 2088TIP3    H227756   4.820   2.580  16.273  0.7917  1.8424  0.6056
 2089TIP3   OH227757   2.085   3.353  16.531 -0.6783 -0.1018 -0.0742
 2089TIP3    H127758   2.097   3.265  16.495 -0.7821 -0.6086  1.0796
 2089TIP3    H227759   2.173   3.388  16.540 -0.6996  1.0820 -3.1858
 2090TIP3   OH227760   4.310   0.072  11.054  0.5845  0.3540  0.5651
 2090TIP3    H127761   4.404   0.072  11.035  0.5032 -0.1914  0.1487
 2090TIP3    H227762   4.294  -0.011  11.099  0.3594  0.5928  0.9315
 2091TIP3   OH227763   3.426   4.112  16.873 -0.4138 -0.8109 -0.0637
 2091TIP3    H127764   3.415   4.088  16.781  1.5373 -0.9965 -0.2905
 2091TIP3    H227765   3.504   4.168  16.874 -1.2076  0.3223  1.3102
 2092TIP3   OH227766   5.251   2.370   5.319  0.2887  0.1191  0.1181
 2092TIP3    H127767   5.264   2.365   5.224  0.9090  0.2358  0.1974
 2092TIP3    H227768   5.158   2.390   5.329  0.1362 -0.2759 -0.4574
 2093TIP3   OH227769   4.488   5.546  12.539  0.0362 -0.1493  0.5090
 2093TIP3    H127770   4.534   5.613  12.488 -1.2169  0.0047 -0.4596
 2093TIP3    H227771   4.436   5.595  12.602  0.1349 -0.2799  0.6962
 2094TIP3   OH227772   0.117   3.982   1.853  0.1188 -0.2914 -0.0237
 2094TIP3    H127773   0.201   4.012   1.819 -0.4435  0.6122 -0.6672
 2094TIP3    H227774   0.112   4.019   1.942  0.4433 -0.4358  0.0549
 2095TIP3   OH227775   0.373   0.971  11.916 -0.3769  0.6192  0.2655
 2095TIP3    H127776   0.295   0.940  11.963 -0.3211 -0.1194 -0.1077
 2095TIP3    H227777   0.435   0.994  11.986  0.3288 -2.0450  0.6639
 2096TIP3   OH227778   3.708   3.544  10.527 -0.3342  0.0506 -0.3684
 2096TIP3    H127779   3.641   3.484  10.496 -0.1555 -1.0377  1.2123
 2096TIP3    H227780   3.759   3.492  10.590  0.1083  1.7129  0.7155
 2097TIP3   OH227781   2.375   0.941  16.253 -0.2836  0.5340  0.1396
 2097TIP3    H127782   2.443   0.948  16.320  0.5713  0.2853 -0.6846
 2097TIP3    H227783   2.326   0.862  16.276  0.9237 -0.3784 -0.3392
 2098TIP3   OH227784   4.794   1.999   1.899 -0.4600 -0.3844 -0.1222
 2098TIP3    H127785   4.752   2.085   1.894  0.2902  0.0232  0.4000
 2098TIP3    H227786   4.822   1.991   1.990 -0.0460 -0.9578 -0.2899
 2099TIP3   OH227787   6.633   3.837  14.009 -0.1066  0.3482  0.4035
 2099TIP3    H127788   6.690   3.890  13.953 -0.7231  3.0484  2.1324
 2099TIP3    H227789   6.545   3.872  13.993 -0.9956 -2.0735 -0.3864
 2100TIP3   OH227790   3.778   6.473   1.373  0.5942 -0.3962  0.0729
 2100TIP3    H127791   3.759   6.388   1.334  0.0200 -0.3219  0.1937
 2100TIP3    H227792   3.811   6.453   1.461 -1.3922 -0.4346  0.8521
 2101TIP3   OH227793   2.061   2.751  16.790 -0.3927 -0.0514  0.1582
 2101TIP3    H127794   2.116   2.792  16.723 -0.4670 -1.1601 -0.5974
 2101TIP3    H227795   2.051   2.660  16.761 -0.9731 -0.3804  1.3323
 2102TIP3   OH227796   0.711   2.366  14.727 -0.4186  0.1357  0.0953
 2102TIP3    H127797   0.789   2.334  14.773  0.0365  0.2289 -0.5978
 2102TIP3    H227798   0.741   2.445  14.683 -1.3806  1.2204  1.3122
 2103TIP3   OH227799   6.704   5.662   5.272 -0.7442  0.0748  0.3386
 2103TIP3    H127800   6.719   5.738   5.329 -0.3830 -0.6094  1.1945
 2103TIP3    H227801   6.766   5.674   5.200  0.7050 -0.3519  1.4524
 2104TIP3   OH227802   4.198   6.358  15.440  0.0839 -0.3124 -0.1219
 2104TIP3    H127803   4.183   6.290  15.375  0.4390 -0.9690  0.4746
 2104TIP3    H227804   4.123   6.352  15.499  0.7374 -1.0523  0.6634
 2105TIP3   OH227805   4.689   1.954   0.473 -0.2786  0.0390  0.2903
 2105TIP3    H127806   4.757   2.020   0.461 -0.9255  0.5546 -0.7736
 2105TIP3    H227807   4.657   1.968   0.562  0.8532 -0.0889  0.7355
 2106TIP3   OH227808   4.373   4.424   2.945 -0.5607  0.6254  0.1051
 2106TIP3    H127809   4.377   4.332   2.921  0.9341  0.2305  1.6481
 2106TIP3    H227810   4.279   4.445   2.947 -0.9413 -0.9987  0.2496
 2107TIP3   OH227811   0.913   3.633   5.457 -0.0409 -0.2560  0.3794
 2107TIP3    H127812   0.951   3.631   5.545  3.6758  0.1434 -1.0080
 2107TIP3    H227813   0.844   3.698   5.462 -0.4590 -0.7876  3.1431
 2108TIP3   OH227814   3.189   1.320   6.281  0.3764 -0.1571  0.1182
 2108TIP3    H127815   3.224   1.241   6.320  1.7985 -0.0639 -0.9074
 2108TIP3    H227816   3.183   1.382   6.354  3.1684  0.0793  0.2465
 2109TIP3   OH227817   1.540   5.646   5.056  0.2035 -0.4672  0.4897
 2109TIP3    H127818   1.503   5.684   5.135  1.9864  1.9498  0.2797
 2109TIP3    H227819   1.633   5.669   5.059  0.3590 -0.3583 -2.2486
 2110TIP3   OH227820   3.598   0.049   0.597 -0.1457 -0.1000 -0.0706
 2110TIP3    H127821   3.512   0.028   0.633 -0.2246  1.2798  0.5764
 2110TIP3    H227822   3.659   0.030   0.668 -0.3089  2.6878  0.9265
 2111TIP3   OH227823   1.486   3.189   5.752 -0.0814 -0.0969  0.1558
 2111TIP3    H127824   1.433   3.112   5.770  0.4492 -0.8787 -1.4126
 2111TIP3    H227825   1.445   3.230   5.676  1.4432 -0.6707 -1.0346
 2112TIP3   OH227826   1.668   0.429   3.495 -0.2512  0.6277  0.5179
 2112TIP3    H127827   1.713   0.494   3.549 -0.3921  1.7249 -0.6363
 2112TIP3    H227828   1.674   0.348   3.545 -0.0398  1.5182  1.9874
 2113TIP3   OH227829   2.418   1.127   3.889 -0.6383 -0.5205 -0.1738
 2113TIP3    H127830   2.405   1.096   3.799  1.3341 -2.4596  0.1295
 2113TIP3    H227831   2.339   1.098   3.935 -1.2776 -0.2719 -1.0737
 2114TIP3   OH227832   1.225   5.791   0.660  0.1808 -0.3295  0.5260
 2114TIP3    H127833   1.231   5.724   0.592 -1.6313  0.7165 -0.7568
 2114TIP3    H227834   1.135   5.784   0.693  0.6882 -0.0676  2.0567
 2115TIP3   OH227835   4.752   5.577   5.030  0.2167  0.6728  0.1559
 2115TIP3    H127836   4.756   5.650   4.968  0.6299  0.3054 -0.2506
 2115TIP3    H227837   4.685   5.519   4.994 -0.8782  1.3350  1.0252
 2116TIP3   OH227838   2.754   5.825  11.980  0.4158 -0.2477 -0.5349
 2116TIP3    H127839   2.709   5.743  11.960 -0.8417 -0.1783  1.6611
 2116TIP3    H227840   2.819   5.802  12.046 -0.3495  0.5782  0.5411
 2117TIP3   OH227841   6.591   1.567  13.019 -0.0248  0.0168  0.5425
 2117TIP3    H127842   6.667   1.556  12.964 -2.7581 -1.7846 -3.2983
 2117TIP3    H227843   6.573   1.479  13.054 -2.0088 -0.3512 -1.2250
 2118TIP3   OH227844   4.984   1.866   4.094  0.9797  0.2140 -0.4997
 2118TIP3    H127845   5.067   1.892   4.134  0.5852 -1.2780  1.4038
 2118TIP3    H227846   4.917   1.912   4.143  0.5419 -0.8783 -0.0260
 2119TIP3   OH227847   6.677   5.035   6.664  0.4611  0.0233 -0.9703
 2119TIP3    H127848   6.761   5.068   6.693  0.0987 -0.2904  0.4996
 2119TIP3    H227849   6.615   5.063   6.731 -0.5484 -0.0747 -1.8319
 2120TIP3   OH227850   1.045   0.106   3.037  0.0781 -0.0743  0.1027
 2120TIP3    H127851   1.010   0.094   2.949 -2.1434 -0.2027  0.9335
 2120TIP3    H227852   0.967   0.107   3.094  1.2750  1.9049  1.8595
 2121TIP3   OH227853   6.190   2.289   1.852  0.3052 -0.0144  0.1243
 2121TIP3    H127854   6.127   2.238   1.801 -1.5295  1.6865  0.5564
 2121TIP3    H227855   6.271   2.283   1.802 -0.5820 -1.0343 -1.2878
 2122TIP3   OH227856   0.089   3.714  10.863 -0.4770 -0.0483  0.8281
 2122TIP3    H127857   0.116   3.623  10.862 -1.3639 -0.3279  0.9965
 2122TIP3    H227858   0.169   3.764  10.878  0.2632 -0.6945 -0.8347
 2123TIP3   OH227859   4.259   4.055   5.430  0.5391  0.1368  0.5128
 2123TIP3    H127860   4.292   4.138   5.396 -0.3674  0.5826  0.6915
 2123TIP3    H227861   4.181   4.078   5.479  0.0477 -0.8703  0.2399
 2124TIP3   OH227862   1.425   5.771   0.296 -0.5333  0.3016 -0.1871
 2124TIP3    H127863   1.440   5.685   0.256 -1.4074  0.3120 -0.5633
 2124TIP3    H227864   1.349   5.757   0.353 -0.2963  0.6777  0.2165
 2125TIP3   OH227865   5.968   5.271  13.354  0.3416 -0.0143 -0.2530
 2125TIP3    H127866   5.933   5.237  13.436  0.7159 -1.4511 -0.6657
 2125TIP3    H227867   5.993   5.193  13.304  2.1338  0.8733 -0.8349
 2126TIP3   OH227868   0.705   2.205  14.461 -0.4553  0.0367  0.0244
 2126TIP3    H127869   0.745   2.119  14.446 -1.8299 -0.6891  0.3824
 2126TIP3    H227870   0.747   2.236  14.541  1.3962  0.5666 -1.0712
 2127TIP3   OH227871   5.015   4.674   1.441  0.2161  0.3755 -0.1463
 2127TIP3    H127872   5.093   4.650   1.390  0.9795 -0.9867  1.5751
 2127TIP3    H227873   4.956   4.599   1.431  0.5294 -0.0748  1.2373
 2128TIP3   OH227874   2.506   4.017  14.561  0.0861 -0.0027  0.1776
 2128TIP3    H127875   2.591   3.977  14.543  0.5209  0.1783  1.6442
 2128TIP3    H227876   2.514   4.049  14.651 -0.7095  2.1839 -0.4657
 2129TIP3   OH227877   4.738   3.572  13.074 -0.0018  1.0297 -0.1154
 2129TIP3    H127878   4.797   3.497  13.077  0.3366  1.0291 -3.2148
 2129TIP3    H227879   4.791   3.642  13.035 -1.2140  1.8846 -0.2755
 2130TIP3   OH227880   6.854   3.771  12.942  0.3498 -0.1763 -0.1315
 2130TIP3    H127881   6.854   3.863  12.967  1.3533 -0.6235  1.6934
 2130TIP3    H227882   6.913   3.729  13.004  0.8313 -1.8787 -1.6456
 2131TIP3   OH227883   2.388   5.173  11.254  0.1872  0.0553 -0.3568
 2131TIP3    H127884   2.331   5.118  11.200  1.2444 -0.2644 -1.1846
 2131TIP3    H227885   2.428   5.112  11.315  0.4403  0.1045 -0.4736
 2132TIP3   OH227886   1.386   3.983  17.065  0.0162  0.4155  0.0640
 2132TIP3    H127887   1.413   4.067  17.028  0.0261 -0.9023 -3.3043
 2132TIP3    H227888   1.468   3.936  17.077 -0.0453  0.5797  1.1906
 2133TIP3   OH227889   2.829   4.037  15.549 -0.0535  0.4752 -0.1886
 2133TIP3    H127890   2.768   4.042  15.476  3.1046 -0.6236 -3.1502
 2133TIP3    H227891   2.869   4.124  15.552 -0.9304  0.8692  1.0701
 2134TIP3   OH227892   3.876   2.612  15.392  0.1682  0.4645 -0.1501
 2134TIP3    H127893   3.965   2.647  15.397  0.1090  0.4864  1.1045
 2134TIP3    H227894   3.865   2.562  15.473 -0.9300  0.3787 -0.3356
 2135TIP3   OH227895   6.148   4.242   1.331  0.3178 -0.2682 -0.0041
 2135TIP3    H127896   6.136   4.180   1.259 -4.1494  2.5996 -2.1378
 2135TIP3    H227897   6.215   4.302   1.300  0.2404 -0.4998 -0.6255
 2136TIP3   OH227898   2.384   2.923   6.691  0.1458  0.3542  0.4440
 2136TIP3    H127899   2.293   2.911   6.719 -0.2414  0.3190 -0.7807
 2136TIP3    H227900   2.435   2.872   6.753 -0.8021 -0.9161  0.2103
 2137TIP3   OH227901   2.560   1.188   0.006 -0.2658  0.3035 -0.0395
 2137TIP3    H127902   2.609   1.268  -0.014  0.3303 -0.2197 -0.7114
 2137TIP3    H227903   2.579   1.172   0.099 -0.1200  0.7563  0.0127
 2138TIP3   OH227904   0.003   5.309  13.005 -0.1458  0.3921  0.1897
 2138TIP3    H127905   0.059   5.234  13.026 -2.0245 -0.9764  0.6216
 2138TIP3    H227906   0.062   5.384  13.004  1.7628 -1.0428  0.0609
 2139TIP3   OH227907   0.683   0.067   2.846  0.8572  0.0049 -0.4811
 2139TIP3    H127908   0.676  -0.016   2.893  0.3968  0.4174  0.2107
 2139TIP3    H227909   0.601   0.074   2.797  0.0437  0.8750  0.9069
 2140TIP3   OH227910   4.296   1.034   1.630 -0.3152 -0.0128 -0.3903
 2140TIP3    H127911   4.248   1.064   1.706  0.8408 -0.5219  0.5777
 2140TIP3    H227912   4.385   1.019   1.662  0.0244 -0.9274 -1.6678
 2141TIP3   OH227913   6.285   5.317   4.679  0.4304  0.0514 -0.0205
 2141TIP3    H127914   6.266   5.349   4.591  0.9528  0.7039  0.0875
 2141TIP3    H227915   6.379   5.332   4.689  0.2855  0.4562  0.8254
 2142TIP3   OH227916   6.146   5.447   6.011  0.1732 -0.1595  0.6015
 2142TIP3    H127917   6.116   5.529   6.050 -1.4157  0.2207 -1.2295
 2142TIP3    H227918   6.241   5.453   6.013  0.1011  1.0482  1.8607
 2143TIP3   OH227919   4.644   2.429  11.825 -0.1795  0.0165  0.4901
 2143TIP3    H127920   4.726   2.399  11.786  0.1767 -0.4535  1.5764
 2143TIP3    H227921   4.644   2.524  11.811  0.5628  0.0215  0.5262
 2144TIP3   OH227922   1.924   2.104  13.333 -0.0490 -0.2791  0.1641
 2144TIP3    H127923   2.001   2.124  13.280  0.9916 -1.9812  0.9599
 2144TIP3    H227924   1.901   2.014  13.309 -1.4794  0.0193  0.3326
 2145TIP3   OH227925   5.835   2.424   4.507 -0.5276 -0.3681 -0.0491
 2145TIP3    H127926   5.791   2.436   4.591  2.4363  0.8186  1.4848
 2145TIP3    H227927   5.928   2.429   4.528  0.4705 -2.9400 -3.0126
 2146TIP3   OH227928   3.447   0.770   0.390 -0.3324 -0.1132  0.6169
 2146TIP3    H127929   3.357   0.739   0.379 -0.2272 -0.2835  0.2290
 2146TIP3    H227930   3.465   0.759   0.484 -1.3534  1.6718  1.0762
 2147TIP3   OH227931   1.298   2.402  14.893  0.2289 -0.2704 -0.3255
 2147TIP3    H127932   1.362   2.424  14.960  1.1082 -0.6229 -1.0404
 2147TIP3    H227933   1.213   2.423  14.934  0.8536  1.8122  0.0187
 2148TIP3   OH227934   0.808   2.723  13.892  0.5765 -0.0939  0.6082
 2148TIP3    H127935   0.763   2.652  13.939  0.7767 -0.3172  0.4660
 2148TIP3    H227936   0.885   2.742  13.945  0.7787 -0.3154  0.3985
 2149TIP3   OH227937   1.437   4.635  13.050  0.0901 -0.2260 -0.1723
 2149TIP3    H127938   1.349   4.604  13.072 -0.5434  0.2195 -1.8983
 2149TIP3    H227939   1.445   4.719  13.095 -1.4584  1.0344 -2.0589
 2150TIP3   OH227940   2.770   1.955  10.883  0.2402  0.4353  0.1393
 2150TIP3    H127941   2.716   1.886  10.922 -0.1712  0.5030 -0.2973
 2150TIP3    H227942   2.819   1.911  10.815  0.0834  0.5438 -0.0453
 2151TIP3   OH227943   1.613   2.626  10.616  0.2051  0.2703  0.7265
 2151TIP3    H127944   1.582   2.695  10.558  0.1274 -1.3108 -1.2214
 2151TIP3    H227945   1.533   2.582  10.646  0.3182 -0.7196 -0.3460
 2152TIP3   OH227946   1.594   1.179   6.113 -0.6090 -0.1329 -0.4661
 2152TIP3    H127947   1.588   1.094   6.070  0.4070  0.8272 -2.6996
 2152TIP3    H227948   1.508   1.194   6.150 -1.1255 -1.6661 -0.9705
 2153TIP3   OH227949   1.766   1.382  14.286 -0.3070  0.0706 -0.1402
 2153TIP3    H127950   1.838   1.361  14.227 -0.3682 -0.4637 -0.0265
 2153TIP3    H227951   1.797   1.458  14.335 -0.2099  0.4501 -0.7737
 2154TIP3   OH227952   1.552   0.294   1.750 -0.0108  0.0159  0.0532
 2154TIP3    H127953   1.587   0.330   1.831  2.6759  0.8398 -1.3515
 2154TIP3    H227954   1.459   0.278   1.768  0.3783  0.6973  3.0562
 2155TIP3   OH227955   2.177   4.827   3.037 -0.0755  0.1091  0.2070
 2155TIP3    H127956   2.112   4.856   2.973  1.1703  0.8887 -0.7688
 2155TIP3    H227957   2.261   4.850   2.997  0.8067 -0.8294  1.4391
 2156TIP3   OH227958   2.619   0.115   1.819  0.0017  0.1874 -0.3398
 2156TIP3    H127959   2.526   0.114   1.798 -0.0416 -0.9894 -0.1710
 2156TIP3    H227960   2.656   0.044   1.767  0.6377  0.0646  0.2693
 2157TIP3   OH227961   2.817   0.452  16.385 -0.7807  0.1034 -0.0808
 2157TIP3    H127962   2.802   0.433  16.477  0.6931 -1.9976 -0.1983
 2157TIP3    H227963   2.836   0.546  16.382  3.9780 -0.4779  2.5796
 2158TIP3   OH227964   3.497   5.420   5.909 -0.3267 -0.0058  0.8724
 2158TIP3    H127965   3.585   5.384   5.925  0.4525  1.6489  0.6148
 2158TIP3    H227966   3.461   5.366   5.839  0.5720 -0.6103  0.8566
 2159TIP3   OH227967   5.382   3.945   5.493 -0.7989 -0.0140  0.3082
 2159TIP3    H127968   5.472   3.912   5.485 -1.6172 -2.9006  1.5972
 2159TIP3    H227969   5.392   4.038   5.513  1.8372  0.0667 -0.9597
 2160TIP3   OH227970   4.417   4.745   0.781 -0.4992 -0.6464 -0.1569
 2160TIP3    H127971   4.455   4.752   0.868  0.5811  1.9745 -0.7487
 2160TIP3    H227972   4.477   4.689   0.732 -0.7232 -1.5310  0.5709
 2161TIP3   OH227973   5.808   1.543   1.189 -0.0725  0.7685  0.0068
 2161TIP3    H127974   5.902   1.557   1.189 -0.3884  3.3567 -0.6249
 2161TIP3    H227975   5.791   1.497   1.271  1.7735 -0.4364 -0.2203
 2162TIP3   OH227976   6.685   2.266  12.075 -0.2369  0.2359 -0.0429
 2162TIP3    H127977   6.699   2.259  12.169 -0.0386  0.1941 -0.0749
 2162TIP3    H227978   6.638   2.348  12.064 -0.7829 -0.0507  0.1467
 2163TIP3   OH227979   3.483   0.549  12.490 -0.3311  0.8236 -0.0312
 2163TIP3    H127980   3.521   0.492  12.556  1.7276  2.9646  0.7716
 2163TIP3    H227981   3.536   0.535  12.412 -0.3939  0.9937 -0.1059
 2164TIP3   OH227982   0.974   6.088   4.527  0.1182 -0.0312  0.6168
 2164TIP3    H127983   1.036   6.015   4.520  1.3423  0.9349  1.1463
 2164TIP3    H227984   0.972   6.109   4.620 -0.0390  0.7678  0.4364
 2165TIP3   OH227985   2.370   0.766   0.638 -0.3011  0.2205  0.3322
 2165TIP3    H127986   2.427   0.821   0.584 -0.8431 -0.0087 -0.4868
 2165TIP3    H227987   2.350   0.691   0.583 -1.3632  0.2738  0.6341
 2166TIP3   OH227988   0.078   2.262   0.326  0.3246  0.1547  0.0050
 2166TIP3    H127989   0.045   2.235   0.412  1.5553  3.7900  1.8226
 2166TIP3    H227990   0.004   2.250   0.267 -1.1081 -0.9358  1.9188
 2167TIP3   OH227991   0.471   5.178   3.449  0.1810  0.1085  0.2661
 2167TIP3    H127992   0.437   5.249   3.395  2.0633  1.7130  1.0564
 2167TIP3    H227993   0.563   5.201   3.463  0.7798 -2.3306  0.8574
 2168TIP3   OH227994   1.463   2.316  17.057 -0.0353  0.5394 -0.1378
 2168TIP3    H127995   1.414   2.303  17.138 -0.0558 -0.1672 -0.2635
 2168TIP3    H227996   1.542   2.363  17.084 -0.3323  0.8532  0.1971
 2169TIP3   OH227997   4.374   5.065  14.284  0.1520  0.0572 -0.0284
 2169TIP3    H127998   4.388   4.971  14.297 -0.9141  0.0748  1.5477
 2169TIP3    H227999   4.318   5.091  14.357 -0.7315  1.6502 -1.2095
 2170TIP3   OH228000   5.908   3.116  16.409 -0.6766 -0.0023 -0.0173
 2170TIP3    H128001   5.867   3.192  16.451 -1.5578  1.0568 -2.5640
 2170TIP3    H228002   5.843   3.086  16.345 -0.6860 -3.4491  1.3640
 2171TIP3   OH228003   2.548   4.173   0.077  0.0736  0.2879  0.4781
 2171TIP3    H128004   2.550   4.264   0.047  0.0270  0.2984  0.5078
 2171TIP3    H228005   2.639   4.143   0.068 -0.0938  0.0259 -0.5001
 2172TIP3   OH228006   0.907   6.060  15.205 -0.9201  0.1926  0.4872
 2172TIP3    H128007   0.819   6.066  15.167 -0.3809 -3.0794 -1.6358
 2172TIP3    H228008   0.901   5.987  15.267  0.1753  0.3986  0.8548
 2173TIP3   OH228009   4.355   6.485  11.550  0.1116  0.0801 -0.1084
 2173TIP3    H128010   4.358   6.560  11.610 -1.2005  0.3476 -0.3453
 2173TIP3    H228011   4.267   6.489  11.512 -0.1771 -1.8657  0.2579
 2174TIP3   OH228012   1.244   1.494  13.947  0.5180 -0.4207 -0.4077
 2174TIP3    H128013   1.261   1.588  13.940 -1.3953  0.1052  1.0864
 2174TIP3    H228014   1.199   1.472  13.865 -0.3370  0.3299 -0.1595
 2175TIP3   OH228015   1.411   3.509  13.446 -0.3777  0.1452  0.1108
 2175TIP3    H128016   1.492   3.521  13.397 -0.8091 -0.1947 -0.7068
 2175TIP3    H228017   1.411   3.579  13.510  2.0010 -1.4942  2.1349
 2176TIP3   OH228018   5.409   4.205  16.778  0.4199 -0.0515 -0.4236
 2176TIP3    H128019   5.445   4.151  16.849  0.2530 -0.4800 -0.6587
 2176TIP3    H228020   5.478   4.206  16.712  0.8520  0.9188  0.0246
 2177TIP3   OH228021   6.500   1.481  16.481 -0.1222  0.3040  0.1585
 2177TIP3    H128022   6.580   1.505  16.528  0.5844  0.9552 -1.3354
 2177TIP3    H228023   6.530   1.447  16.397 -1.3244 -1.7634  0.5043
 2178TIP3   OH228024   5.729   4.292  15.628  0.4957 -0.0982  0.1691
 2178TIP3    H128025   5.751   4.312  15.718  0.8192 -2.7164  0.7711
 2178TIP3    H228026   5.685   4.207  15.632  1.8626 -1.0398 -2.2272
 2179TIP3   OH228027   4.197   2.701  12.808  0.5200 -0.0600 -0.9252
 2179TIP3    H128028   4.239   2.763  12.749 -0.0260 -0.9987 -2.3422
 2179TIP3    H228029   4.190   2.620  12.758  0.7722 -1.1478  0.7094
 2180TIP3   OH228030   1.102   0.052   1.566 -0.3768 -0.8011 -0.5304
 2180TIP3    H128031   1.087   0.054   1.660 -0.3900 -2.0269 -0.4893
 2180TIP3    H228032   1.133  -0.037   1.548 -0.9159 -0.7657 -1.7646
 2181TIP3   OH228033   3.653   5.222   4.310  0.4500 -0.0289  0.4556
 2181TIP3    H128034   3.728   5.222   4.370 -2.0976  0.2523  3.9632
 2181TIP3    H228035   3.624   5.130   4.309 -0.2259  0.1777  0.6457
 2182TIP3   OH228036   0.783   4.333  13.604 -0.4641  0.1912 -0.1782
 2182TIP3    H128037   0.879   4.341  13.604 -0.4309  0.1282 -1.9926
 2182TIP3    H228038   0.753   4.410  13.653  0.4805  1.5523 -1.6160
 2183TIP3   OH228039   3.949   5.386  15.802 -0.2517  0.0271  0.2482
 2183TIP3    H128040   3.885   5.458  15.802  1.1112  1.3216  1.9585
 2183TIP3    H228041   3.909   5.318  15.856 -0.6178  0.4118  0.4659
 2184TIP3   OH228042   4.703   0.380   5.315  0.2988 -0.3443 -0.2878
 2184TIP3    H128043   4.786   0.380   5.266  0.9640  1.8819  0.7153
 2184TIP3    H228044   4.663   0.464   5.293  0.1418  0.2894  2.1644
 2185TIP3   OH228045   2.115   2.813   3.570 -0.4873  0.0706 -0.2711
 2185TIP3    H128046   2.079   2.820   3.658  0.1084 -1.3363  0.1106
 2185TIP3    H228047   2.205   2.846   3.577  1.0868 -3.8995  0.7218
 2186TIP3   OH228048   1.958   0.342   5.532  0.1003 -0.3629  0.1517
 2186TIP3    H128049   1.906   0.262   5.542 -0.9994  0.0946 -1.4881
 2186TIP3    H228050   1.894   0.413   5.536  0.5274  0.2171 -1.8379
 2187TIP3   OH228051   5.605   6.168   0.305 -0.5951 -0.0172  0.1248
 2187TIP3    H128052   5.616   6.162   0.400  0.9591 -0.4105 -0.0604
 2187TIP3    H228053   5.677   6.225   0.276  1.6343 -3.2593 -1.2450
 2188TIP3   OH228054   2.750   6.716   3.483 -0.4760 -0.0935  0.1410
 2188TIP3    H128055   2.672   6.670   3.451 -1.7952  1.4654  0.9477
 2188TIP3    H228056   2.725   6.748   3.570  1.2031  0.1531  0.5667
 2189TIP3   OH228057   2.759   4.236  13.636  0.0483  0.4934 -0.2479
 2189TIP3    H128058   2.711   4.189  13.704 -1.4989  0.9159 -1.0086
 2189TIP3    H228059   2.847   4.197  13.637  0.3063  0.9560  2.4353
 2190TIP3   OH228060   2.697   5.618   0.536 -0.0351 -0.0538 -0.2880
 2190TIP3    H128061   2.697   5.651   0.447  2.9281  0.7797 -0.0807
 2190TIP3    H228062   2.751   5.681   0.585  0.1974 -1.6184  1.6024
 2191TIP3   OH228063   2.898   4.904  15.140 -0.0290 -0.0762  0.0098
 2191TIP3    H128064   2.806   4.884  15.152 -0.1590 -0.3668 -1.3071
 2191TIP3    H228065   2.900   4.964  15.065  0.7048  1.4698  1.2040
 2192TIP3   OH228066   1.503   4.604  15.566  0.1535  0.0291 -0.7486
 2192TIP3    H128067   1.470   4.565  15.485  2.3801  0.0167 -1.7436
 2192TIP3    H228068   1.479   4.696  15.560 -0.5497 -0.1645 -0.9482
 2193TIP3   OH228069   3.126   1.406   4.256  0.6904  0.1374  0.1014
 2193TIP3    H128070   3.089   1.442   4.175  2.4898  0.7530 -0.5116
 2193TIP3    H228071   3.051   1.397   4.315 -0.1570  3.5343 -0.2003
 2194TIP3   OH228072   0.780   6.769   5.512  0.0780 -0.3844  0.7269
 2194TIP3    H128073   0.761   6.769   5.606 -0.4787 -0.3823  0.6188
 2194TIP3    H228074   0.856   6.827   5.503  0.8115 -1.2240  1.3040
 2195TIP3   OH228075   1.138   3.410  11.181 -0.2959  0.0776  0.0931
 2195TIP3    H128076   1.101   3.414  11.093 -2.2063  0.0737  0.8385
 2195TIP3    H228077   1.096   3.482  11.228  1.7968  1.0121  0.6406
 2196TIP3   OH228078   6.826   0.349   4.493 -0.0076  0.1429 -0.5607
 2196TIP3    H128079   6.776   0.378   4.569  1.2183  0.7361  0.0432
 2196TIP3    H228080   6.834   0.427   4.438  0.0928 -0.0006 -0.7512
 2197TIP3   OH228081   1.934   4.314  15.673 -0.2180  0.5718  0.3914
 2197TIP3    H128082   1.875   4.239  15.665 -0.5663  0.9856 -1.2510
 2197TIP3    H228083   1.996   4.304  15.601 -0.3965  1.9486  0.0249
 2198TIP3   OH228084   1.187   6.134  14.038 -0.3903 -0.0813  0.4884
 2198TIP3    H128085   1.204   6.164  13.949  0.0939  1.2434  1.0088
 2198TIP3    H228086   1.261   6.167  14.090 -0.4867 -1.1152  1.3367
 2199TIP3   OH228087   4.706   2.747  12.143  0.9622  0.3998  0.2368
 2199TIP3    H128088   4.777   2.740  12.080  0.8696  1.8919 -0.0821
 2199TIP3    H228089   4.649   2.816  12.108 -0.9378 -1.1151  0.2229
 2200TIP3   OH228090   1.609   3.126   3.647 -0.4597 -0.1148 -0.2491
 2200TIP3    H128091   1.547   3.183   3.601 -0.2437  1.1193  0.9128
 2200TIP3    H228092   1.689   3.131   3.595 -0.3504  0.9255 -0.0195
 2201TIP3   OH228093   6.242   4.451   2.297 -0.0218  0.2518 -0.1155
 2201TIP3    H128094   6.147   4.454   2.292 -0.0391 -0.7666 -0.5918
 2201TIP3    H228095   6.260   4.413   2.383 -0.2006 -4.2179 -1.7976
 2202TIP3   OH228096   4.405   3.331  11.313  0.5497  0.1801  0.1812
 2202TIP3    H128097   4.356   3.254  11.284 -0.3193  1.0729 -0.7566
 2202TIP3    H228098   4.362   3.357  11.395  1.0552 -0.5054  0.6796
 2203TIP3   OH228099   2.466   5.190  15.929  0.1909  0.7447 -0.4656
 2203TIP3    H128100   2.372   5.169  15.924 -0.1012  1.7422  0.4749
 2203TIP3    H228101   2.478   5.262  15.867  0.2165  0.9935 -0.1720
 2204TIP3   OH228102   3.808   0.053   3.512 -0.1618  0.5731  0.2413
 2204TIP3    H128103   3.889   0.002   3.520 -0.3629  0.2492  0.2582
 2204TIP3    H228104   3.747   0.010   3.572 -0.3556  0.7946  0.2042
 2205TIP3   OH228105   0.049   4.469  12.410  0.3228  0.6695 -0.3270
 2205TIP3    H128106  -0.025   4.436  12.359 -1.2955  1.0506  1.6577
 2205TIP3    H228107   0.034   4.435  12.498  1.4409  2.3851  0.5734
 2206TIP3   OH228108   3.002   0.883  12.209 -0.3869 -0.3029  0.0921
 2206TIP3    H128109   2.969   0.836  12.286 -0.1431 -0.6401 -0.0064
 2206TIP3    H228110   3.054   0.955  12.246  0.8159 -1.2316  0.2591
 2207TIP3   OH228111   4.776   5.173  15.027 -0.5041  0.0725 -0.0518
 2207TIP3    H128112   4.755   5.081  15.042  0.6959 -0.2665 -0.3311
 2207TIP3    H228113   4.807   5.204  15.112 -0.9326  0.2325  0.0489
 2208TIP3   OH228114   2.328   3.452  16.605  0.4832 -0.0029 -0.8511
 2208TIP3    H128115   2.409   3.471  16.557 -0.2354  1.8296 -1.4380
 2208TIP3    H228116   2.350   3.471  16.697  0.7852  0.2757 -0.9775
 2209TIP3   OH228117   4.367   3.446   5.496  0.1109  0.3956  0.4374
 2209TIP3    H128118   4.414   3.522   5.461  1.2045 -1.1305 -1.5498
 2209TIP3    H228119   4.316   3.413   5.423  0.6281 -1.5309  0.9094
 2210TIP3   OH228120   6.835   1.693  12.708  0.0475  0.0648  0.2146
 2210TIP3    H128121   6.896   1.622  12.691 -1.6358 -1.3639 -0.1887
 2210TIP3    H228122   6.776   1.693  12.633 -0.0945  1.8197  0.2694
 2211TIP3   OH228123   0.381   6.799  12.383  0.4356 -0.1016  1.0312
 2211TIP3    H128124   0.363   6.893  12.388  0.0784 -0.0944 -0.0546
 2211TIP3    H228125   0.335   6.762  12.458  0.6725  0.5992  1.5355
 2212TIP3   OH228126   1.894   1.716  11.826 -0.4559  0.5221 -0.0968
 2212TIP3    H128127   1.866   1.715  11.734 -1.2576 -0.3304  0.1280
 2212TIP3    H228128   1.940   1.799  11.837  0.0058  0.4564 -1.3681
 2213TIP3   OH228129   5.540   5.116  16.012 -0.0839  0.4291  0.7678
 2213TIP3    H128130   5.538   5.145  16.103  1.5876  1.3100  0.5531
 2213TIP3    H228131   5.617   5.059  16.007 -1.4061 -1.4289  0.3847
 2214TIP3   OH228132   2.357   2.095  13.305 -0.3742  0.1926  0.2714
 2214TIP3    H128133   2.283   2.124  13.357 -1.0002  1.5498 -1.2762
 2214TIP3    H228134   2.318   2.054  13.227  0.4580  1.2465 -0.7380
 2215TIP3   OH228135   6.314   4.829  14.298 -0.2953 -0.4187  0.1679
 2215TIP3    H128136   6.273   4.823  14.385  0.0804  0.7105  0.4398
 2215TIP3    H228137   6.381   4.761  14.299  0.3896  0.2438  1.1508
 2216TIP3   OH228138   0.505   4.035  13.898 -0.2593 -0.2061  0.2970
 2216TIP3    H128139   0.445   4.104  13.869 -1.3203  0.1334  2.9874
 2216TIP3    H228140   0.592   4.072  13.888 -0.7732  1.2103  0.8612
 2217TIP3   OH228141   4.754   4.422   4.419  0.2394 -0.1273  0.7174
 2217TIP3    H128142   4.835   4.390   4.459  0.2323 -1.7388 -0.4453
 2217TIP3    H228143   4.717   4.345   4.376 -1.0157  0.9740 -0.2482
 2218TIP3   OH228144   6.248   0.405  16.405  0.1007 -0.2934  0.0940
 2218TIP3    H128145   6.241   0.309  16.404  1.3944 -0.4743  2.2547
 2218TIP3    H228146   6.157   0.436  16.395 -0.2623 -1.6845 -1.3461
 2219TIP3   OH228147   2.481   0.970  15.995  0.0212  0.4087 -0.3559
 2219TIP3    H128148   2.453   0.976  16.086  0.0502  2.0813 -0.4216
 2219TIP3    H228149   2.493   0.877  15.979  0.6946  0.1404  1.5507
 2220TIP3   OH228150   4.831   5.881   2.676 -0.1978 -0.3549  0.0900
 2220TIP3    H128151   4.850   5.890   2.770 -0.0847 -0.3885  0.0709
 2220TIP3    H228152   4.866   5.795   2.653 -1.5057 -0.9736  0.3308
 2221TIP3   OH228153   0.189   1.093  14.391  0.3587 -0.3393 -0.4859
 2221TIP3    H128154   0.174   1.154  14.463 -0.3462  0.5437 -1.3634
 2221TIP3    H228155   0.284   1.087  14.384  0.4338  0.0909  0.0716
 2222TIP3   OH228156   3.739   4.617   5.461 -0.5136 -0.2005  0.2295
 2222TIP3    H128157   3.708   4.551   5.524 -2.3207  0.4198  0.0439
 2222TIP3    H228158   3.801   4.670   5.511 -3.5549  1.7188  2.3439
 2223TIP3   OH228159   6.729   1.358   0.347 -0.4644  0.0006  0.2129
 2223TIP3    H128160   6.794   1.384   0.282 -0.2920  1.8598  1.0656
 2223TIP3    H228161   6.772   1.290   0.399  0.2160  0.1215 -0.1909
 2224TIP3   OH228162   6.562   3.016   3.422 -0.3115 -0.0552 -0.1260
 2224TIP3    H128163   6.505   3.077   3.375  0.1877  1.4336  1.1368
 2224TIP3    H228164   6.600   3.068   3.492  0.4769 -1.7286  0.7336
 2225TIP3   OH228165   4.381   4.583  15.591 -0.5940 -0.4263  0.1018
 2225TIP3    H128166   4.293   4.551  15.614 -1.1398  1.3604  0.6842
 2225TIP3    H228167   4.366   4.649  15.524  0.3411 -0.3259 -0.0209
 2226TIP3   OH228168   4.336   1.504   4.821 -0.1683 -0.1253 -0.3278
 2226TIP3    H128169   4.326   1.582   4.875  0.9975 -0.4323  0.3736
 2226TIP3    H228170   4.247   1.469   4.813 -0.4145  0.0384  1.2603
 2227TIP3   OH228171   6.710   3.128   5.419 -0.2761 -0.1072 -0.2361
 2227TIP3    H128172   6.803   3.104   5.413  0.0476  0.8035  0.8732
 2227TIP3    H228173   6.665   3.043   5.418  0.5514 -0.5629 -0.8799
 2228TIP3   OH228174   6.292   2.280  15.618 -0.0222 -0.3542  0.1763
 2228TIP3    H128175   6.225   2.344  15.639  0.9401  1.0400 -0.7926
 2228TIP3    H228176   6.369   2.308  15.667  0.2155 -1.2082  0.3126
 2229TIP3   OH228177   4.447   1.824   4.393 -0.5625 -0.2703  0.1005
 2229TIP3    H128178   4.393   1.758   4.436 -2.4249  0.2125 -1.3348
 2229TIP3    H228179   4.512   1.849   4.458 -0.4386 -2.7535  1.0323
 2230TIP3   OH228180   5.023   2.204   2.628 -0.0674  0.1903  0.4779
 2230TIP3    H128181   5.024   2.163   2.715 -0.8557 -0.4730  0.1807
 2230TIP3    H228182   5.115   2.226   2.611 -0.0312  1.3068  1.9196
 2231TIP3   OH228183   6.660   0.372  16.302  0.1970  0.5457  0.4890
 2231TIP3    H128184   6.735   0.334  16.255  1.9992  2.8844  1.2577
 2231TIP3    H228185   6.700   0.433  16.364 -2.4259  3.8632 -0.8130
 2232TIP3   OH228186   3.638   3.463  15.515 -0.5806  0.0779 -0.2273
 2232TIP3    H128187   3.695   3.534  15.546 -0.3128  1.0797 -2.7609
 2232TIP3    H228188   3.603   3.424  15.594  2.1491  0.6537  1.3936
 2233TIP3   OH228189   6.053   3.233  13.979  0.6058  0.4966  0.0500
 2233TIP3    H128190   6.130   3.222  13.922 -1.0448  0.2612 -2.2814
 2233TIP3    H228191   6.032   3.144  14.006 -0.4752  0.1735 -1.6897
 2234TIP3   OH228192   5.826   6.255  11.935  0.2928  0.1917 -0.0475
 2234TIP3    H128193   5.906   6.211  11.907  1.3020  1.8504  0.1522
 2234TIP3    H228194   5.819   6.331  11.877 -0.0286  1.1780  1.2375
 2235TIP3   OH228195   5.790   5.809  13.066  0.1286 -0.2247  0.4456
 2235TIP3    H128196   5.871   5.848  13.100 -0.0403  0.8157 -0.2639
 2235TIP3    H228197   5.725   5.825  13.134  0.2795 -0.0998  0.5616
 2236TIP3   OH228198   4.186   0.050   6.348  0.5096 -0.0294 -0.7309
 2236TIP3    H128199   4.241   0.096   6.411  2.0236 -0.3816 -1.7208
 2236TIP3    H228200   4.229  -0.035   6.336 -0.2497 -0.3195 -1.5456
 2237TIP3   OH228201   2.703   5.348  15.148  0.6113  0.2360  0.5009
 2237TIP3    H128202   2.705   5.259  15.183 -0.3908  0.8367  2.1470
 2237TIP3    H228203   2.659   5.339  15.063 -1.0943 -0.5840  1.4421
 2238TIP3   OH228204   6.694   3.653   1.400 -0.1758 -0.0635 -0.2702
 2238TIP3    H128205   6.752   3.658   1.476 -0.3748  1.5051 -0.1985
 2238TIP3    H228206   6.609   3.680   1.433 -0.3867  0.1031 -0.9380
 2239TIP3   OH228207   3.233   0.373  11.285 -1.1316 -0.3820 -0.1017
 2239TIP3    H128208   3.249   0.283  11.255 -0.2722  0.0121 -0.8517
 2239TIP3    H228209   3.209   0.421  11.206  0.1241  0.4269 -0.0089
 2240TIP3   OH228210   3.842   5.401  16.496 -0.0021  0.0169 -0.0837
 2240TIP3    H128211   3.903   5.360  16.557  0.4076  0.2311 -0.3455
 2240TIP3    H228212   3.892   5.471  16.455 -0.6657  0.7069  0.2708
 2241TIP3   OH228213   5.441   4.519   1.859  0.1689 -0.1961  0.1325
 2241TIP3    H128214   5.400   4.448   1.908  1.9176 -2.2211 -1.1527
 2241TIP3    H228215   5.400   4.516   1.773  0.9151 -0.3179 -0.2273
 2242TIP3   OH228216   4.688   0.497   2.073 -0.0527 -0.5955  0.7680
 2242TIP3    H128217   4.744   0.563   2.112  1.5466 -1.1816 -0.4446
 2242TIP3    H228218   4.735   0.467   1.996 -0.2121 -3.8441  1.7560
 2243TIP3   OH228219   2.096   5.625  15.377  0.3232 -0.1289 -0.3824
 2243TIP3    H128220   2.047   5.693  15.331  0.2719 -1.1667 -1.9625
 2243TIP3    H228221   2.029   5.567  15.412  0.3790 -0.7435 -1.2655
 2244TIP3   OH228222   6.260   3.593   3.364 -0.4680 -0.9897 -0.1666
 2244TIP3    H128223   6.232   3.568   3.276 -1.6985 -0.4820  0.0570
 2244TIP3    H228224   6.196   3.553   3.422 -1.5661  1.2510  0.2929
 2245TIP3   OH228225   6.508   3.846  15.264 -0.0852  0.3138  0.2272
 2245TIP3    H128226   6.483   3.907  15.195 -0.4316 -0.3798 -0.2666
 2245TIP3    H228227   6.574   3.789  15.224 -1.5501 -1.2272 -0.1292
 2246TIP3   OH228228   2.186   1.096  15.901 -0.3977  0.1651  0.0848
 2246TIP3    H128229   2.263   1.050  15.935  0.6202  1.7709  0.0971
 2246TIP3    H228230   2.160   1.154  15.973 -0.8827  0.4891 -0.3432
 2247TIP3   OH228231   0.179   2.623   6.586  0.0748 -0.6216  0.7200
 2247TIP3    H128232   0.274   2.631   6.595  0.0585 -1.4991  1.9605
 2247TIP3    H228233   0.148   2.712   6.574  1.1116 -0.3840 -0.3393
 2248TIP3   OH228234   2.773   4.008  11.315 -0.9195  0.5054 -0.2846
 2248TIP3    H128235   2.718   3.931  11.300 -1.0070  0.3230  0.8442
 2248TIP3    H228236   2.719   4.082  11.287 -0.7489  0.1551 -1.5941
 2249TIP3   OH228237   6.625   4.105   3.353 -0.2063 -0.2565  0.0670
 2249TIP3    H128238   6.633   4.199   3.338 -0.1093 -0.2680  0.0448
 2249TIP3    H228239   6.715   4.075   3.364 -0.0416 -0.6918 -1.9987
 2250TIP3   OH228240   1.463   1.205  15.700  0.7454  0.1316  0.1491
 2250TIP3    H128241   1.508   1.249  15.628  1.7773 -0.2943  0.5064
 2250TIP3    H228242   1.466   1.268  15.772  0.4245  0.2495  0.0602
 2251TIP3   OH228243   1.340   1.450   6.054 -0.2612  0.1455  1.4057
 2251TIP3    H128244   1.409   1.512   6.076 -1.4263  2.1433 -0.1693
 2251TIP3    H228245   1.280   1.452   6.129  0.4996 -0.2989  2.0342
 2252TIP3   OH228246   4.672   0.535   5.551  0.1822 -0.0840 -0.1508
 2252TIP3    H128247   4.760   0.572   5.541  0.2902  0.0939  1.2502
 2252TIP3    H228248   4.685   0.440   5.548  0.3134 -0.0524 -0.6961
 2253TIP3   OH228249   3.891   1.917  16.121  0.0410 -0.0533 -0.0828
 2253TIP3    H128250   3.807   1.951  16.151  1.0542  1.2764  1.4404
 2253TIP3    H228251   3.918   1.976  16.051  0.8291  1.1318  1.1544
 2254TIP3   OH228252   5.236   1.609  16.200 -0.2166  0.1376  0.2265
 2254TIP3    H128253   5.221   1.547  16.129 -0.2864 -1.0291  1.2289
 2254TIP3    H228254   5.326   1.638  16.188 -0.3259  0.2080 -0.5102
 2255TIP3   OH228255   0.483   4.778   4.901 -0.0035 -0.7536  0.2470
 2255TIP3    H128256   0.528   4.772   4.817 -1.4562 -2.1462 -0.4906
 2255TIP3    H228257   0.550   4.756   4.966  1.3079  0.9900 -0.4347
 2256TIP3   OH228258   4.178   0.632  11.202 -0.6375  0.0400 -0.1294
 2256TIP3    H128259   4.177   0.726  11.215  2.6477  0.4273 -1.7280
 2256TIP3    H228260   4.148   0.619  11.112 -2.0319 -0.6012  0.3885
 2257TIP3   OH228261   5.072   5.195  12.480 -0.7554  0.5498 -0.3998
 2257TIP3    H128262   5.086   5.113  12.433 -0.7453  0.3155  0.0084
 2257TIP3    H228263   5.128   5.258  12.434  0.3284  0.0135  0.1400
 2258TIP3   OH228264   3.626   3.588  16.977 -0.9651  0.1577  0.4437
 2258TIP3    H128265   3.533   3.565  16.971 -0.7741 -0.2492 -1.1749
 2258TIP3    H228266   3.636   3.663  16.918  0.1024 -1.0455 -0.9636
 2259TIP3   OH228267   0.702   2.559  10.944  0.5063 -0.2661 -0.0198
 2259TIP3    H128268   0.643   2.627  10.912 -0.3702 -1.3326 -0.7298
 2259TIP3    H228269   0.749   2.530  10.866  2.2495  0.7924  0.5861
 2260TIP3   OH228270   1.405   6.762   5.295  0.0243  0.6311  0.5683
 2260TIP3    H128271   1.321   6.777   5.253 -0.3449 -1.6888  0.3386
 2260TIP3    H228272   1.441   6.849   5.308 -1.4530  1.5971 -1.2649
 2261TIP3   OH228273   5.002   6.074   5.372 -0.6547 -0.1951 -0.0409
 2261TIP3    H128274   4.933   6.015   5.402  0.4364 -1.7609 -0.5048
 2261TIP3    H228275   5.054   6.092   5.450 -1.0959  0.3428  0.1400
 2262TIP3   OH228276   2.922   0.056   1.809  0.6779 -0.0910  0.3747
 2262TIP3    H128277   2.830   0.055   1.836  0.2744 -1.8733 -0.8802
 2262TIP3    H228278   2.952  -0.033   1.823  1.5060 -0.1339 -1.4246
 2263TIP3   OH228279   2.939   4.576   0.368  0.1229 -0.2202 -0.2567
 2263TIP3    H128280   2.943   4.621   0.284 -0.9519  0.1368 -0.1340
 2263TIP3    H228281   2.928   4.646   0.433 -0.2604 -0.5684  0.0613
 2264TIP3   OH228282   5.334   3.579  11.335 -0.5043 -0.0521 -0.3082
 2264TIP3    H128283   5.380   3.660  11.355  0.6208 -0.7467 -0.0246
 2264TIP3    H228284   5.264   3.605  11.275  0.5153  0.9570 -1.0934
 2265TIP3   OH228285   0.193   6.632   6.036 -0.1515  0.6493  0.6410
 2265TIP3    H128286   0.254   6.603   5.969  0.1549  1.0490  0.7398
 2265TIP3    H228287   0.111   6.587   6.016  0.3764 -0.4934  0.9563
 2266TIP3   OH228288   4.633   5.183  14.412  0.5497  0.2080 -0.5190
 2266TIP3    H128289   4.576   5.130  14.357 -0.6064  0.9419 -0.0558
 2266TIP3    H228290   4.715   5.133  14.416  0.6329  0.0458 -2.7338
 2267TIP3   OH228291   3.338   0.435  16.395 -0.2533 -0.0878  0.3207
 2267TIP3    H128292   3.312   0.443  16.303 -0.7356 -0.3836  0.4244
 2267TIP3    H228293   3.415   0.491  16.403  0.7015 -1.1839 -0.6161
 2268TIP3   OH228294   6.318   3.345   3.589  0.2908  0.0766  0.8543
 2268TIP3    H128295   6.314   3.258   3.629 -0.4949 -0.2805  0.0506
 2268TIP3    H228296   6.398   3.385   3.623  0.1881 -0.6203  1.9259
 2269TIP3   OH228297   6.297   4.367  15.426  0.2877  0.1329 -0.2850
 2269TIP3    H128298   6.246   4.288  15.406  0.6828  0.1315 -1.3220
 2269TIP3    H228299   6.231   4.434  15.444 -0.0653 -0.1931 -0.3426
 2270TIP3   OH228300   5.490   0.709  11.628 -0.2965 -0.5064 -0.9315
 2270TIP3    H128301   5.397   0.728  11.636 -0.1625  0.0082 -0.6123
 2270TIP3    H228302   5.524   0.777  11.570  0.0530 -0.1503 -0.3192
 2271TIP3   OH228303   0.827   0.883   2.070 -0.2230  0.2468  0.3013
 2271TIP3    H128304   0.808   0.793   2.043  0.3268  0.3431 -0.4501
 2271TIP3    H228305   0.878   0.874   2.150  0.2008 -0.1198 -0.0071
 2272TIP3   OH228306   1.300   3.597   2.192 -0.1758  0.1374 -0.3768
 2272TIP3    H128307   1.387   3.619   2.226  0.0809  2.3018 -2.1961
 2272TIP3    H228308   1.244   3.667   2.223 -0.9226 -0.3482 -0.6069
 2273TIP3   OH228309   1.905   4.120  12.885 -0.6105 -0.3756  0.1946
 2273TIP3    H128310   1.842   4.112  12.813 -0.6699  0.1214  0.1869
 2273TIP3    H228311   1.970   4.052  12.868 -0.5486 -0.1721 -0.4034
 2274TIP3   OH228312   0.961   0.932   4.286 -0.5704  0.4531 -0.3281
 2274TIP3    H128313   1.047   0.952   4.324 -1.2343  1.9269  0.4704
 2274TIP3    H228314   0.961   0.837   4.276  0.7543  0.3273  0.6439
 2275TIP3   OH228315   5.651   3.332   0.317 -0.0793  0.1430 -0.3768
 2275TIP3    H128316   5.680   3.353   0.406 -0.4487 -3.1728  0.6352
 2275TIP3    H228317   5.567   3.376   0.309 -0.6559 -0.5408  1.4462
 2276TIP3   OH228318   1.499   3.623   0.891  0.1832 -0.1522 -0.3858
 2276TIP3    H128319   1.436   3.695   0.898 -0.3461 -0.6982  0.8206
 2276TIP3    H228320   1.480   3.582   0.807 -0.2462  0.4505 -0.5857
 2277TIP3   OH228321   4.588   1.086  13.890  0.2762 -0.0889  0.6489
 2277TIP3    H128322   4.640   1.018  13.933 -0.0579 -0.7865 -0.0378
 2277TIP3    H228323   4.640   1.112  13.814 -0.2521 -0.6020  0.1075
 2278TIP3   OH228324   4.710   1.110   4.633 -0.3131 -0.0450  0.2425
 2278TIP3    H128325   4.624   1.137   4.665  0.1112  0.6122  0.8643
 2278TIP3    H228326   4.770   1.175   4.669  0.2224  0.6654 -1.7571
 2279TIP3   OH228327   4.542   6.513   2.204 -0.2445  0.3912 -0.2201
 2279TIP3    H128328   4.594   6.539   2.280  1.0995 -1.4055 -0.4479
 2279TIP3    H228329   4.597   6.535   2.129  0.5241 -2.0160 -0.4470
 2280TIP3   OH228330   5.127   1.414  13.043 -0.6008  0.3338  0.5658
 2280TIP3    H128331   5.100   1.364  12.966 -0.4817  1.5617 -0.3033
 2280TIP3    H228332   5.203   1.366  13.078 -0.4051 -0.0168 -0.3234
 2281TIP3   OH228333   2.144   3.184   2.333  0.2192 -0.0639  0.7759
 2281TIP3    H128334   2.192   3.262   2.308 -1.1410  0.3289 -0.8096
 2281TIP3    H228335   2.098   3.208   2.413  0.3998  0.5228  0.7046
 2282TIP3   OH228336   3.434   0.204  13.232 -0.1978 -0.0460  0.5783
 2282TIP3    H128337   3.518   0.220  13.276  1.6980 -0.9934 -2.4033
 2282TIP3    H228338   3.428   0.109  13.228 -1.0154  0.0228  0.0638
 2283TIP3   OH228339   4.311   3.276   2.661 -0.8773 -0.6902 -0.1463
 2283TIP3    H128340   4.343   3.214   2.726  1.1086  0.2592 -0.1140
 2283TIP3    H228341   4.251   3.332   2.709 -2.1511 -2.1208 -0.0160
 2284TIP3   OH228342   2.899   6.329  12.088  0.0228  0.2582  0.1819
 2284TIP3    H128343   2.839   6.264  12.125 -0.9891  0.6513 -0.6876
 2284TIP3    H228344   2.841   6.398  12.055  0.7223 -0.4978 -2.9471
 2285TIP3   OH228345   2.512   1.455   2.494  0.0933  0.0692  0.6331
 2285TIP3    H128346   2.429   1.441   2.539  0.0579 -0.4076  0.4258
 2285TIP3    H228347   2.563   1.509   2.555 -1.2976  2.6383 -0.3424
 2286TIP3   OH228348   0.208   0.019   5.620  0.1989  0.0093  0.2409
 2286TIP3    H128349   0.185  -0.071   5.642  1.8075 -0.4561  0.1137
 2286TIP3    H228350   0.159   0.072   5.684  0.7117 -1.0475  1.5574
 2287TIP3   OH228351   2.879   0.081   0.545  0.1949 -0.3607 -0.3516
 2287TIP3    H128352   2.880   0.170   0.580  2.9344  0.0131 -1.1463
 2287TIP3    H228353   2.859   0.026   0.621  2.1001  0.7222  1.0270
 2288TIP3   OH228354   5.674   2.131   1.320 -0.0648 -0.1419  0.3059
 2288TIP3    H128355   5.615   2.108   1.248 -0.3185 -0.1956  0.5298
 2288TIP3    H228356   5.642   2.081   1.394 -0.1684  0.3640  0.6107
 2289TIP3   OH228357   0.852   0.143  17.033  0.2729  0.3194 -0.0431
 2289TIP3    H128358   0.784   0.202  17.064 -0.1752  0.4581 -1.2427
 2289TIP3    H228359   0.931   0.196  17.030  0.0525  0.6374 -0.3034
 2290TIP3   OH228360   0.139   3.633   4.360 -0.0712 -0.2862  0.2651
 2290TIP3    H128361   0.066   3.666   4.307  0.1081  1.6011  1.0959
 2290TIP3    H228362   0.116   3.542   4.380 -1.3690 -0.2378 -0.8953
 2291TIP3   OH228363   4.970   1.107  13.781  0.1937  0.0196  0.1258
 2291TIP3    H128364   4.907   1.119  13.711  1.9436  0.1433 -1.5139
 2291TIP3    H228365   4.992   1.196  13.809 -0.6868 -0.0355  1.0399
 2292TIP3   OH228366   0.495   2.279   0.755 -0.0746  0.1369 -0.0992
 2292TIP3    H128367   0.407   2.281   0.717  0.8660  0.1998 -2.4229
 2292TIP3    H228368   0.512   2.186   0.771 -0.4404  0.0919  0.0321
 2293TIP3   OH228369   2.885   6.735  11.451  0.0477  0.2487 -0.0374
 2293TIP3    H128370   2.938   6.745  11.530  0.3873  1.3589 -0.4004
 2293TIP3    H228371   2.835   6.654  11.467  0.1757  0.3982  1.2676
 2294TIP3   OH228372   6.331   5.530   3.120 -0.3965  0.7122  0.4512
 2294TIP3    H128373   6.267   5.598   3.144 -0.7013  0.6157 -0.0632
 2294TIP3    H228374   6.348   5.546   3.027 -2.9974 -1.9042 -0.6308
 2295TIP3   OH228375   5.825   4.128  15.242 -0.3535  0.0684  0.2828
 2295TIP3    H128376   5.855   4.074  15.316  0.7462  0.0616 -0.1451
 2295TIP3    H228377   5.790   4.207  15.283 -0.5656 -0.3084  0.8497
 2296TIP3   OH228378   4.877   6.381  16.476 -0.2231 -0.2415  0.0359
 2296TIP3    H128379   4.782   6.385  16.489 -0.1905 -0.8707  0.4946
 2296TIP3    H228380   4.886   6.356  16.384 -0.4803  0.7915 -0.2895
 2297TIP3   OH228381   2.715   3.055   5.765 -0.5638 -0.1392 -0.5902
 2297TIP3    H128382   2.724   3.004   5.846 -0.8279  1.7176  0.6766
 2297TIP3    H228383   2.802   3.051   5.725  0.3529  1.0163  1.1484
 2298TIP3   OH228384   4.336   1.690   5.707  0.2992 -0.0369 -0.4659
 2298TIP3    H128385   4.368   1.732   5.627  0.6066  1.2420  0.2948
 2298TIP3    H228386   4.333   1.761   5.771 -0.0925 -1.0072  0.6167
 2299TIP3   OH228387   4.869   4.288  12.418 -0.3968 -0.0240 -0.2370
 2299TIP3    H128388   4.825   4.357  12.368 -0.0072 -0.1439 -0.7614
 2299TIP3    H228389   4.804   4.218  12.424 -0.5897  0.1559 -0.2119
 2300TIP3   OH228390   4.201   5.367  10.981 -0.7001  0.2044  0.1947
 2300TIP3    H128391   4.244   5.432  10.926 -1.0607  0.4405  0.1835
 2300TIP3    H228392   4.228   5.282  10.946 -0.8236  0.3526 -0.2606
 2301TIP3   OH228393   3.415   4.860   2.157  0.0970  0.9609 -0.5172
 2301TIP3    H128394   3.357   4.898   2.224 -0.9180  0.2812 -0.9796
 2301TIP3    H228395   3.417   4.767   2.177 -0.4469  0.7047 -1.5859
 2302TIP3   OH228396   2.095   0.729   0.731  0.2319  0.3621  0.1366
 2302TIP3    H128397   2.183   0.696   0.747  0.5409  0.8990 -0.4286
 2302TIP3    H228398   2.055   0.734   0.818  0.9579  0.6661  0.4570
 2303TIP3   OH228399   5.041   6.128   2.670 -0.1469 -0.3798  0.1143
 2303TIP3    H128400   4.949   6.142   2.649  0.0333  0.6967 -0.0049
 2303TIP3    H228401   5.064   6.047   2.624 -1.1478 -0.9295  0.5432
 2304TIP3   OH228402   3.104   1.769   3.315 -0.2688 -0.3835  0.5516
 2304TIP3    H128403   3.117   1.684   3.274  0.1731 -0.3192  0.5471
 2304TIP3    H228404   3.137   1.758   3.404  1.3795  0.2355  0.0574
 2305TIP3   OH228405   4.001   4.499  14.149  0.3531  0.2512  0.5711
 2305TIP3    H128406   3.919   4.499  14.199  0.0327 -0.2413  0.0612
 2305TIP3    H228407   4.067   4.530  14.210 -0.0185 -0.4317  1.3362
 2306TIP3   OH228408   5.373   4.214  12.529 -0.0088 -0.1157  0.0043
 2306TIP3    H128409   5.277   4.217  12.522 -0.0752  1.1509  0.9703
 2306TIP3    H228410   5.395   4.292  12.580  1.6081  0.0437 -0.8632
 2307TIP3   OH228411   5.158   6.577  13.924  0.4326  0.0615 -0.6553
 2307TIP3    H128412   5.241   6.625  13.925  0.1094  0.6176  0.5887
 2307TIP3    H228413   5.102   6.629  13.865  0.9956 -0.4079 -1.6333
 2308TIP3   OH228414   6.405   1.066  13.999  0.5428 -0.2083  0.0136
 2308TIP3    H128415   6.463   1.103  13.932 -0.4366  0.5716 -0.4195
 2308TIP3    H228416   6.419   1.121  14.077  0.6045 -0.2026 -0.0015
 2309TIP3   OH228417   6.570   5.595   3.321 -0.3027 -0.0764  1.3624
 2309TIP3    H128418   6.508   5.667   3.307 -2.5362 -1.7670  1.9468
 2309TIP3    H228419   6.545   5.529   3.256  2.5024  0.0671 -0.0152
 2310TIP3   OH228420   5.853   6.517  11.832 -0.3869  0.3491  0.2913
 2310TIP3    H128421   5.809   6.585  11.781  0.2943 -0.2523 -1.1510
 2310TIP3    H228422   5.943   6.517  11.798  0.1303  0.0083  1.5978
 2311TIP3   OH228423   6.682   5.399  12.213  0.1669 -0.5038  0.3083
 2311TIP3    H128424   6.709   5.491  12.208  0.2627 -0.5996 -1.2189
 2311TIP3    H228425   6.676   5.382  12.307  0.1480  1.0598  0.6265
 2312TIP3   OH228426   3.762   1.443  13.948 -0.5016  0.0576  0.6068
 2312TIP3    H128427   3.788   1.420  13.859 -0.9992 -0.6173  0.6294
 2312TIP3    H228428   3.830   1.405  14.004 -0.2845  0.3277  0.5294
 2313TIP3   OH228429   4.999   0.443   4.344 -0.2932 -0.0049  0.4069
 2313TIP3    H128430   5.032   0.368   4.394  1.9713  1.4349  1.2459
 2313TIP3    H228431   5.026   0.519   4.395 -0.8631  1.4543 -1.3572
 2314TIP3   OH228432   6.279   1.776  13.479 -0.4437  0.6061 -0.3734
 2314TIP3    H128433   6.198   1.755  13.525 -0.3643  0.9474 -0.0781
 2314TIP3    H228434   6.258   1.857  13.431 -0.2121  0.8206 -0.1178
 2315TIP3   OH228435   4.792   0.866   3.846  0.1165 -0.2370  0.0464
 2315TIP3    H128436   4.802   0.779   3.886 -0.0941 -0.9237 -1.3503
 2315TIP3    H228437   4.880   0.889   3.817  0.4968  0.7652  1.8173
 2316TIP3   OH228438   1.935   0.698   1.268 -0.1997 -0.6501 -0.0140
 2316TIP3    H128439   2.030   0.697   1.282 -0.2707  0.5541  0.7313
 2316TIP3    H228440   1.899   0.685   1.356 -0.6948  1.8038  0.2097
 2317TIP3   OH228441   5.217   4.489  16.628  0.2093  0.3850 -0.8672
 2317TIP3    H128442   5.275   4.451  16.693 -1.7379 -0.8854  0.2365
 2317TIP3    H228443   5.254   4.576  16.610  0.0011  1.4831  3.1519
 2318TIP3   OH228444   2.476   2.682   0.697  0.4288  0.7190  0.0356
 2318TIP3    H128445   2.486   2.700   0.791  0.6880 -1.0227  0.3694
 2318TIP3    H228446   2.541   2.614   0.678 -0.4648  0.1468 -1.1241
 2319TIP3   OH228447   3.264   1.309  14.051  0.3950 -0.0226  0.4060
 2319TIP3    H128448   3.353   1.344  14.057  0.3232  1.2331 -3.4069
 2319TIP3    H228449   3.212   1.368  14.105  1.5032  0.6594  0.7778
 2320TIP3   OH228450   3.022   6.047  16.852  0.7177  0.3919 -0.2688
 2320TIP3    H128451   2.947   6.028  16.795 -0.0780  0.8625  0.5983
 2320TIP3    H228452   3.078   6.103  16.799  0.8922 -0.6685 -1.2399
 2321TIP3   OH228453   2.091   4.206   5.230  0.6744  0.0624  0.4063
 2321TIP3    H128454   2.158   4.274   5.225  0.2057  0.5359  0.4938
 2321TIP3    H228455   2.019   4.239   5.178  0.1473 -0.0250  1.0657
 2322TIP3   OH228456   4.279   4.148  12.145  0.0851  0.2943 -0.1607
 2322TIP3    H128457   4.195   4.193  12.137 -0.1694  0.0519  0.9795
 2322TIP3    H228458   4.341   4.203  12.095 -0.3227  1.6253  0.7347
 2323TIP3   OH228459   5.769   0.818  14.657 -0.2476 -0.4193  0.0415
 2323TIP3    H128460   5.734   0.873  14.727  0.9701  0.3630  0.0622
 2323TIP3    H228461   5.858   0.797  14.684  0.8047  1.1766 -1.9251
 2324TIP3   OH228462   6.368   4.290  13.182 -0.5661 -0.1938 -0.0217
 2324TIP3    H128463   6.361   4.239  13.101 -1.0843  0.2938 -0.2962
 2324TIP3    H228464   6.432   4.358  13.163  0.3306 -0.8836  0.4357
 2325TIP3   OH228465   5.768   2.595   5.034  0.6188 -0.6033  0.7942
 2325TIP3    H128466   5.742   2.503   5.029 -0.2882 -0.3321  0.2871
 2325TIP3    H228467   5.686   2.643   5.028  1.1532  0.2616  0.2483
 2326TIP3   OH228468   5.671   1.319   1.041 -0.1155  0.0257 -0.2829
 2326TIP3    H128469   5.657   1.380   0.968 -0.8690 -0.4194 -0.5128
 2326TIP3    H228470   5.706   1.374   1.111  0.9274  0.4099 -1.0623
 2327TIP3   OH228471   6.498   4.143  12.712  0.8030 -0.2468  0.1404
 2327TIP3    H128472   6.485   4.223  12.661  1.5300 -0.1382  0.1118
 2327TIP3    H228473   6.498   4.073  12.647 -0.0160 -0.2990  0.1834
 2328TIP3   OH228474   2.790   3.691  12.338  0.2212  0.2209  0.6629
 2328TIP3    H128475   2.811   3.657  12.251  0.7242  1.2766  0.3487
 2328TIP3    H228476   2.701   3.661  12.355 -0.3391  0.9779 -0.7438
 2329TIP3   OH228477   2.588   4.055   3.282  0.0073 -0.6904  0.1585
 2329TIP3    H128478   2.533   4.045   3.360  1.9274 -0.2748  1.6368
 2329TIP3    H228479   2.625   4.143   3.290  0.4354 -0.7397 -1.1101
 2330TIP3   OH228480   6.226   6.381  15.357 -0.4733  0.2321 -0.4468
 2330TIP3    H128481   6.225   6.475  15.376  1.5251  0.4152 -1.0369
 2330TIP3    H228482   6.152   6.368  15.298 -1.0424  1.3354 -0.0142
 2331TIP3   OH228483   5.359   2.880  11.628 -0.4433  0.4602 -0.0654
 2331TIP3    H128484   5.404   2.889  11.712 -0.3863 -2.2971  0.2828
 2331TIP3    H228485   5.408   2.812  11.582 -1.8251  0.3332 -1.4200
 2332TIP3   OH228486   4.787   4.637   4.577 -0.3905  0.8691  0.2740
 2332TIP3    H128487   4.760   4.554   4.537 -1.2377  0.8462  0.8651
 2332TIP3    H228488   4.814   4.613   4.665  1.4273  0.9260 -0.2350
 2333TIP3   OH228489   0.230   4.597  16.193  0.2514  0.0729  0.1911
 2333TIP3    H128490   0.274   4.534  16.136 -0.2762  1.7186 -2.1916
 2333TIP3    H228491   0.149   4.552  16.221  0.7472 -0.9301  0.0453
 2334TIP3   OH228492   1.008   6.130  15.486  0.5765 -0.1155  0.2893
 2334TIP3    H128493   0.952   6.174  15.422  1.9145  0.4769 -0.5444
 2334TIP3    H228494   1.037   6.201  15.544  1.3610 -0.1793 -0.0038
 2335TIP3   OH228495   0.533   3.630  13.267 -0.3405  0.0747  0.2738
 2335TIP3    H128496   0.504   3.606  13.178 -1.3583  0.9880  0.3352
 2335TIP3    H228497   0.627   3.646  13.258 -0.3404 -0.3226 -0.5372
 2336TIP3   OH228498   4.895   1.698   3.535  0.0285  0.2794 -0.7728
 2336TIP3    H128499   4.911   1.604   3.527  1.0639  0.5521 -2.1413
 2336TIP3    H228500   4.880   1.728   3.445  0.5632  1.5645 -0.4613
 2337TIP3   OH228501   2.541   6.277   0.752 -0.3655 -0.2898  0.4172
 2337TIP3    H128502   2.452   6.270   0.787 -0.8094 -0.2199 -0.6868
 2337TIP3    H228503   2.535   6.342   0.682  1.2624  2.5366  2.6352
 2338TIP3   OH228504   3.717   1.860  16.729  0.0378 -0.5737  0.2827
 2338TIP3    H128505   3.677   1.942  16.756 -0.4255 -0.7697  0.2075
 2338TIP3    H228506   3.746   1.875  16.638 -0.6864 -0.7186  0.0252
 2339TIP3   OH228507   1.377   1.806  14.725 -0.2186  0.3350  0.8301
 2339TIP3    H128508   1.355   1.801  14.632  0.3811 -2.4265  0.7693
 2339TIP3    H228509   1.316   1.746  14.768  0.9497 -0.1285  1.9140
 2340TIP3   OH228510   3.213   1.531   2.162 -0.2722 -0.1609  0.3250
 2340TIP3    H128511   3.241   1.609   2.209  0.9263 -0.7790  0.6715
 2340TIP3    H228512   3.280   1.465   2.181 -1.0661 -1.1741 -0.2427
 2341TIP3   OH228513   6.376   3.506  15.488 -0.1413  0.0152  0.2177
 2341TIP3    H128514   6.373   3.562  15.565 -2.2541  0.7913 -0.3596
 2341TIP3    H228515   6.354   3.419  15.521  1.9543 -0.3138  0.9174
 2342TIP3   OH228516   2.944   6.745  14.218  0.4403 -0.2579 -0.1775
 2342TIP3    H128517   2.907   6.779  14.136  0.1960 -2.3265 -0.9679
 2342TIP3    H228518   2.916   6.809  14.285 -2.7762 -0.5631 -1.0635
 2343TIP3   OH228519   6.030   4.187  15.064  0.2416  0.5225 -0.4245
 2343TIP3    H128520   6.092   4.119  15.039 -0.3405  0.6102 -2.2834
 2343TIP3    H228521   5.966   4.142  15.119  0.1519 -0.3324 -1.1986
 2344TIP3   OH228522   6.668   5.306  14.476 -0.0033  0.3070 -0.5919
 2344TIP3    H128523   6.668   5.369  14.403 -2.8613  0.9670 -0.1116
 2344TIP3    H228524   6.652   5.221  14.434 -0.0896  0.4614 -0.8735
 2345TIP3   OH228525   6.667   6.396  15.910 -0.6011 -0.3326 -0.3836
 2345TIP3    H128526   6.585   6.347  15.905  0.4019 -2.2423  0.5912
 2345TIP3    H228527   6.652   6.461  15.979 -1.1042 -1.1155  0.2711
 2346TIP3   OH228528   3.533   4.020  16.374 -0.3499  0.0340  0.3881
 2346TIP3    H128529   3.497   4.095  16.326  1.5976  2.8109  2.9451
 2346TIP3    H228530   3.625   4.018  16.349  0.2747  0.3873  2.5227
 2347TIP3   OH228531   5.104   0.300  16.868 -0.2402 -0.2396  0.1269
 2347TIP3    H128532   5.095   0.335  16.779  0.2308  0.5983  0.4087
 2347TIP3    H228533   5.035   0.233  16.873 -1.4657  0.9572 -0.2563
 2348TIP3   OH228534   2.779   1.955   3.839  0.4909  0.0887  0.2702
 2348TIP3    H128535   2.807   1.865   3.827  0.3519  0.1003 -0.1470
 2348TIP3    H228536   2.835   1.989   3.909  0.5361 -0.3215  0.4331
 2349TIP3   OH228537   4.459   5.822  16.682 -0.3077  0.1484 -0.0641
 2349TIP3    H128538   4.515   5.790  16.612 -1.1406  1.3050 -1.3090
 2349TIP3    H228539   4.520   5.844  16.753  0.6142 -0.4132 -0.6634
 2350TIP3   OH228540   6.054   0.045   3.993 -0.0188 -0.3790 -0.2637
 2350TIP3    H128541   6.028  -0.029   4.048 -0.2242 -1.0004 -1.1774
 2350TIP3    H228542   6.134   0.017   3.950 -1.8928 -1.5181 -3.2884
 2351TIP3   OH228543   3.909   3.917   0.927  0.8214  0.4021  0.1194
 2351TIP3    H128544   3.886   3.970   0.851  2.7208  0.8534 -0.2110
 2351TIP3    H228545   3.953   3.840   0.890  0.3490 -0.1609  0.7066
 2352TIP3   OH228546   6.561   6.788   2.312  0.0097  0.6285 -0.2665
 2352TIP3    H128547   6.586   6.867   2.265  1.5068 -0.9467 -2.2985
 2352TIP3    H228548   6.486   6.754   2.263 -1.7752  1.6305  1.6382
 2353TIP3   OH228549   0.640   6.616  11.776  0.3874 -0.1121 -0.2360
 2353TIP3    H128550   0.647   6.589  11.867  1.4261  1.7663  0.2991
 2353TIP3    H228551   0.549   6.640  11.764 -0.2188 -2.2219 -0.3113
 2354TIP3   OH228552   6.252   2.975   5.563 -0.0920 -0.2263 -0.6710
 2354TIP3    H128553   6.167   2.953   5.601 -0.3092  3.4358  1.4475
 2354TIP3    H228554   6.230   3.019   5.480 -0.1778 -0.3236 -0.7010
 2355TIP3   OH228555   4.945   5.858   5.776  0.1524 -0.0636 -0.6870
 2355TIP3    H128556   4.906   5.775   5.751 -0.9107  0.6440 -1.4529
 2355TIP3    H228557   4.878   5.924   5.757  0.9589  0.9774 -0.0905
 2356TIP3   OH228558   0.782   3.921  11.921 -0.1522  0.3795  0.0449
 2356TIP3    H128559   0.739   3.872  11.850 -0.5799 -0.6459  0.9817
 2356TIP3    H228560   0.871   3.886  11.923 -0.6259 -0.8574  1.1068
 2357TIP3   OH228561   3.842   1.734  12.852 -0.8523  0.2320  0.4651
 2357TIP3    H128562   3.775   1.802  12.857 -0.7260  0.5790 -1.5845
 2357TIP3    H228563   3.794   1.655  12.828 -0.6225  0.3705 -0.5035
 2358TIP3   OH228564   5.739   5.729  11.934  0.4493 -0.7105 -0.2039
 2358TIP3    H128565   5.780   5.656  11.981  0.4112  0.1392  1.1941
 2358TIP3    H228566   5.680   5.768  11.998  0.7599  0.7892 -0.8099
 2359TIP3   OH228567   4.438   2.849  14.429  0.3080 -0.6485 -0.7450
 2359TIP3    H128568   4.404   2.915  14.369  1.9539 -0.0921 -1.1114
 2359TIP3    H228569   4.485   2.900  14.495  0.7121 -1.4094 -0.4393
 2360TIP3   OH228570   1.990   2.181   4.952  0.2026 -0.1218 -0.5842
 2360TIP3    H128571   1.978   2.276   4.949 -2.7344 -0.3015  1.2775
 2360TIP3    H228572   1.902   2.145   4.944  1.3104 -2.8034 -2.1451
 2361TIP3   OH228573   6.460   1.018   5.160  0.2041 -0.0300  0.1127
 2361TIP3    H128574   6.388   0.973   5.115  0.4222 -0.5274  0.2613
 2361TIP3    H228575   6.451   0.992   5.252 -0.4220  1.2188  0.4339
 2362TIP3   OH228576   1.673   2.542   0.293  0.3209  0.8276 -0.0529
 2362TIP3    H128577   1.629   2.627   0.301 -0.4581  0.3672  0.6736
 2362TIP3    H228578   1.631   2.487   0.359  0.2588 -0.3709 -1.0647
 2363TIP3   OH228579   0.742   1.877   1.046 -0.4480 -0.0017 -0.1888
 2363TIP3    H128580   0.791   1.959   1.051  0.4632 -0.5570  0.3002
 2363TIP3    H228581   0.667   1.890   1.104  0.4976 -0.0202  1.0918
 2364TIP3   OH228582   5.586   6.467   5.596 -1.0069  0.2172 -0.4295
 2364TIP3    H128583   5.531   6.506   5.529 -1.6730 -0.5522 -0.3487
 2364TIP3    H228584   5.536   6.475   5.677 -0.3643  0.8135 -0.0752
 2365TIP3   OH228585   1.523   4.417   0.435 -0.5504 -0.0193 -0.6517
 2365TIP3    H128586   1.611   4.453   0.420 -0.3463 -0.1095  0.2338
 2365TIP3    H228587   1.539   4.324   0.452 -0.5180  0.3982  1.9578
 2366TIP3   OH228588   4.669   0.238   5.593  0.4829 -0.4508 -0.3446
 2366TIP3    H128589   4.576   0.224   5.611  0.5800 -1.3278 -0.4601
 2366TIP3    H228590   4.714   0.179   5.654  1.0178  0.8844  0.5884
 2367TIP3   OH228591   3.532   3.493   1.627  0.0216  0.2619 -0.2075
 2367TIP3    H128592   3.487   3.435   1.687 -1.2039  1.7427  0.3541
 2367TIP3    H228593   3.623   3.492   1.657 -0.5928  1.1595  1.8818
 2368TIP3   OH228594   4.863   1.848  14.940  0.1660  0.1581 -0.1366
 2368TIP3    H128595   4.791   1.803  14.896 -0.5488 -0.2258  1.3626
 2368TIP3    H228596   4.881   1.924  14.884 -2.1745  0.8964 -0.0045
 2369TIP3   OH228597   3.282   6.701  14.800  0.4647  0.1741 -0.2372
 2369TIP3    H128598   3.252   6.690  14.889 -1.8917 -0.3641 -1.0483
 2369TIP3    H228599   3.321   6.617  14.776 -1.5248 -0.6922 -0.6150
 2370TIP3   OH228600   1.118   1.992   5.043 -0.1905  0.0795 -0.0002
 2370TIP3    H128601   1.044   1.932   5.041 -0.4990  0.4567 -1.3543
 2370TIP3    H228602   1.195   1.936   5.045 -0.5011 -0.3258  0.7230
 2371TIP3   OH228603   4.883   5.665   4.376  0.0573 -0.3007 -0.0795
 2371TIP3    H128604   4.825   5.620   4.315 -0.6115 -0.7756  0.8842
 2371TIP3    H228605   4.962   5.610   4.379  0.4921  0.2315 -1.2244
 2372TIP3   OH228606   2.254   1.965   1.291 -0.4227 -0.0597 -0.3722
 2372TIP3    H128607   2.231   1.873   1.307 -1.7272  0.3105  0.0151
 2372TIP3    H228608   2.246   1.976   1.197  0.4367 -0.5175 -0.5023
 2373TIP3   OH228609   0.017   2.311   4.691 -0.3702 -0.3187 -0.0782
 2373TIP3    H128610  -0.046   2.356   4.747 -0.9422 -0.0989 -0.8776
 2373TIP3    H228611  -0.014   2.328   4.602  0.5513 -0.6076 -0.4673
 2374TIP3   OH228612   0.464   1.029   3.857  0.5788 -0.4826  0.0677
 2374TIP3    H128613   0.500   0.966   3.920  1.8682 -0.1729 -0.3322
 2374TIP3    H228614   0.397   0.979   3.809 -0.1957 -0.8108  1.4353
 2375TIP3   OH228615   2.402   5.007   6.328 -0.2121 -0.2758 -0.0500
 2375TIP3    H128616   2.486   5.045   6.353 -0.9278  0.9980  0.5447
 2375TIP3    H228617   2.338   5.076   6.349 -1.2529 -0.6327 -1.8905
 2376TIP3   OH228618   4.960   5.641  13.905  0.2198  0.2662  0.1739
 2376TIP3    H128619   5.016   5.563  13.901  0.2125  0.1513  1.9210
 2376TIP3    H228620   4.955   5.662  13.998 -0.3892  1.9283 -0.2176
 2377TIP3   OH228621   5.719   4.932   4.054 -0.0936 -0.6047  0.1765
 2377TIP3    H128622   5.813   4.941   4.037 -0.3784  1.4964 -0.5629
 2377TIP3    H228623   5.714   4.877   4.132  1.7126 -1.3626 -0.1982
 2378TIP3   OH228624   3.880   3.110   3.416  0.4835 -0.1002  0.3399
 2378TIP3    H128625   3.949   3.086   3.476  1.9902 -1.1908 -1.7041
 2378TIP3    H228626   3.816   3.039   3.422  1.2954 -0.9040 -0.2911
 2379TIP3   OH228627   4.455   5.005   1.524 -0.6550  0.2875 -0.0912
 2379TIP3    H128628   4.537   4.970   1.559 -0.8455  0.2180  0.2856
 2379TIP3    H228629   4.429   5.073   1.586 -2.8601 -2.1926  1.9935
 2380TIP3   OH228630   3.329   2.804  16.508  0.4587 -0.4040 -0.5793
 2380TIP3    H128631   3.295   2.822  16.595  0.6583 -1.0373 -0.3623
 2380TIP3    H228632   3.355   2.890  16.474  0.7367 -0.1999  0.1338
 2381TIP3   OH228633   2.871   1.742  14.001  0.3494 -0.3127  0.3054
 2381TIP3    H128634   2.852   1.830  13.968  2.0623 -0.5827 -1.5660
 2381TIP3    H228635   2.897   1.755  14.092  0.2524  1.0660  0.1505
 2382TIP3   OH228636   6.580   4.127  12.300  0.0511 -0.5659  0.0620
 2382TIP3    H128637   6.516   4.083  12.355  0.9685 -0.0305  1.6293
 2382TIP3    H228638   6.546   4.118  12.211 -2.2278 -0.2237  0.8429
 2383TIP3   OH228639   6.349   0.566   1.354  0.0640  0.5006 -0.3951
 2383TIP3    H128640   6.366   0.553   1.447  0.1802  0.9901 -0.3459
 2383TIP3    H228641   6.259   0.599   1.350  0.1180  0.6426 -0.4436
 2384TIP3   OH228642   6.065   2.773   4.932 -0.4558  0.5480  0.2505
 2384TIP3    H128643   6.012   2.761   4.853 -0.1038 -0.7664  0.1846
 2384TIP3    H228644   6.004   2.756   5.004 -0.1121 -1.2567  0.1694
 2385TIP3   OH228645   2.557   0.347   2.140  0.2031 -0.1200 -0.0579
 2385TIP3    H128646   2.571   0.253   2.131 -0.5685 -0.1847 -0.6800
 2385TIP3    H228647   2.476   0.355   2.189  0.2761  0.2219  0.0093
 2386TIP3   OH228648   4.749   2.587  14.985 -0.1973  0.0184  0.3761
 2386TIP3    H128649   4.740   2.652  15.054 -1.4185 -0.2528  0.4888
 2386TIP3    H228650   4.762   2.638  14.905 -2.9072  0.5454  0.1744
 2387TIP3   OH228651   4.177   3.268   3.588 -0.1109  0.1686 -0.2492
 2387TIP3    H128652   4.156   3.308   3.503  2.8703 -0.6122 -1.4686
 2387TIP3    H228653   4.158   3.175   3.575 -0.1681  0.1228  0.1529
 2388TIP3   OH228654   0.266   5.544  15.711 -0.3964  0.3476 -0.2407
 2388TIP3    H128655   0.303   5.536  15.799 -2.3438  1.0841  0.6852
 2388TIP3    H228656   0.183   5.498  15.716 -0.5900  0.5132 -1.6725
 2389TIP3   OH228657   3.517   1.962   5.033  0.6899  0.3520  0.3166
 2389TIP3    H128658   3.482   1.938   5.118  0.0797  0.4179  0.0884
 2389TIP3    H228659   3.443   2.001   4.986  0.8481 -0.2897 -0.4868
 2390TIP3   OH228660   1.812   1.357  16.941 -0.5232 -0.3694 -0.5612
 2390TIP3    H128661   1.852   1.421  16.883 -0.8327 -0.6224 -1.0620
 2390TIP3    H228662   1.853   1.372  17.026 -0.7970  0.6761 -0.6024
 2391TIP3   OH228663   2.403   0.083   2.160  0.1075 -0.3458 -0.7647
 2391TIP3    H128664   2.424   0.017   2.094  0.2380 -1.0823 -0.0152
 2391TIP3    H228665   2.424   0.040   2.243 -1.1718  0.1175 -0.1738
 2392TIP3   OH228666   1.817   5.609   5.969 -0.0153  0.5197 -0.1692
 2392TIP3    H128667   1.900   5.576   5.935 -0.4670 -0.1297 -0.6633
 2392TIP3    H228668   1.819   5.590   6.063 -0.5216 -1.5245 -0.5282
 2393TIP3   OH228669   6.740   1.516   4.274 -0.3928  0.3685 -0.9354
 2393TIP3    H128670   6.710   1.497   4.363  1.8714  1.4447  0.1241
 2393TIP3    H228671   6.777   1.434   4.243  3.3950  1.0583  1.1416
 2394TIP3   OH228672   6.485   3.306  11.743  0.5200  0.4134  0.7711
 2394TIP3    H128673   6.568   3.327  11.785 -0.7882  0.3455  3.6102
 2394TIP3    H228674   6.491   3.213  11.723  1.7056  0.7522 -0.5554
 2395TIP3   OH228675   5.797   1.194  15.191 -0.2507  0.1804  0.1365
 2395TIP3    H128676   5.717   1.213  15.240  0.0334 -0.3611  0.8288
 2395TIP3    H228677   5.776   1.219  15.100 -0.7172  1.3855  0.5537
 2396TIP3   OH228678   1.679   1.047   0.535  0.3382  0.2309 -0.1434
 2396TIP3    H128679   1.715   0.962   0.558 -0.4306  0.0779  0.5273
 2396TIP3    H228680   1.686   1.050   0.439  1.8897  0.1207 -0.0628
 2397TIP3   OH228681   2.570   4.437  16.936 -0.3325 -0.2156  0.2724
 2397TIP3    H128682   2.592   4.507  16.998  3.2492  1.8696 -2.9080
 2397TIP3    H228683   2.487   4.464  16.898 -0.0629  1.2074  0.6332
 2398TIP3   OH228684   5.416   6.478  14.719  0.0552 -0.5051 -0.0725
 2398TIP3    H128685   5.431   6.489  14.813  1.1602  2.0781 -0.4669
 2398TIP3    H228686   5.349   6.542  14.697 -2.1463 -2.8517 -0.6952
 2399TIP3   OH228687   0.421   3.999   3.937  0.2821 -0.3084  0.0434
 2399TIP3    H128688   0.342   4.047   3.912  0.3108 -0.1853  0.1906
 2399TIP3    H228689   0.466   4.056   3.999  1.1021  0.1657 -0.9643
 2400TIP3   OH228690   4.711   6.332   1.690 -0.1121  0.5654 -0.1801
 2400TIP3    H128691   4.685   6.414   1.648 -0.4015 -0.4893 -2.2087
 2400TIP3    H228692   4.631   6.297   1.728 -0.2984  0.5354 -0.5924
 2401TIP3   OH228693   0.369   4.170  11.962  0.0200  0.6271 -0.0422
 2401TIP3    H128694   0.327   4.229  12.026  0.4270 -0.1851  1.0098
 2401TIP3    H228695   0.455   4.208  11.948  0.0189  0.6770  0.0811
 2402TIP3   OH228696   4.605   2.717  12.893  0.3261 -0.2515  0.4588
 2402TIP3    H128697   4.549   2.718  12.970  0.2983 -2.2732  0.5124
 2402TIP3    H228698   4.644   2.805  12.891 -0.5082  0.2048  2.1174
 2403TIP3   OH228699   6.640   4.294   0.680 -0.0116 -0.5488  0.2690
 2403TIP3    H128700   6.671   4.222   0.625 -0.2658 -0.8180  0.4753
 2403TIP3    H228701   6.651   4.262   0.769  0.2217 -0.1865  0.3710
 2404TIP3   OH228702   0.379   4.415  16.023  0.1583  0.2798 -0.5092
 2404TIP3    H128703   0.341   4.328  16.033 -0.2161  0.3600 -1.1868
 2404TIP3    H228704   0.474   4.400  16.030  0.1209 -0.2524 -1.0964
 2405TIP3   OH228705   3.118   2.376   3.293 -0.7208  0.2235 -0.6257
 2405TIP3    H128706   3.209   2.404   3.279 -1.0119  0.7939 -1.4334
 2405TIP3    H228707   3.065   2.443   3.249 -1.5722  0.3273  0.5290
 2406TIP3   OH228708   5.251   3.963   4.442  0.2137 -0.1191 -0.4983
 2406TIP3    H128709   5.174   3.995   4.396  0.8866  1.3099 -0.6945
 2406TIP3    H228710   5.241   3.868   4.442 -0.8465 -0.0421 -1.7555
 2407TIP3   OH228711   4.036   6.011  15.116  0.5181  0.3549 -0.3925
 2407TIP3    H128712   3.959   5.954  15.117 -0.6125  1.8138 -0.6674
 2407TIP3    H228713   4.013   6.083  15.174  1.3132  1.2812 -1.1878
 2408TIP3   OH228714   5.019   1.605  13.587 -0.0088 -0.1788 -0.3759
 2408TIP3    H128715   4.969   1.524  13.593  0.6775 -0.5172  1.1228
 2408TIP3    H228716   4.982   1.650  13.511 -1.3015 -1.2732 -0.4308
 2409TIP3   OH228717   2.282   5.237   2.975  0.0520  0.3557 -1.0525
 2409TIP3    H128718   2.376   5.243   2.957  0.1283  1.5422 -0.3206
 2409TIP3    H228719   2.260   5.320   3.017 -0.9339 -0.6832  0.5866
 2410TIP3   OH228720   2.082   2.225  15.193 -0.0887  0.1190  0.1748
 2410TIP3    H128721   2.097   2.316  15.166  0.4315 -0.8916 -3.5471
 2410TIP3    H228722   2.170   2.189  15.207 -0.2998  0.1981  1.8587
 2411TIP3   OH228723   3.782   2.855  13.398  0.1576 -0.0577 -0.3411
 2411TIP3    H128724   3.809   2.879  13.309 -0.3267  0.3661 -0.3768
 2411TIP3    H228725   3.731   2.775  13.387 -0.5874  0.4391 -0.5417
 2412TIP3   OH228726   3.701   1.369   3.416  0.1195 -0.4968  0.5385
 2412TIP3    H128727   3.711   1.461   3.391 -3.5835 -0.0332  0.1266
 2412TIP3    H228728   3.674   1.371   3.507  3.7360 -1.5779  1.8058
 2413TIP3   OH228729   1.947   2.713  11.289  0.1835 -0.2433 -0.0769
 2413TIP3    H128730   1.889   2.784  11.318  1.9580  2.2137 -2.1093
 2413TIP3    H228731   2.033   2.753  11.285  1.2125 -2.4395 -1.7003
 2414TIP3   OH228732   5.741   1.068   4.470 -0.3079  0.1919 -0.1363
 2414TIP3    H128733   5.711   1.012   4.399 -0.3437 -0.4397  0.3723
 2414TIP3    H228734   5.662   1.114   4.500 -0.3446  0.2389 -0.3042
 2415TIP3   OH228735   2.321   3.037  13.106 -0.4092 -0.0875  0.5601
 2415TIP3    H128736   2.386   3.075  13.165  0.0532 -0.3782  0.2395
 2415TIP3    H228737   2.367   3.027  13.023 -0.5913 -1.1260  0.5756
 2416TIP3   OH228738   5.502   6.362   3.547 -0.1457 -0.0317 -0.0032
 2416TIP3    H128739   5.411   6.345   3.571 -0.4046  1.0820 -0.1625
 2416TIP3    H228740   5.498   6.431   3.482  0.8785  1.0369  0.9978
 2417TIP3   OH228741   4.806   5.980  10.973 -0.2459  0.5203 -0.3957
 2417TIP3    H128742   4.866   6.025  10.913 -2.0151  0.4690 -2.2936
 2417TIP3    H228743   4.731   5.956  10.919 -1.5125 -0.4120  1.6559
 2418TIP3   OH228744   0.260   6.750   0.631 -0.0121  0.4326 -0.4578
 2418TIP3    H128745   0.328   6.768   0.696  1.1347  0.0011 -1.5042
 2418TIP3    H228746   0.183   6.728   0.683  1.4203 -2.0023  0.7952
 2419TIP3   OH228747   3.979   2.230  13.603  0.0705  0.0589 -0.4229
 2419TIP3    H128748   4.004   2.150  13.557  1.4426 -0.7185  1.5238
 2419TIP3    H228749   3.890   2.212  13.634 -0.2715 -0.0227 -1.4287
 2420TIP3   OH228750   2.463   6.521   4.331 -0.1189 -0.2462  0.3199
 2420TIP3    H128751   2.504   6.455   4.388  0.9911  1.2039  1.3042
 2420TIP3    H228752   2.535   6.579   4.307 -1.4592  2.1308  1.6873
 2421TIP3   OH228753   4.018   3.137   0.980 -0.8895 -0.0600 -0.1905
 2421TIP3    H128754   4.029   3.072   1.049 -0.5683  1.7881  1.6149
 2421TIP3    H228755   3.976   3.090   0.908  0.6944 -2.5906  0.4219
 2422TIP3   OH228756   0.217   4.662  12.263  1.0661  0.0841 -0.4232
 2422TIP3    H128757   0.185   4.651  12.352  1.2516  1.2941 -0.2000
 2422TIP3    H228758   0.140   4.649  12.208  0.8069  0.0489 -0.0522
 2423TIP3   OH228759   5.205   3.413   5.485  0.0793  0.1008 -0.3853
 2423TIP3    H128760   5.245   3.489   5.443 -0.5320  0.6905  0.0932
 2423TIP3    H228761   5.276   3.373   5.535  0.5782 -0.0626 -1.1913
 2424TIP3   OH228762   3.245   1.560  11.591  0.3960 -0.3257 -0.0061
 2424TIP3    H128763   3.263   1.597  11.678  2.0615 -0.8947 -0.0738
 2424TIP3    H228764   3.239   1.636  11.534 -1.1708  0.0850  0.6556
 2425TIP3   OH228765   3.870   5.020  13.521  0.0864  0.1933  0.4562
 2425TIP3    H128766   3.791   5.065  13.491  0.6656  0.8331 -0.1427
 2425TIP3    H228767   3.922   5.006  13.442  0.5631 -0.2558  0.8367
 2426TIP3   OH228768   3.975   2.864  15.806  0.0682 -0.1253 -0.1540
 2426TIP3    H128769   4.007   2.824  15.887 -0.5802  2.2692  1.3679
 2426TIP3    H228770   4.048   2.855  15.744  0.9814 -1.0499  1.0180
 2427TIP3   OH228771   1.248   0.694   1.273  0.3606  0.8593 -0.5610
 2427TIP3    H128772   1.183   0.733   1.331  0.0539 -0.7027  0.1904
 2427TIP3    H228773   1.328   0.689   1.325  0.6112  1.2067 -0.9113
 2428TIP3   OH228774   3.002   2.189   5.844 -0.1306  0.2596 -0.4138
 2428TIP3    H128775   3.025   2.278   5.820 -1.6336  0.2390 -2.1900
 2428TIP3    H228776   3.077   2.136   5.816  0.3211  0.8372 -0.3120
 2429TIP3   OH228777   2.036   0.939  15.702 -0.0071  0.9287 -0.2596
 2429TIP3    H128778   1.971   0.982  15.757  0.4324  1.2823 -0.0023
 2429TIP3    H228779   2.110   1.001  15.701  1.0275 -0.2266  0.9042
 2430TIP3   OH228780   3.621   0.747   1.030  0.2015 -0.1199  0.3339
 2430TIP3    H128781   3.596   0.658   1.053  2.2859 -0.2715  2.3548
 2430TIP3    H228782   3.580   0.802   1.096  0.3319  0.2294  0.1281
 2431TIP3   OH228783   6.216   4.069   1.151 -0.5701  0.8613 -0.6661
 2431TIP3    H128784   6.264   4.020   1.218 -2.0594 -0.1766 -0.3179
 2431TIP3    H228785   6.233   4.021   1.070  0.2860  1.4508 -0.8533
 2432TIP3   OH228786   2.951   3.713  16.674 -0.2283 -0.4340 -0.3820
 2432TIP3    H128787   2.912   3.660  16.744  0.5292 -1.3184 -0.6097
 2432TIP3    H228788   2.908   3.683  16.594  0.4866 -1.0077 -0.5613
 2433TIP3   OH228789   4.296   6.522  12.605 -0.3079  0.0309  0.4751
 2433TIP3    H128790   4.353   6.562  12.540 -1.7212  0.3360 -0.6253
 2433TIP3    H228791   4.226   6.586  12.619 -1.9132 -1.4386 -0.3705
 2434TIP3   OH228792   0.818   2.915  12.830 -0.3755 -0.4160 -0.1502
 2434TIP3    H128793   0.823   2.908  12.735  0.8909  2.0341 -0.3573
 2434TIP3    H228794   0.894   2.969  12.854 -0.8187 -0.7211  2.2379
 2435TIP3   OH228795   1.223   3.875  16.249  0.3491  0.2471 -0.4110
 2435TIP3    H128796   1.275   3.897  16.327  0.0180 -1.2709  0.2819
 2435TIP3    H228797   1.150   3.936  16.251  0.6157  0.5566  0.1813
 2436TIP3   OH228798   4.704   0.790  15.074 -0.0515 -0.3496 -0.3084
 2436TIP3    H128799   4.622   0.760  15.114 -0.9810  1.5447 -0.6901
 2436TIP3    H228800   4.683   0.875  15.037  1.5696 -0.7007 -2.2290
 2437TIP3   OH228801   6.201   1.464   2.462 -0.0972 -0.2062 -0.4802
 2437TIP3    H128802   6.231   1.429   2.379 -2.4375  0.2975 -1.6108
 2437TIP3    H228803   6.135   1.529   2.439 -1.6437 -0.8555  1.7698
 2438TIP3   OH228804   1.791   4.341   2.800  0.3679 -0.0696  0.1344
 2438TIP3    H128805   1.699   4.345   2.774  0.3120  1.1551  0.4512
 2438TIP3    H228806   1.790   4.310   2.890  0.4653 -2.7350 -0.6983
 2439TIP3   OH228807   1.943   3.546   5.539 -0.5202  0.3900  0.1511
 2439TIP3    H128808   1.884   3.619   5.552  1.9469  2.4714  0.4935
 2439TIP3    H228809   1.943   3.499   5.622 -0.2504  1.5130  0.7991
 2440TIP3   OH228810   3.795   6.418  16.355 -0.6420  0.2283 -0.0652
 2440TIP3    H128811   3.882   6.455  16.347 -0.8077  0.8682  0.9103
 2440TIP3    H228812   3.809   6.335  16.401 -0.5775  0.4867  0.3858
 2441TIP3   OH228813   5.734   1.688  15.776  0.6778  0.8732  0.5840
 2441TIP3    H128814   5.732   1.741  15.856  1.7800  0.6526  0.7697
 2441TIP3    H228815   5.798   1.731  15.720  0.1156  0.8643 -0.0798
 2442TIP3   OH228816   1.758   3.831   2.168  0.3025  0.2395  0.0572
 2442TIP3    H128817   1.707   3.879   2.103  1.1546  1.3551  0.1972
 2442TIP3    H228818   1.848   3.862   2.157  0.7676 -0.8222  0.6180
 2443TIP3   OH228819   0.860   0.832  12.289  0.2819  0.1422  0.2296
 2443TIP3    H128820   0.817   0.802  12.209 -0.0111  0.1482  0.3860
 2443TIP3    H228821   0.954   0.822  12.270  0.2126  0.0492 -0.0765
 2444TIP3   OH228822   2.344   1.517   0.540  0.6965  0.5676 -0.8865
 2444TIP3    H128823   2.275   1.583   0.548 -0.4490 -0.7494  0.6915
 2444TIP3    H228824   2.351   1.501   0.445 -4.3662 -2.3735 -1.1128
 2445TIP3   OH228825   2.157   6.229   0.514  0.5479  0.5803 -0.9218
 2445TIP3    H128826   2.091   6.272   0.459  0.1747  1.3007  0.0506
 2445TIP3    H228827   2.127   6.139   0.522  1.2086  0.1684 -2.7956
 2446TIP3   OH228828   1.291   6.548  12.408 -0.3097 -0.2944 -0.0793
 2446TIP3    H128829   1.259   6.612  12.344 -0.9580  1.2578  1.7045
 2446TIP3    H228830   1.343   6.599  12.469  1.0536 -1.8975  0.1769
 2447TIP3   OH228831   1.759   5.679  16.860 -0.0346  0.2167  0.0006
 2447TIP3    H128832   1.797   5.707  16.777 -2.5963  1.4404 -0.8799
 2447TIP3    H228833   1.777   5.752  16.921  1.8868 -0.7024  0.6050
 2448TIP3   OH228834   2.901   2.319   4.418  0.1871 -0.1219 -0.0670
 2448TIP3    H128835   2.980   2.366   4.444  0.0131  0.5296 -0.7115
 2448TIP3    H228836   2.932   2.232   4.393  0.8345  0.4120 -1.1967
 2449TIP3   OH228837   2.997   3.354  14.204  0.6017 -0.1135 -0.2663
 2449TIP3    H128838   3.086   3.384  14.187  0.0186  1.0991 -1.4226
 2449TIP3    H228839   2.984   3.370  14.298  0.9998  1.5204 -0.4476
 2450TIP3   OH228840   6.010   1.828  12.796 -0.3520  0.2984 -0.3783
 2450TIP3    H128841   5.915   1.828  12.787 -0.2082 -1.8581 -3.6372
 2450TIP3    H228842   6.029   1.753  12.853 -0.6052 -0.9453 -1.8577
 2451TIP3   OH228843   1.260   6.386  16.308 -0.5940 -0.1399 -0.4543
 2451TIP3    H128844   1.229   6.449  16.242 -0.7686 -1.4310 -1.6638
 2451TIP3    H228845   1.180   6.348  16.344 -0.4942  0.4829  0.4443
 2452TIP3   OH228846   4.133   5.629  11.257  0.1057 -0.8455 -0.5031
 2452TIP3    H128847   4.086   5.668  11.184  0.2321  0.4524  0.0834
 2452TIP3    H228848   4.222   5.615  11.224 -0.3306 -2.0987 -1.1997
 2453TIP3   OH228849   5.737   1.418  14.358  0.5202  0.2479 -0.2368
 2453TIP3    H128850   5.760   1.510  14.370  1.1274  0.4322 -2.3266
 2453TIP3    H228851   5.655   1.420  14.310  0.2602 -0.3085  0.1835
 2454TIP3   OH228852   6.211   6.364   5.298  0.0244 -0.0295 -0.4889
 2454TIP3    H128853   6.145   6.360   5.367  0.6029 -1.1804  0.0265
 2454TIP3    H228854   6.163   6.391   5.220 -0.5099  2.1095  0.4977
 2455TIP3   OH228855   4.493   2.645   2.135 -0.3589  0.9291  0.5149
 2455TIP3    H128856   4.511   2.596   2.215 -0.2503  0.9033  0.4751
 2455TIP3    H228857   4.498   2.737   2.161 -1.6910  0.9272  0.8467
 2456TIP3   OH228858   5.043   3.813  11.349 -0.5672 -0.4180 -0.5068
 2456TIP3    H128859   4.963   3.760  11.345 -0.4421 -0.5468 -1.5713
 2456TIP3    H228860   5.105   3.767  11.293 -0.0860  0.2472 -0.5273
 2457TIP3   OH228861   0.713   4.136  14.660 -0.3101 -0.1643  0.1521
 2457TIP3    H128862   0.801   4.129  14.624  0.0726 -0.4177  1.1064
 2457TIP3    H228863   0.726   4.136  14.755 -1.3024  0.2654  0.3001
 2458TIP3   OH228864   2.902   2.611  11.897  0.5953  0.7126 -0.3908
 2458TIP3    H128865   2.853   2.547  11.949  0.4074  1.0862 -0.1029
 2458TIP3    H228866   2.952   2.558  11.835  1.5249  0.1947  0.7495
 2459TIP3   OH228867   5.292   4.923  13.611 -0.5246  0.1881 -0.5752
 2459TIP3    H128868   5.198   4.941  13.604 -0.4099  0.1844 -2.7970
 2459TIP3    H228869   5.298   4.853  13.675 -1.8664  1.2714  0.8165
 2460TIP3   OH228870   5.140   1.925   2.553 -0.2676  0.5007 -0.3080
 2460TIP3    H128871   5.170   2.016   2.557 -0.6648  0.6095  1.7731
 2460TIP3    H228872   5.220   1.873   2.559 -0.1676  0.7870  2.5523
 2461TIP3   OH228873   4.135   2.824   0.874 -0.0422  0.0537  0.1050
 2461TIP3    H128874   4.179   2.765   0.813  1.1055  1.4663 -0.5152
 2461TIP3    H228875   4.058   2.855   0.827  0.8453  1.1470 -0.6843
 2462TIP3   OH228876   3.190   1.805   2.173  0.1412 -0.1746  0.2270
 2462TIP3    H128877   3.234   1.794   2.088  0.6080 -1.7147  0.6385
 2462TIP3    H228878   3.140   1.887   2.163  0.0099 -0.4171 -1.6008
 2463TIP3   OH228879   0.257   4.592   1.322 -0.1957  0.4095  0.2346
 2463TIP3    H128880   0.281   4.661   1.384 -1.8304  1.8446 -0.6199
 2463TIP3    H228881   0.326   4.594   1.256  0.7927 -0.1410  1.2192
 2464TIP3   OH228882   1.586   5.222   3.187 -0.3396 -0.1383 -0.0859
 2464TIP3    H128883   1.583   5.297   3.127 -1.7275 -1.4201 -1.7070
 2464TIP3    H228884   1.652   5.164   3.150  0.7026  0.2204  1.1494
 2465TIP3   OH228885   5.343   0.761  15.072 -0.0567  0.0733  0.5567
 2465TIP3    H128886   5.319   0.727  14.986  1.3358 -0.7252  0.4649
 2465TIP3    H228887   5.334   0.856  15.062  0.3601  0.0173 -0.5653
 2466TIP3   OH228888   6.721   3.481  14.929 -0.4022  0.0249 -0.2936
 2466TIP3    H128889   6.740   3.423  15.003 -0.0637  1.5125  0.8296
 2466TIP3    H228890   6.641   3.528  14.955  0.8234  2.0163  0.0836
 2467TIP3   OH228891   6.147   3.357   2.199  0.8172  0.3738 -0.6035
 2467TIP3    H128892   6.157   3.313   2.284 -0.3688 -1.7916 -1.4850
 2467TIP3    H228893   6.236   3.364   2.165  1.0598 -1.8924 -0.6072
 2468TIP3   OH228894   1.196   3.099  14.602 -0.0084  0.3998 -0.1002
 2468TIP3    H128895   1.180   3.184  14.561 -1.8688 -0.3298 -1.0041
 2468TIP3    H228896   1.215   3.120  14.694  0.9204  1.8452 -0.5870
 2469TIP3   OH228897   3.502   1.342  15.668 -0.6589 -0.5701 -0.9383
 2469TIP3    H128898   3.545   1.359  15.752 -2.1743 -0.6635 -0.1132
 2469TIP3    H228899   3.540   1.408  15.609  0.2373 -0.3259 -0.1312
 2470TIP3   OH228900   2.962   0.678  13.741  0.3381  0.0847  0.7086
 2470TIP3    H128901   2.892   0.719  13.690  2.0391  0.3605 -1.5700
 2470TIP3    H228902   2.977   0.737  13.814 -0.7687  0.8076  0.3716
 2471TIP3   OH228903   2.397   1.863  11.847  0.0447  0.0340  0.3804
 2471TIP3    H128904   2.402   1.768  11.860 -0.7036  0.1208  1.3529
 2471TIP3    H228905   2.427   1.901  11.930 -1.6696  0.6242  0.7547
 2472TIP3   OH228906   4.549   6.560  13.317 -0.5464  0.2143 -0.1429
 2472TIP3    H128907   4.593   6.645  13.322 -0.5526  0.2005  0.1689
 2472TIP3    H228908   4.550   6.528  13.407 -1.3981  0.3087 -0.0997
 2473TIP3   OH228909   2.816   0.156   1.401 -0.3623  1.2615 -0.4787
 2473TIP3    H128910   2.843   0.214   1.473 -1.3984  1.5215 -0.2891
 2473TIP3    H228911   2.822   0.068   1.437 -0.0217  1.3297 -0.3614
 2474TIP3   OH228912   3.982   4.369   4.822  0.2436  0.0739  0.5465
 2474TIP3    H128913   3.889   4.387   4.807  0.6748  1.1891 -1.0055
 2474TIP3    H228914   4.007   4.430   4.892 -0.0325  0.2754  0.4731
 2475TIP3   OH228915   4.192   1.316   5.121  0.3065 -0.0573  0.0259
 2475TIP3    H128916   4.288   1.312   5.117  0.2932 -4.0015 -0.4106
 2475TIP3    H228917   4.173   1.345   5.210  1.8914  0.4209  0.2481
 2476TIP3   OH228918   1.270   6.745  11.887  1.0723  0.4297  0.0557
 2476TIP3    H128919   1.293   6.755  11.795  1.8668  1.1923  0.3283
 2476TIP3    H228920   1.181   6.781  11.894  0.8095 -0.0854 -0.4942
 2477TIP3   OH228921   5.226   2.207  15.354 -0.5618 -0.1881 -0.1150
 2477TIP3    H128922   5.245   2.277  15.292 -1.7175  1.0269  0.8334
 2477TIP3    H228923   5.150   2.238  15.403 -0.8144 -1.9086  0.6722
 2478TIP3   OH228924   6.024   6.113  17.043  0.1491 -0.2104 -0.1310
 2478TIP3    H128925   6.040   6.197  17.087 -0.8723 -0.7051  1.2432
 2478TIP3    H228926   5.974   6.062  17.107 -2.2301 -0.6454 -2.1915
 2479TIP3   OH228927   1.742   3.873  10.751 -0.4363  0.0376  0.0833
 2479TIP3    H128928   1.816   3.816  10.770 -0.6115 -0.2793 -0.1773
 2479TIP3    H228929   1.751   3.945  10.813 -0.5047 -0.5329  0.7755
 2480TIP3   OH228930   0.175   5.874  13.303  0.4932  0.0538 -0.0274
 2480TIP3    H128931   0.106   5.887  13.369  1.2965 -0.6913  0.9965
 2480TIP3    H228932   0.245   5.934  13.330  1.0299 -0.6254  0.1053
 2481TIP3   OH228933   1.024   3.610  11.328 -0.1344 -0.0691  0.0918
 2481TIP3    H128934   0.968   3.682  11.299  0.1159  0.4168  0.7862
 2481TIP3    H228935   0.973   3.567  11.397  0.5818  0.7753  1.1899
 2482TIP3   OH228936   0.088   0.380  14.801 -0.1940 -0.6535  0.0498
 2482TIP3    H128937   0.053   0.298  14.766  0.0601 -0.4113 -0.7977
 2482TIP3    H228938   0.170   0.355  14.843 -2.0839 -1.5437  3.6523
 2483TIP3   OH228939   0.291   4.042   4.411  0.1046  0.1637  0.0819
 2483TIP3    H128940   0.218   4.028   4.471  0.2939 -0.0928  0.2525
 2483TIP3    H228941   0.364   4.068   4.468 -0.4768  2.9494 -0.2656
 2484TIP3   OH228942   2.991   5.723   4.250 -0.0502 -0.7108  0.0227
 2484TIP3    H128943   3.030   5.802   4.213 -1.1563  1.1016  2.3786
 2484TIP3    H228944   2.898   5.728   4.225 -1.0847  1.1563  3.5520
 2485TIP3   OH228945   6.195   0.451   6.924 -0.1906  0.0650  0.1652
 2485TIP3    H128946   6.235   0.537   6.936  0.3431 -0.1634  0.0264
 2485TIP3    H228947   6.120   0.451   6.984 -0.9782  1.1135 -0.7819
 2486TIP3   OH228948   2.889   0.699  12.448  0.2759  0.5623 -0.7572
 2486TIP3    H128949   2.828   0.628  12.426  0.7588  0.4366 -1.7164
 2486TIP3    H228950   2.839   0.754  12.509 -0.4471 -0.0670 -0.7518
 2487TIP3   OH228951   1.502   6.644   0.154 -0.1958  0.3913 -0.1528
 2487TIP3    H128952   1.546   6.701   0.217 -0.0590  1.9010 -1.5285
 2487TIP3    H228953   1.573   6.594   0.113 -0.1781  0.1652  0.1460
 2488TIP3   OH228954   2.629   5.987  13.604  0.3206  0.7457  0.2195
 2488TIP3    H128955   2.541   5.952  13.589  0.4175  0.0961  1.0675
 2488TIP3    H228956   2.641   6.053  13.535 -1.1511  1.4601  0.6059
 2489TIP3   OH228957   4.568   6.299   0.029  0.4192  0.7066 -0.0162
 2489TIP3    H128958   4.631   6.370   0.041  1.5398 -0.4862  1.5743
 2489TIP3    H228959   4.620   6.219   0.035 -1.2026 -0.3338  1.3866
 2490TIP3   OH228960   3.798   5.321   2.701 -0.2744 -0.3076 -0.3249
 2490TIP3    H128961   3.774   5.265   2.627 -1.5361  0.2885 -0.4017
 2490TIP3    H228962   3.892   5.310   2.710  0.2911  1.1077 -3.2992
 2491TIP3   OH228963   2.436   2.294   6.402 -0.2366 -0.3804  0.6068
 2491TIP3    H128964   2.408   2.381   6.374 -0.7098 -0.7697 -0.1546
 2491TIP3    H228965   2.526   2.287   6.370 -0.3333 -0.3218  0.3188
 2492TIP3   OH228966   1.795   2.305   2.650 -0.1136  0.0862  0.4306
 2492TIP3    H128967   1.835   2.231   2.605  0.6705  1.8975 -2.0450
 2492TIP3    H228968   1.710   2.317   2.607  0.0729  1.0293  0.2910
 2493TIP3   OH228969   5.024   1.855  15.336 -0.1780  0.3284 -0.6166
 2493TIP3    H128970   5.001   1.774  15.290  0.5225 -0.3071  0.1112
 2493TIP3    H228971   5.114   1.840  15.365 -0.5809  0.7281  0.8958
 2494TIP3   OH228972   4.194   5.658   2.092 -0.1642  0.2033  0.4075
 2494TIP3    H128973   4.207   5.614   2.176 -1.1362  3.1614  2.2568
 2494TIP3    H228974   4.280   5.695   2.071 -0.0615 -0.0239  0.4269
 2495TIP3   OH228975   3.320   2.420  13.505 -0.1412  0.1167 -0.0591
 2495TIP3    H128976   3.294   2.499  13.458  0.0063  0.6228  0.7108
 2495TIP3    H228977   3.259   2.353  13.474 -1.2224  0.8774  0.3883
 2496TIP3   OH228978   1.591   4.285   6.621 -0.1098  0.1450 -0.0574
 2496TIP3    H128979   1.675   4.297   6.576  0.1302  1.4653  0.6622
 2496TIP3    H228980   1.576   4.191   6.620  0.0516  0.0831 -2.5441
 2497TIP3   OH228981   1.250   2.612   6.537 -0.2335  0.2482 -0.3183
 2497TIP3    H128982   1.165   2.568   6.530 -0.2573  0.1033  0.6711
 2497TIP3    H228983   1.310   2.558   6.487  0.0300 -1.7343  1.9574
 2498TIP3   OH228984   2.097   6.751  10.814 -0.0022 -0.3568  0.1516
 2498TIP3    H128985   2.034   6.727  10.746 -1.9360 -0.6991  1.9619
 2498TIP3    H228986   2.122   6.841  10.793  0.0814 -0.7233 -1.4394
 2499TIP3   OH228987   0.120   4.112  10.563 -0.3153  0.8459 -0.1167
 2499TIP3    H128988   0.091   4.023  10.541  1.9780 -0.0119  0.0292
 2499TIP3    H228989   0.068   4.169  10.506 -3.1695 -0.3671  1.0391
 2500TIP3   OH228990   2.827   2.842   4.008 -0.5591 -0.4615  0.1654
 2500TIP3    H128991   2.871   2.831   3.924  0.2184 -1.0895  0.6375
 2500TIP3    H228992   2.798   2.754   4.031 -1.0253 -0.2427  0.4205
 2501TIP3   OH228993   6.027   5.331  14.284 -0.4180 -0.1808 -0.5444
 2501TIP3    H128994   5.975   5.409  14.302 -1.7745 -0.5783 -2.4698
 2501TIP3    H228995   5.971   5.257  14.310  0.4127 -0.5758  0.2048
 2502TIP3   OH228996   3.117   3.581   3.053  0.6867 -0.2725  0.1260
 2502TIP3    H128997   3.113   3.490   3.022  1.2290 -0.3802  0.3517
 2502TIP3    H228998   3.026   3.608   3.062  0.4629 -1.4903  2.0419
 2503TIP3   OH228999   0.887   3.672   3.341  0.3733  0.0080 -0.5617
 2503TIP3    H129000   0.841   3.756   3.351 -2.8739 -1.7343  0.5329
 2503TIP3    H229001   0.880   3.653   3.247 -1.9552 -0.5659 -0.3183
 2504TIP3   OH229002   1.529   0.663  10.899 -0.0054 -0.1530 -0.2258
 2504TIP3    H129003   1.438   0.662  10.929  0.7095  0.1670  2.1665
 2504TIP3    H229004   1.523   0.675  10.804 -2.4405 -0.2908 -0.1549
 2505TIP3   OH229005   0.261   4.891   0.870 -0.5470 -0.2422 -0.6052
 2505TIP3    H129006   0.170   4.875   0.843 -0.3650 -0.8457 -0.8758
 2505TIP3    H229007   0.307   4.914   0.790 -0.1663 -1.3125 -0.7144
 2506TIP3   OH229008   6.857   2.632   3.514 -0.1797 -0.2248  0.2884
 2506TIP3    H129009   6.826   2.722   3.525  1.1114  0.3236 -0.4068
 2506TIP3    H229010   6.866   2.599   3.603 -0.8347  0.2625  0.5453
 2507TIP3   OH229011   3.606   2.049   5.477 -0.0484 -0.0661 -0.0954
 2507TIP3    H129012   3.526   2.044   5.425 -1.1984 -0.5531  1.6729
 2507TIP3    H229013   3.625   2.143   5.483 -1.4749  0.1820  0.8948
 2508TIP3   OH229014   1.704   0.506   2.976  0.7330  0.2728 -0.4031
 2508TIP3    H129015   1.719   0.494   3.070  1.8206  0.4523 -0.5407
 2508TIP3    H229016   1.636   0.573   2.971  0.8377  0.4364  0.2532
 2509TIP3   OH229017   5.370   3.566  13.889  0.3442 -0.5304 -0.3142
 2509TIP3    H129018   5.385   3.557  13.795  0.6883 -1.0983 -0.2067
 2509TIP3    H229019   5.448   3.611  13.922  0.2451 -0.3742 -0.2881
 2510TIP3   OH229020   3.894   0.529   1.021  0.1549  0.3502 -0.4478
 2510TIP3    H129021   3.968   0.578   1.057  0.7318 -0.0020 -1.1251
 2510TIP3    H229022   3.826   0.595   1.007 -0.4283  0.3726  2.0671
 2511TIP3   OH229023   1.722   1.262  13.653  0.2516  0.0464 -0.2358
 2511TIP3    H129024   1.794   1.270  13.716 -0.9297  0.7557  1.0763
 2511TIP3    H229025   1.723   1.345  13.605 -1.9975  1.7523  2.4054
 2512TIP3   OH229026   2.208   1.172   5.432 -0.1122 -0.0100  0.0930
 2512TIP3    H129027   2.113   1.179   5.420  0.0880  1.0023 -1.0785
 2512TIP3    H229028   2.221   1.082   5.465 -1.3287 -0.7445 -1.2970
 2513TIP3   OH229029   4.775   1.642  11.928 -0.5605  0.1896  0.2853
 2513TIP3    H129030   4.722   1.722  11.935 -1.4817 -0.2216 -1.5154
 2513TIP3    H229031   4.773   1.620  11.835  3.7321  0.7741 -0.1721
 2514TIP3   OH229032   0.462   3.711  12.344 -0.0907  0.3391  0.2251
 2514TIP3    H129033   0.497   3.743  12.428 -1.2867  1.3583  0.3773
 2514TIP3    H229034   0.415   3.786  12.308 -2.3294 -0.9915  0.1826
 2515TIP3   OH229035   3.235   6.303   0.720 -0.3923 -0.0737 -0.1347
 2515TIP3    H129036   3.324   6.325   0.691 -0.7539  0.2407 -1.0508
 2515TIP3    H229037   3.246   6.228   0.778  0.4300 -0.2960 -0.5661
 2516TIP3   OH229038   0.966   0.491  13.960  0.1050 -0.0444  0.1176
 2516TIP3    H129039   0.888   0.436  13.965 -0.2040  0.3997  0.2728
 2516TIP3    H229040   0.933   0.580  13.971  0.4575  0.2725 -1.1282
 2517TIP3   OH229041   6.073   0.520  11.807  0.2217 -0.1447  0.4313
 2517TIP3    H129042   5.980   0.507  11.822 -0.3809 -0.1313 -2.6722
 2517TIP3    H229043   6.111   0.432  11.809 -0.6024 -0.6342 -2.0865
 2518TIP3   OH229044   3.316   0.262   0.749  0.1424  0.0481 -0.1001
 2518TIP3    H129045   3.306   0.275   0.843  0.0768  0.8189 -0.2064
 2518TIP3    H229046   3.283   0.173   0.733 -1.3815  0.5041  0.3678
 2519TIP3   OH229047   2.592   5.707  15.440 -0.2098 -0.1598  0.4348
 2519TIP3    H129048   2.514   5.659  15.415 -0.9387  0.4874  1.3809
 2519TIP3    H229049   2.665   5.650  15.416 -1.0561 -2.7042  3.2591
 2520TIP3   OH229050   3.324   5.013  14.958  0.5057  0.1530 -0.1666
 2520TIP3    H129051   3.279   4.937  14.921  1.6048 -0.5119 -0.1945
 2520TIP3    H229052   3.259   5.083  14.955 -0.7285 -0.9296  0.4131
 2521TIP3   OH229053   6.342   0.053  10.710 -0.0380  0.3186  0.7336
 2521TIP3    H129054   6.268   0.102  10.674  0.8179  0.9753 -0.1680
 2521TIP3    H229055   6.419   0.103  10.684  0.7137 -0.1282  2.0216
 2522TIP3   OH229056   5.921   2.394   1.508 -0.1828 -0.7132  0.4152
 2522TIP3    H129057   5.866   2.342   1.567 -0.4807  0.4763  1.2370
 2522TIP3    H229058   5.976   2.330   1.463  0.8156 -1.6215  2.7565
 2523TIP3   OH229059   2.154   4.499  15.517  0.2287 -0.3958 -0.1097
 2523TIP3    H129060   2.175   4.420  15.565 -1.4757 -0.8898 -0.1204
 2523TIP3    H229061   2.195   4.487  15.431 -2.8883 -2.9376 -1.4028
 2524TIP3   OH229062   1.025   6.759   3.651 -0.1565 -0.0135 -0.0962
 2524TIP3    H129063   1.015   6.678   3.701 -0.6009 -1.1678 -1.9706
 2524TIP3    H229064   1.107   6.797   3.682 -0.1044 -1.0020  1.0315
 2525TIP3   OH229065   2.380   4.141  11.894 -0.3958  0.2551 -0.5269
 2525TIP3    H129066   2.294   4.102  11.877 -0.9895  1.2497  0.0376
 2525TIP3    H229067   2.440   4.067  11.896 -0.8822 -0.2787 -2.9666
 2526TIP3   OH229068   1.686   1.692  15.437 -0.0534 -0.4368  0.4164
 2526TIP3    H129069   1.703   1.776  15.478  1.3091 -0.4109 -0.1327
 2526TIP3    H229070   1.598   1.668  15.465 -1.3293  2.1218 -1.0354
 2527TIP3   OH229071   3.210   6.158  13.292  0.1654 -0.0171  0.1992
 2527TIP3    H129072   3.165   6.129  13.372  2.1722  1.0690  1.8544
 2527TIP3    H229073   3.291   6.199  13.325  0.9061  0.7781 -2.4102
 2528TIP3   OH229074   1.529   5.665  15.712  0.1300  0.0424 -0.1606
 2528TIP3    H129075   1.497   5.755  15.715 -1.5545 -0.5463  1.0555
 2528TIP3    H229076   1.491   5.628  15.632  1.5326  0.6297 -1.1256
 2529TIP3   OH229077   4.097   3.473   3.378 -0.1244 -0.0339  0.3631
 2529TIP3    H129078   4.036   3.531   3.423 -0.1329  0.8726 -0.7576
 2529TIP3    H229079   4.126   3.523   3.302  2.6119 -0.1551  1.2183
 2530TIP3   OH229080   2.367   4.403  15.047  0.3663  0.1251  0.0581
 2530TIP3    H129081   2.334   4.424  14.960  0.7062 -0.0601 -0.1200
 2530TIP3    H229082   2.295   4.423  15.106 -1.2175 -3.2019 -0.5709
 2531TIP3   OH229083   0.709   4.113  13.038 -0.0836  0.6827 -0.0360
 2531TIP3    H129084   0.625   4.141  13.072  0.8515  1.4499  1.7915
 2531TIP3    H229085   0.763   4.100  13.116  1.2866 -0.4641 -1.1248
 2532TIP3   OH229086   1.375   5.998  14.493 -0.1901 -0.4099 -0.0360
 2532TIP3    H129087   1.434   6.037  14.557  1.1372 -2.7314  0.2428
 2532TIP3    H229088   1.310   5.952  14.546 -0.6797 -0.1083 -0.3665
 2533TIP3   OH229089   1.608   0.779   4.106  0.3152 -0.5754 -0.0589
 2533TIP3    H129090   1.644   0.775   4.195  0.9108 -1.1566 -0.3209
 2533TIP3    H229091   1.609   0.689   4.076 -1.8857 -0.7197  0.1105
 2534TIP3   OH229092   6.697   2.800  16.603  0.2583 -0.2598 -0.3327
 2534TIP3    H129093   6.743   2.858  16.543  0.7786 -0.4590 -0.1287
 2534TIP3    H229094   6.732   2.713  16.584 -0.0470 -0.4158 -0.1913
 2535TIP3   OH229095   5.484   3.545   3.884  0.6198 -0.2332  0.3961
 2535TIP3    H129096   5.405   3.597   3.869 -0.0641 -1.4269 -0.2656
 2535TIP3    H229097   5.556   3.605   3.864 -0.1496  0.3865 -0.6051
 2536TIP3   OH229098   4.707   4.917  11.206  0.2331 -0.3765  0.3828
 2536TIP3    H129099   4.722   4.930  11.300 -1.4362 -1.1726  0.7922
 2536TIP3    H229100   4.795   4.912  11.169  0.9538  1.4577  1.6606
 2537TIP3   OH229101   4.469   0.654  15.086 -0.0295  0.0241 -0.1166
 2537TIP3    H129102   4.403   0.719  15.109 -1.0488 -1.0539  0.1170
 2537TIP3    H229103   4.444   0.625  14.998  1.6511  1.4156 -1.1192
 2538TIP3   OH229104   1.285   4.963   0.039  0.3075  0.8556 -0.1819
 2538TIP3    H129105   1.272   4.950  -0.056 -1.9546 -0.1840  0.1977
 2538TIP3    H229106   1.250   5.050   0.056  1.1427  1.2344 -0.3468
 2539TIP3   OH229107   2.769   5.911  16.704  0.3083 -0.7807 -0.0549
 2539TIP3    H129108   2.725   5.881  16.625  2.0626  1.3110 -1.9794
 2539TIP3    H229109   2.731   5.996  16.722  0.3051 -1.0066  1.0634
 2540TIP3   OH229110   3.761   5.000   3.387  0.1336 -0.0796 -0.4581
 2540TIP3    H129111   3.841   5.005   3.334 -0.3724 -0.5225 -1.2873
 2540TIP3    H229112   3.793   4.996   3.477  0.9965  1.8155 -0.6264
 2541TIP3   OH229113   0.446   1.948   4.967  0.0198 -0.1880 -0.7756
 2541TIP3    H129114   0.423   1.946   5.060  0.5414  0.7853 -0.6177
 2541TIP3    H229115   0.525   2.002   4.963 -1.6564  2.3237 -2.1528
 2542TIP3   OH229116   5.366   4.241  15.620  0.1468  0.3269 -0.3225
 2542TIP3    H129117   5.422   4.167  15.645  0.5576  1.4052  2.3832
 2542TIP3    H229118   5.279   4.202  15.606  0.9690 -1.0235 -2.0809
 2543TIP3   OH229119   5.345   5.848  16.037  0.8471  0.0833 -0.5257
 2543TIP3    H129120   5.361   5.764  16.079  0.5064 -0.0476 -0.6526
 2543TIP3    H229121   5.293   5.826  15.959 -1.4883  0.6448  0.7810
 2544TIP3   OH229122   5.794   6.003   5.810 -0.5979  0.1989 -0.3581
 2544TIP3    H129123   5.793   5.926   5.866  1.4362  1.4786  1.6204
 2544TIP3    H229124   5.764   6.074   5.867  1.0805  1.4701 -0.9749
 2545TIP3   OH229125   4.033   4.444   4.481  0.0662  0.3905 -0.9279
 2545TIP3    H129126   3.997   4.423   4.567  0.6998  2.2493 -0.1468
 2545TIP3    H229127   3.964   4.421   4.419  0.2582 -2.6897 -0.1422
 2546TIP3   OH229128   4.767   5.362   5.376 -0.2579 -0.1733  0.9906
 2546TIP3    H129129   4.733   5.348   5.464  0.1435  1.6859  1.4704
 2546TIP3    H229130   4.815   5.281   5.356 -0.8320 -0.8501  2.2280
 2547TIP3   OH229131   0.938   5.741   5.578  0.2195  0.1063 -0.0208
 2547TIP3    H129132   1.018   5.724   5.627  0.2343 -0.1770 -0.1415
 2547TIP3    H229133   0.901   5.820   5.619  0.6921  0.3888 -0.1342
 2548TIP3   OH229134   2.344   3.476  13.076 -0.5756 -0.6210  0.6465
 2548TIP3    H129135   2.429   3.435  13.090 -0.5336 -0.7829 -0.0694
 2548TIP3    H229136   2.285   3.404  13.054 -0.1598 -0.2196 -2.2232
 2549TIP3   OH229137   0.138   6.624   5.644 -0.8244 -0.2554 -0.2550
 2549TIP3    H129138   0.056   6.593   5.683 -1.1316  0.0351 -0.6584
 2549TIP3    H229139   0.123   6.615   5.549  0.2533 -1.8587 -0.3015
 2550TIP3   OH229140   3.638   2.002  13.979 -1.0258 -0.3354  0.0454
 2550TIP3    H129141   3.732   2.012  13.996 -0.8391  0.3736 -1.2584
 2550TIP3    H229142   3.607   1.944  14.048  0.0582  0.6844  1.4392
 2551TIP3   OH229143   4.405   2.411  16.461  0.0489 -0.3748  0.1567
 2551TIP3    H129144   4.408   2.386  16.368  0.8390  2.3021 -0.6337
 2551TIP3    H229145   4.474   2.359  16.501  0.4918 -0.7365 -1.0117
 2552TIP3   OH229146   2.445   1.482  13.249 -0.1526  0.4740  0.2024
 2552TIP3    H129147   2.391   1.404  13.243  0.1968  0.2840 -0.6985
 2552TIP3    H229148   2.524   1.453  13.294 -0.8051  0.7693  1.5871
 2553TIP3   OH229149   5.869   5.310  16.308  0.1180  0.3503  0.0603
 2553TIP3    H129150   5.941   5.370  16.291  0.0716  0.1279 -1.0667
 2553TIP3    H229151   5.803   5.363  16.352  0.0429  1.1614 -0.9865
 2554TIP3   OH229152   2.008   1.041   1.744 -0.9979  0.3173 -0.2460
 2554TIP3    H129153   2.068   0.983   1.791 -0.0236  2.2343  1.0226
 2554TIP3    H229154   1.967   0.985   1.679 -0.3843 -1.8508  1.1240
 2555TIP3   OH229155   4.533   3.778  14.945 -0.5241  0.0925 -0.4118
 2555TIP3    H129156   4.572   3.831  14.876  1.2837 -0.5153  0.0828
 2555TIP3    H229157   4.533   3.689  14.910 -0.8566 -0.0129 -0.1459
 2556TIP3   OH229158   6.863   0.822  14.143  0.2705 -0.0792  0.4793
 2556TIP3    H129159   6.921   0.815  14.219 -0.3788 -0.5290  0.9448
 2556TIP3    H229160   6.834   0.732  14.126  0.0297  0.0828  0.0026
 2557TIP3   OH229161   2.599   6.220   2.002 -0.6522 -0.1239 -0.1918
 2557TIP3    H129162   2.538   6.285   1.967 -0.8595 -0.5713 -0.6831
 2557TIP3    H229163   2.631   6.173   1.925  0.3847  0.1528  0.0425
 2558TIP3   OH229164   6.525   5.836  15.907  0.1379 -0.1089 -0.1169
 2558TIP3    H129165   6.448   5.861  15.854 -0.0176 -0.3338  0.0047
 2558TIP3    H229166   6.598   5.880  15.864 -0.2261  1.1719  0.5080
 2559TIP3   OH229167   3.584   5.979  15.626  0.4335  0.2724  0.5332
 2559TIP3    H129168   3.571   6.019  15.712 -1.4471 -1.3918  1.0953
 2559TIP3    H229169   3.522   6.025  15.569  1.6817  1.3775 -0.0047
 2560TIP3   OH229170   4.146   3.200   4.105 -0.4700 -0.0624  0.5089
 2560TIP3    H129171   4.148   3.296   4.107  0.0733 -0.0654  2.5192
 2560TIP3    H229172   4.060   3.178   4.141  0.4782 -0.2864  2.8135
 2561TIP3   OH229173   6.830   6.130   6.015  0.5832 -0.4014 -0.1475
 2561TIP3    H129174   6.793   6.049   5.981  0.0831 -1.0259  1.7717
 2561TIP3    H229175   6.797   6.136   6.105  1.2168  1.5468  0.0074
 2562TIP3   OH229176   5.888   5.556   4.525 -0.6764  0.3353 -0.0941
 2562TIP3    H129177   5.907   5.507   4.605  1.0987  0.3037 -0.5033
 2562TIP3    H229178   5.858   5.642   4.556  3.1095  1.5535  0.7511
 2563TIP3   OH229179   1.224   5.442  16.798  0.1791 -1.1172 -0.1821
 2563TIP3    H129180   1.134   5.417  16.777  0.0222 -2.4809  1.8386
 2563TIP3    H229181   1.278   5.372  16.760  0.0771 -2.1906  1.5296
 2564TIP3   OH229182   3.444   2.069   2.936  0.0562  0.6685 -0.4926
 2564TIP3    H129183   3.378   2.042   3.000  1.1624  1.5251  1.0547
 2564TIP3    H229184   3.421   2.020   2.857 -0.8020 -1.1469  0.8056
 2565TIP3   OH229185   3.137   5.336  15.978  0.0652  0.6569 -0.1633
 2565TIP3    H129186   3.073   5.362  16.045 -0.5981 -0.1234 -0.4719
 2565TIP3    H229187   3.213   5.306  16.028 -0.1122  0.8568  0.2321
 2566TIP3   OH229188   5.680   0.292  13.610 -0.1449 -0.1851  0.0744
 2566TIP3    H129189   5.666   0.199  13.595 -1.8893 -0.2072  1.5733
 2566TIP3    H229190   5.767   0.297  13.651 -0.3337 -1.2124  0.6165
 2567TIP3   OH229191   2.198   6.050  11.128  0.3320  0.5562 -0.6007
 2567TIP3    H129192   2.110   6.085  11.143  0.2445  0.5278 -1.0501
 2567TIP3    H229193   2.229   6.028  11.216  0.0995  1.0596 -0.3904
 2568TIP3   OH229194   1.252   0.304   1.462 -0.4068 -0.1703  0.3106
 2568TIP3    H129195   1.199   0.236   1.420  1.4877 -0.1608 -2.3929
 2568TIP3    H229196   1.343   0.277   1.447  0.3836  2.0759  0.6642
 2569TIP3   OH229197   6.317   2.907   4.603  0.3063  0.0413 -0.3972
 2569TIP3    H129198   6.401   2.890   4.647  0.2414  0.3718 -0.1351
 2569TIP3    H229199   6.272   2.823   4.604 -0.4874  0.4126  1.8967
 2570TIP3   OH229200   3.863   3.558  15.073 -0.0676 -0.1684  0.0317
 2570TIP3    H129201   3.802   3.591  15.138  0.9521  2.2710 -0.1555
 2570TIP3    H229202   3.942   3.537  15.123  0.5864  1.3512 -0.3070
 2571TIP3   OH229203   0.526   3.780   6.254  0.8025  0.2936  0.4374
 2571TIP3    H129204   0.521   3.729   6.335 -0.5481  0.9199  0.7669
 2571TIP3    H229205   0.620   3.792   6.240  1.0617  0.9605  2.4152
 2572TIP3   OH229206   3.056   4.440   4.254 -0.2121 -0.1448 -0.5581
 2572TIP3    H129207   3.079   4.361   4.205 -1.0054 -1.7597  1.5320
 2572TIP3    H229208   3.131   4.456   4.311 -0.3913  0.1564 -0.4043
 2573TIP3   OH229209   0.308   6.258   5.109  0.0333 -0.2094 -0.7121
 2573TIP3    H129210   0.331   6.326   5.171  0.7795  0.4808 -1.7152
 2573TIP3    H229211   0.215   6.240   5.126 -0.1248  0.9176 -0.3137
 2574TIP3   OH229212   1.098   2.729  13.585 -0.6329 -0.0514  0.5398
 2574TIP3    H129213   1.144   2.678  13.652  0.8817 -1.1175 -1.2383
 2574TIP3    H229214   1.164   2.790  13.552 -1.2270  0.1499 -0.3071
 2575TIP3   OH229215   6.624   5.837   4.905 -0.7118  0.0199  0.1301
 2575TIP3    H129216   6.681   5.771   4.944 -0.6194 -0.4596 -0.8164
 2575TIP3    H229217   6.664   5.859   4.822 -0.6124  1.4562  0.5186
 2576TIP3   OH229218   5.054   0.531  13.729  0.0196  0.0279  0.6285
 2576TIP3    H129219   5.065   0.588  13.653 -1.5213  2.1627  1.8995
 2576TIP3    H229220   5.117   0.460  13.715  3.5448  2.9825 -0.1578
 2577TIP3   OH229221   2.852   0.908  14.389 -0.0846  0.1476 -0.3525
 2577TIP3    H129222   2.893   0.984  14.350 -0.2317  0.7277  0.5916
 2577TIP3    H229223   2.908   0.884  14.462 -0.7071  0.1359  0.1347
 2578TIP3   OH229224   3.264   1.875   1.915 -1.0672 -0.1784  0.1361
 2578TIP3    H129225   3.169   1.890   1.910 -1.1279 -0.7547 -0.5896
 2578TIP3    H229226   3.298   1.904   1.831 -0.5559  0.2650  0.4912
 2579TIP3   OH229227   6.104   5.777  15.580 -0.5150  0.2864 -0.3050
 2579TIP3    H129228   6.077   5.693  15.543 -0.6243  0.5184 -0.7701
 2579TIP3    H229229   6.144   5.823  15.506  0.0153  0.4382  0.0750
 2580TIP3   OH229230   2.117   2.181  13.795  0.2750 -0.7903  0.4907
 2580TIP3    H129231   2.157   2.094  13.789  1.4715 -0.2017 -1.0503
 2580TIP3    H229232   2.161   2.223  13.869  0.0404 -1.3270  0.9391
 2581TIP3   OH229233   2.227   2.598  15.058  0.7056 -0.1978 -0.1630
 2581TIP3    H129234   2.152   2.585  15.116  0.9253  1.2976  0.4819
 2581TIP3    H229235   2.224   2.522  14.999 -1.3302 -0.1674 -0.1837
 2582TIP3   OH229236   0.845   1.074   4.861  0.3703  0.3108  0.4315
 2582TIP3    H129237   0.850   0.988   4.821  0.7223  0.4615  0.1492
 2582TIP3    H229238   0.797   1.128   4.798  0.9812  0.5639  0.1709
 2583TIP3   OH229239   6.255   4.516   4.951  0.0115 -0.3090 -0.5807
 2583TIP3    H129240   6.310   4.491   5.025 -0.1109 -1.2425 -0.7820
 2583TIP3    H229241   6.203   4.590   4.982  0.2867 -0.4075  0.1151
 2584TIP3   OH229242   5.027   2.765  15.061  0.1198  0.1521 -0.0856
 2584TIP3    H129243   5.024   2.834  14.995 -0.5513  0.5199  0.3160
 2584TIP3    H229244   5.017   2.684  15.012  0.9185  0.3438 -0.5630
 2585TIP3   OH229245   6.145   3.806   5.071 -0.2215  0.2354  0.7327
 2585TIP3    H129246   6.153   3.874   5.005  4.1304 -1.1680 -0.5823
 2585TIP3    H229247   6.116   3.729   5.022  0.3048 -0.1281  0.9757
 2586TIP3   OH229248   1.758   4.697   5.455  0.3333 -0.4572  0.2207
 2586TIP3    H129249   1.704   4.774   5.438  1.6095  0.6229  0.8366
 2586TIP3    H229250   1.735   4.670   5.543  1.5035  0.6535  0.8984
 2587TIP3   OH229251   1.070   4.256   0.467 -0.3117 -0.3599  0.4836
 2587TIP3    H129252   1.061   4.327   0.530 -0.0029 -0.0243  0.1568
 2587TIP3    H229253   1.116   4.296   0.393 -2.5118 -0.1605 -0.8827
 2588TIP3   OH229254   5.906   2.350  16.360 -0.6066 -0.0874 -0.5812
 2588TIP3    H129255   5.933   2.378  16.272 -3.0735  0.5622 -1.1994
 2588TIP3    H229256   5.921   2.427  16.415 -3.1657  1.1142 -1.3940
 2589TIP3   OH229257   1.470   0.079  11.546  0.3901 -0.3982 -0.0081
 2589TIP3    H129258   1.531   0.007  11.562  0.4118 -0.0841  1.4684
 2589TIP3    H229259   1.513   0.156  11.582 -0.9322 -0.2016  1.2291
 2590TIP3   OH229260   6.604   3.947  14.308 -0.2183 -0.1469  0.0659
 2590TIP3    H129261   6.514   3.971  14.287  0.1813  1.6380  0.2221
 2590TIP3    H229262   6.616   3.861  14.269 -1.1069  0.7982 -2.4789
 2591TIP3   OH229263   2.296   1.433  15.803  0.1118 -0.0421 -0.1440
 2591TIP3    H129264   2.207   1.464  15.818 -0.0025 -1.1214  1.6294
 2591TIP3    H229265   2.352   1.504  15.835 -0.1141 -0.0061  0.1653
 2592TIP3   OH229266   5.205   4.822  16.679 -0.3941  0.0950 -0.3048
 2592TIP3    H129267   5.296   4.847  16.696 -0.1675 -1.0665  0.3137
 2592TIP3    H229268   5.166   4.898  16.636  0.7755  0.7349 -0.2565
 2593TIP3   OH229269   2.334   5.287   3.527  0.2081 -0.7297  0.1355
 2593TIP3    H129270   2.246   5.278   3.490  0.3206 -1.8857  0.1146
 2593TIP3    H229271   2.362   5.374   3.501  0.0461 -1.2753 -2.0007
 2594TIP3   OH229272   6.511   0.133   2.140 -0.3324  0.0384  0.3148
 2594TIP3    H129273   6.425   0.119   2.100  0.2249  1.0977 -1.3747
 2594TIP3    H229274   6.572   0.127   2.067  1.3566 -2.9178  1.7704
 2595TIP3   OH229275   1.839   5.937  14.178  0.3747  0.0876  0.0175
 2595TIP3    H129276   1.848   5.997  14.104  0.3833  0.8274  0.5982
 2595TIP3    H229277   1.746   5.914  14.181  0.3149  0.3269 -0.0194
 2596TIP3   OH229278   2.551   5.991   0.608 -0.1227 -0.0427 -0.2055
 2596TIP3    H129279   2.509   5.986   0.694  0.1540  0.6078 -0.0292
 2596TIP3    H229280   2.570   6.084   0.595 -2.5078  0.2961 -2.1121
 2597TIP3   OH229281   6.210   6.796  11.237 -0.0621  0.0728  0.2458
 2597TIP3    H129282   6.288   6.816  11.290  0.5315 -3.9342  1.2635
 2597TIP3    H229283   6.155   6.744  11.296 -1.5585 -0.6876 -1.7320
 2598TIP3   OH229284   4.670   6.761  16.976  0.2031  0.4104  0.4102
 2598TIP3    H129285   4.574   6.764  16.973  0.1067 -1.1171  1.1234
 2598TIP3    H229286   4.696   6.743  16.886 -0.2101  0.2655  0.3184
 2599TIP3   OH229287   4.187   1.507   1.678 -0.2885 -0.4664  0.7401
 2599TIP3    H129288   4.107   1.503   1.626  1.2283  1.4388 -2.0145
 2599TIP3    H229289   4.159   1.542   1.763 -2.6939 -2.5124  0.8985
 2600TIP3   OH229290   0.264   4.885   0.209 -0.3097 -0.1923  0.5018
 2600TIP3    H129291   0.220   4.824   0.150  2.6352 -2.2809  0.2453
 2600TIP3    H229292   0.221   4.873   0.293 -1.5783 -0.5274 -0.1700
 2601TIP3   OH229293   0.583   4.940  15.317 -0.0448 -0.0818  0.2646
 2601TIP3    H129294   0.580   5.011  15.381 -2.7961 -0.2772  0.4981
 2601TIP3    H229295   0.585   4.860  15.370  0.5968 -0.2275  0.0327
 2602TIP3   OH229296   0.629   3.215   0.559 -0.2587 -0.1983  0.5154
 2602TIP3    H129297   0.703   3.266   0.526 -1.5004  1.6353  0.3981
 2602TIP3    H229298   0.624   3.139   0.501  0.6546  0.3890 -0.3646
 2603TIP3   OH229299   0.990   2.176   2.517  0.2079 -0.1222  0.4796
 2603TIP3    H129300   1.072   2.212   2.484  0.2267  0.5244  1.1950
 2603TIP3    H229301   0.997   2.182   2.613 -0.3618 -0.7647  0.5751
 2604TIP3   OH229302   2.783   1.636   3.607 -0.1598  0.5939 -0.2352
 2604TIP3    H129303   2.731   1.678   3.539 -0.4316  1.1773  0.3173
 2604TIP3    H229304   2.770   1.542   3.593 -1.7483  0.7184  0.1529
 2605TIP3   OH229305   2.822   2.176   2.211 -0.2555 -0.0346 -0.1123
 2605TIP3    H129306   2.895   2.115   2.206  0.2834  0.6365 -0.7761
 2605TIP3    H229307   2.771   2.159   2.131  0.6483  1.2656 -1.0153
 2606TIP3   OH229308   6.497   0.660   5.622 -1.0983 -0.4174  0.1318
 2606TIP3    H129309   6.573   0.601   5.626 -0.7963 -0.0796 -0.4923
 2606TIP3    H229310   6.516   0.718   5.548 -1.5454  0.2596  0.5442
 2607TIP3   OH229311   2.147   3.475  13.341 -0.0125  0.3132  0.1021
 2607TIP3    H129312   2.240   3.483  13.364  0.4402 -1.6378 -0.8839
 2607TIP3    H229313   2.146   3.469  13.246 -0.9218 -1.7828  0.1925
 2608TIP3   OH229314   5.449   3.844   0.662  0.3104 -0.6313  0.1482
 2608TIP3    H129315   5.422   3.900   0.589  3.0897  3.1478  1.6350
 2608TIP3    H229316   5.375   3.786   0.677 -1.7675  0.7675 -3.3853
 2609TIP3   OH229317   6.374   1.261   5.092  0.3283  0.0319 -0.7431
 2609TIP3    H129318   6.418   1.273   5.007  1.3580  1.7678 -0.0122
 2609TIP3    H229319   6.397   1.171   5.118  2.1942  0.3560 -1.1286
 2610TIP3   OH229320   4.657   2.441  14.112 -0.7512  0.1429  0.0576
 2610TIP3    H129321   4.735   2.490  14.085 -1.5042  0.8167 -0.9385
 2610TIP3    H229322   4.692   2.359  14.149  0.4066  0.2183 -0.8246
 2611TIP3   OH229323   5.790   3.271  11.931  0.2225  0.1196 -0.0923
 2611TIP3    H129324   5.779   3.236  11.842 -1.8962  0.8408 -0.1765
 2611TIP3    H229325   5.761   3.362  11.924  0.8280  0.4187  1.1749
 2612TIP3   OH229326   4.456   1.215  11.396 -0.5715 -0.6291  0.1595
 2612TIP3    H129327   4.368   1.207  11.358 -0.6603  1.9853 -0.3957
 2612TIP3    H229328   4.441   1.255  11.482  0.0457 -0.3686  0.1502
 2613TIP3   OH229329   2.679   0.782  11.284  0.3753 -0.1721  0.2167
 2613TIP3    H129330   2.737   0.846  11.324  0.6702 -0.6926  0.6223
 2613TIP3    H229331   2.595   0.795  11.328  0.4086 -0.0002  0.2300
 2614TIP3   OH229332   3.388   1.643  13.961  0.0433 -0.0118 -0.5288
 2614TIP3    H129333   3.361   1.733  13.977 -0.6516 -0.2897 -0.1137
 2614TIP3    H229334   3.422   1.644  13.871  0.4199  0.7426 -0.3885
 2615TIP3   OH229335   0.641   5.813  12.012 -0.1637 -0.1845  0.4080
 2615TIP3    H129336   0.638   5.820  11.916  2.0463 -0.3829  0.2824
 2615TIP3    H229337   0.689   5.732  12.029 -2.8560 -1.6301  1.7596
 2616TIP3   OH229338   5.088   6.852   0.487  0.3677  1.1106 -0.2908
 2616TIP3    H129339   5.168   6.799   0.490 -0.6408 -0.4911 -0.3070
 2616TIP3    H229340   5.105   6.918   0.419  1.4796  0.4522 -0.6740
 2617TIP3   OH229341   6.118   1.024  11.639  0.0872 -0.1219 -0.5012
 2617TIP3    H129342   6.107   0.962  11.711  0.1440 -1.2836 -1.4470
 2617TIP3    H229343   6.165   1.098  11.677 -1.3756  0.0728  1.0330
 2618TIP3   OH229344   0.583   4.237  14.954  0.0006  0.1047 -0.0070
 2618TIP3    H129345   0.494   4.253  14.924 -0.2887  2.0176  1.6495
 2618TIP3    H229346   0.573   4.185  15.033  0.2993  0.7037  0.4365
 2619TIP3   OH229347   1.711   2.673   5.691  0.0013  0.4401  0.0722
 2619TIP3    H129348   1.765   2.717   5.626  0.9883  0.9741  1.2166
 2619TIP3    H229349   1.697   2.738   5.759 -0.7382 -0.2065  0.5620
 2620TIP3   OH229350   3.466   4.982  10.592  0.8514  0.0190  0.2328
 2620TIP3    H129351   3.497   5.009  10.506 -0.9551 -0.7040 -0.6989
 2620TIP3    H229352   3.428   5.062  10.630  3.6216  0.9232  1.3998
 2621TIP3   OH229353   0.859   1.995   5.269 -0.0147  0.1705  0.2416
 2621TIP3    H129354   0.768   2.023   5.260 -0.7130 -1.8225  0.6087
 2621TIP3    H229355   0.873   1.934   5.197  0.5779 -0.6489  1.0370
 2622TIP3   OH229356   2.866   1.210  16.289 -0.2748 -0.2821  0.3293
 2622TIP3    H129357   2.941   1.156  16.313  0.8189 -0.0085 -2.1389
 2622TIP3    H229358   2.810   1.152  16.237 -0.4187  0.2076 -0.0740
 2623TIP3   OH229359   1.214   5.501   4.961 -0.9336  0.5798 -0.4330
 2623TIP3    H129360   1.214   5.407   4.945  2.1876  0.2532  0.8233
 2623TIP3    H229361   1.276   5.536   4.897  1.4963  1.0519  2.0146
 2624TIP3   OH229362   0.232   1.932  13.235 -0.0582  0.2877 -0.3484
 2624TIP3    H129363   0.279   2.014  13.249  0.4747  0.1104 -1.0324
 2624TIP3    H229364   0.185   1.945  13.153 -0.5040  0.1407 -0.1218
 2625TIP3   OH229365   6.544   2.483  16.941 -0.3015  0.0907 -0.0473
 2625TIP3    H129366   6.593   2.483  17.023  0.2263  1.0291 -0.3463
 2625TIP3    H229367   6.529   2.576  16.923  1.5231  0.0435 -2.1371
 2626TIP3   OH229368   2.833   6.481  11.292  0.1775 -0.0467  0.5887
 2626TIP3    H129369   2.755   6.479  11.236  0.6795 -1.5555 -0.1064
 2626TIP3    H229370   2.898   6.429  11.245  1.0464 -0.2457  1.9540
 2627TIP3   OH229371   3.406   2.928   0.872 -0.2850  0.4165 -0.0491
 2627TIP3    H129372   3.360   2.933   0.788  1.0975 -1.8820 -1.0497
 2627TIP3    H229373   3.479   2.989   0.862 -0.1423  0.1757 -0.5330
 2628TIP3   OH229374   2.984   0.607   1.549  0.2591  0.4886  0.6676
 2628TIP3    H129375   3.002   0.689   1.503  0.7624  0.8554  1.5043
 2628TIP3    H229376   2.913   0.567   1.499  2.3976 -0.3639 -1.9584
 2629TIP3   OH229377   1.110   2.933  11.443  0.4976 -0.4424  0.2602
 2629TIP3    H129378   1.093   2.982  11.523 -0.0974 -1.6578  0.8996
 2629TIP3    H229379   1.165   2.860  11.471  0.8825 -0.4832 -0.5767
 2630TIP3   OH229380   2.726   6.031  15.741  0.4450  0.5976  0.3524
 2630TIP3    H129381   2.668   5.978  15.687  0.1568  2.3520 -1.1649
 2630TIP3    H229382   2.671   6.061  15.813 -0.1387  0.9952 -0.2463
 2631TIP3   OH229383   0.214   0.137  10.548  0.7660 -0.2836  0.9633
 2631TIP3    H129384   0.143   0.184  10.592  0.3281  1.4788 -1.3943
 2631TIP3    H229385   0.293   0.185  10.570  1.2500 -1.9741  3.2134
 2632TIP3   OH229386   2.446   3.886  10.337 -0.3254 -0.2903  0.4638
 2632TIP3    H129387   2.405   3.971  10.351  1.8640  1.2524 -1.6910
 2632TIP3    H229388   2.538   3.898  10.362  0.8461 -0.9034 -2.9042
 2633TIP3   OH229389   0.190   2.974   0.695 -0.0769  0.3307 -0.0298
 2633TIP3    H129390   0.175   2.914   0.768  0.2350  0.2835  0.0007
 2633TIP3    H229391   0.272   2.943   0.656 -0.9991 -0.5935 -1.3332
 2634TIP3   OH229392   6.754   2.143   0.052 -0.3592  0.0644  0.0144
 2634TIP3    H129393   6.799   2.103  -0.023  0.1594 -1.7706  1.2570
 2634TIP3    H229394   6.701   2.073   0.088 -1.8679  1.3783  0.4361
 2635TIP3   OH229395   0.753   3.946   2.640  0.6686  0.1609 -0.2731
 2635TIP3    H129396   0.714   3.887   2.704 -3.0215  0.5169 -1.9005
 2635TIP3    H229397   0.748   4.032   2.681  1.3809 -0.0113  0.1852
 2636TIP3   OH229398   0.620   6.261  16.408  0.5463 -0.0223  0.1844
 2636TIP3    H129399   0.585   6.172  16.408  0.3830  0.0356  1.0079
 2636TIP3    H229400   0.605   6.293  16.496  0.9814  0.6802  0.0149
 2637TIP3   OH229401   1.858   0.652  10.822  0.1310  0.0976  0.0971
 2637TIP3    H129402   1.792   0.699  10.771  0.8324 -0.1101 -1.0428
 2637TIP3    H229403   1.909   0.721  10.864 -0.4497  0.2733  0.5248
 2638TIP3   OH229404   5.570   2.808   4.796 -0.1154  0.0957 -0.1606
 2638TIP3    H129405   5.475   2.805   4.798 -0.1568  1.3953  0.2598
 2638TIP3    H229406   5.592   2.793   4.704 -0.6975 -0.5460 -0.2039
 2639TIP3   OH229407   6.866   2.481   3.761  0.0432 -0.0228  0.3966
 2639TIP3    H129408   6.953   2.517   3.775  0.9212 -1.8180 -0.1744
 2639TIP3    H229409   6.839   2.449   3.848  0.6617 -0.9230  0.2680
 2640TIP3   OH229410   3.926   6.105   1.972  0.0623  0.1680 -0.2350
 2640TIP3    H129411   3.864   6.048   2.019 -0.3705  0.4768 -0.4230
 2640TIP3    H229412   3.878   6.134   1.895  1.4005 -1.8587 -1.9303
 2641TIP3   OH229413   3.082   2.728  10.881 -0.6730  0.1322 -0.2277
 2641TIP3    H129414   3.111   2.683  10.801  0.5072 -0.4798  0.5188
 2641TIP3    H229415   2.988   2.713  10.884 -0.3371 -2.3618 -0.0062
 2642TIP3   OH229416   6.410   3.215  13.061 -0.0057 -0.5722 -0.0591
 2642TIP3    H129417   6.490   3.262  13.041  0.0729 -0.2724  0.8930
 2642TIP3    H229418   6.356   3.224  12.983 -1.0191  3.2620  0.8936
 2643TIP3   OH229419   6.848   1.364  15.783 -0.3039  0.0368  0.5703
 2643TIP3    H129420   6.864   1.322  15.867  0.7892  0.1867  0.4568
 2643TIP3    H229421   6.931   1.354  15.736 -0.5145  1.0181 -0.0239
 2644TIP3   OH229422   2.562   3.560   0.468  0.3686  0.4137  0.6397
 2644TIP3    H129423   2.595   3.498   0.403  1.1166  0.4874  0.9401
 2644TIP3    H229424   2.640   3.586   0.518  0.1114  1.7640  0.3778
 2645TIP3   OH229425   4.908   3.483  16.822  0.5678  0.3373 -0.6577
 2645TIP3    H129426   4.912   3.427  16.899 -0.4807 -1.3601 -1.7879
 2645TIP3    H229427   4.975   3.550  16.838  1.4285 -0.8588  1.0152
 2646TIP3   OH229428   3.647   4.915  10.790 -0.1277  0.0071 -0.0002
 2646TIP3    H129429   3.715   4.973  10.757 -1.1363 -0.4688 -3.3554
 2646TIP3    H229430   3.576   4.923  10.726 -2.2694 -1.2959  2.0487
 2647TIP3   OH229431   6.418   5.420  14.554  0.1010  0.6970  0.0264
 2647TIP3    H129432   6.447   5.403  14.644  2.1423  1.7785 -0.3579
 2647TIP3    H229433   6.490   5.388  14.500 -1.2193 -0.1890 -1.2659
 2648TIP3   OH229434   0.925   0.963   3.751 -0.0232 -0.0590  0.0826
 2648TIP3    H129435   0.894   1.051   3.731 -1.7342 -1.0460 -2.0293
 2648TIP3    H229436   0.857   0.926   3.807  1.3498  0.3440  2.1141
 2649TIP3   OH229437   0.102   4.274  13.338 -0.2846 -0.1028 -0.2317
 2649TIP3    H129438   0.064   4.197  13.381 -0.6896 -0.4933 -1.2648
 2649TIP3    H229439   0.130   4.243  13.253  0.4311  0.6866 -0.2933
 2650TIP3   OH229440   4.877   3.572   1.407 -0.2525 -0.4089  0.0179
 2650TIP3    H129441   4.970   3.582   1.389 -0.3837 -1.3717 -1.3095
 2650TIP3    H229442   4.834   3.636   1.349 -0.4447 -0.3683  0.2029
 2651TIP3   OH229443   5.785   2.099  16.118 -0.1746  0.2847 -0.2653
 2651TIP3    H129444   5.726   2.079  16.191  1.3915  1.7169  1.4840
 2651TIP3    H229445   5.756   2.183  16.085 -1.3214 -0.6793 -1.8368
 2652TIP3   OH229446   3.327   3.957   0.262 -0.3599  0.5889  0.4726
 2652TIP3    H129447   3.356   3.983   0.175  0.1715  2.4905  1.1689
 2652TIP3    H229448   3.352   3.864   0.269 -0.4390  0.3929 -1.3799
 2653TIP3   OH229449   5.738   2.211   0.047  0.4311 -0.1039  0.1480
 2653TIP3    H129450   5.783   2.200  -0.037  0.1697  1.3890 -0.2000
 2653TIP3    H229451   5.755   2.301   0.073 -0.3239 -0.2464  1.2250
 2654TIP3   OH229452   4.408   6.273   1.180 -0.1064  0.6861 -0.5561
 2654TIP3    H129453   4.489   6.288   1.228 -0.0356 -0.2712 -0.3406
 2654TIP3    H229454   4.350   6.344   1.208  0.5650  1.2348 -0.5201
 2655TIP3   OH229455   5.428   4.952   5.537  0.2186  0.2694  0.3150
 2655TIP3    H129456   5.347   4.937   5.586  0.2406 -0.4872  0.1277
 2655TIP3    H229457   5.400   4.959   5.446  0.4470 -0.9095  0.1372
 2656TIP3   OH229458   2.006   6.723  14.398 -0.1230 -0.0581  0.3916
 2656TIP3    H129459   2.092   6.758  14.373  0.7039 -1.4672  1.1453
 2656TIP3    H229460   1.980   6.669  14.324 -0.6079  0.7489 -0.0436
 2657TIP3   OH229461   3.791   4.403  16.167 -0.5256  0.5437 -0.0198
 2657TIP3    H129462   3.792   4.325  16.223  1.8909 -0.0107 -0.7495
 2657TIP3    H229463   3.700   4.408  16.136 -1.0739 -1.1666  1.1293
 2658TIP3   OH229464   1.615   0.155  11.055 -0.0876  0.4959  0.0438
 2658TIP3    H129465   1.664   0.073  11.061 -1.1306 -0.1414  0.0242
 2658TIP3    H229466   1.653   0.211  11.124  2.1916  0.8844 -1.3984
 2659TIP3   OH229467   1.705   2.153   3.417  0.1978 -0.1413  0.3082
 2659TIP3    H129468   1.710   2.188   3.328  0.5862  0.0077  0.3862
 2659TIP3    H229469   1.612   2.151   3.437  0.0774 -0.6867 -0.3023
 2660TIP3   OH229470   6.046   3.336  11.677 -0.1111 -0.1009 -0.4386
 2660TIP3    H129471   6.086   3.292  11.752 -1.4101  1.0311  0.9892
 2660TIP3    H229472   6.004   3.265  11.627 -2.1524 -0.5985  1.7946
 2661TIP3   OH229473   2.317   1.996   1.895 -0.7647  0.4179 -0.2845
 2661TIP3    H129474   2.389   1.938   1.920 -2.2645 -1.5709 -0.3690
 2661TIP3    H229475   2.343   2.082   1.929  2.2141  0.0904 -1.4121
 2662TIP3   OH229476   6.531   0.118   3.304 -0.2308  0.1278  0.4299
 2662TIP3    H129477   6.508   0.035   3.346 -2.2633 -0.0000 -0.8106
 2662TIP3    H229478   6.551   0.176   3.377 -0.8953 -0.8684  1.4455
 2663TIP3   OH229479   2.476   2.373  13.723 -0.3630 -0.3010 -0.5209
 2663TIP3    H129480   2.536   2.380  13.648 -1.1457 -1.7032 -1.3258
 2663TIP3    H229481   2.435   2.459  13.729  0.0746 -0.0142 -1.3893
 2664TIP3   OH229482   6.060   6.229  15.955 -0.3563  0.2112 -0.5132
 2664TIP3    H129483   6.037   6.270  15.872 -0.3545 -0.4754 -0.8605
 2664TIP3    H229484   6.061   6.301  16.018  1.3596  1.0340 -1.4267
 2665TIP3   OH229485   1.764   2.485  16.792 -0.8694  0.1562 -0.4210
 2665TIP3    H129486   1.754   2.548  16.863 -1.4700 -0.8915  0.4505
 2665TIP3    H229487   1.825   2.527  16.732 -1.0248  1.4384  0.2760
 2666TIP3   OH229488   5.241   0.207   1.789 -0.5030 -0.1922 -0.1459
 2666TIP3    H129489   5.294   0.273   1.835  0.5847 -1.1395 -0.0074
 2666TIP3    H229490   5.235   0.240   1.699 -0.4495  0.3727  0.0524
 2667TIP3   OH229491   3.645   3.974   3.281 -0.2893 -0.2961 -0.4006
 2667TIP3    H129492   3.624   3.895   3.231 -0.8945  1.0082 -2.3018
 2667TIP3    H229493   3.563   4.024   3.284  0.6192  1.3222 -1.2510
 2668TIP3   OH229494   5.797   0.671  12.759 -0.2802  0.5947  0.2706
 2668TIP3    H129495   5.751   0.628  12.831  4.5138  0.2838  3.5649
 2668TIP3    H229496   5.760   0.760  12.758 -1.3138  0.2512  2.2811
 2669TIP3   OH229497   2.280   0.260   4.225 -0.7775  0.1837  0.2582
 2669TIP3    H129498   2.238   0.214   4.153  0.9810 -1.5967  0.2674
 2669TIP3    H229499   2.214   0.265   4.293 -2.4074  1.7029 -1.3154
 2670TIP3   OH229500   1.898   3.684  13.075 -0.5691 -0.2852 -0.3611
 2670TIP3    H129501   1.988   3.716  13.078 -0.4547 -0.3153 -2.4103
 2670TIP3    H229502   1.904   3.594  13.108  0.0124 -0.0540  0.1914
 2671TIP3   OH229503   5.484   3.334  12.759 -0.4380  0.2856  0.8907
 2671TIP3    H129504   5.411   3.382  12.800  1.6192  2.6557  2.0574
 2671TIP3    H229505   5.525   3.398  12.701  1.6528 -0.4429  1.4917
 2672TIP3   OH229506   5.224   6.346   4.171  0.0828  0.4963  0.2979
 2672TIP3    H129507   5.218   6.251   4.160 -1.6487  0.4267  1.3586
 2672TIP3    H229508   5.307   6.360   4.217  0.1521 -0.5598  0.5192
 2673TIP3   OH229509   4.989   5.754  16.844 -0.8934 -0.1516  0.7061
 2673TIP3    H129510   5.057   5.744  16.910  0.3163 -0.3303 -0.5312
 2673TIP3    H229511   4.987   5.848  16.826 -0.1343 -0.2750 -0.0880
 2674TIP3   OH229512   2.881   6.153   1.029  0.6026 -0.2116  0.1232
 2674TIP3    H129513   2.944   6.225   1.029  0.8339 -0.4013  0.8265
 2674TIP3    H229514   2.874   6.127   0.937  0.6153  0.6167 -0.1222
 2675TIP3   OH229515   5.920   2.263  10.505  0.1247 -0.2198 -0.0035
 2675TIP3    H129516   5.896   2.303  10.588  0.3726 -0.2559  0.0857
 2675TIP3    H229517   5.842   2.272  10.450  0.4984  1.2923 -0.3366
 2676TIP3   OH229518   3.484   3.682   1.946 -0.4082  0.1371 -0.1407
 2676TIP3    H129519   3.541   3.674   1.870  0.9776  0.6541  0.7940
 2676TIP3    H229520   3.493   3.599   1.993  0.0938  0.4487  0.3331
 2677TIP3   OH229521   1.441   4.938   1.186 -0.0431 -0.5791 -0.1173
 2677TIP3    H129522   1.504   4.935   1.114  0.0394  1.1687 -0.1535
 2677TIP3    H229523   1.400   4.851   1.186 -0.4043 -0.4707 -2.5844
 2678TIP3   OH229524   5.558   5.706  12.327 -0.1177  0.0913 -0.0289
 2678TIP3    H129525   5.623   5.770  12.299  1.3076 -0.6500  1.4590
 2678TIP3    H229526   5.474   5.744  12.299  0.9100  0.9877 -2.1521
 2679TIP3   OH229527   1.858   1.149  15.813 -0.6197  0.1571 -0.6716
 2679TIP3    H129528   1.792   1.084  15.839 -2.9962  2.0382 -1.5957
 2679TIP3    H229529   1.852   1.217  15.879  0.1830  0.5211 -0.9589
 2680TIP3   OH229530   0.473   6.195   1.734  0.4498  0.0410 -0.3052
 2680TIP3    H129531   0.483   6.102   1.751 -1.2162 -0.2768 -0.8462
 2680TIP3    H229532   0.551   6.219   1.685  1.2090 -0.9111  0.4014
 2681TIP3   OH229533   3.493   4.675  11.860  0.2973  0.0956  0.6465
 2681TIP3    H129534   3.565   4.613  11.856  0.7206  0.4762  1.8691
 2681TIP3    H229535   3.415   4.622  11.847  0.8114 -0.1899 -1.5589
 2682TIP3   OH229536   1.080   3.903   3.452  0.3792  0.3150 -0.1077
 2682TIP3    H129537   1.138   3.857   3.391  0.3566 -0.1228  0.1989
 2682TIP3    H229538   1.039   3.834   3.503  0.4774  0.6868  0.4793
 2683TIP3   OH229539   1.016   2.681  12.534  0.2027  0.3599 -0.2888
 2683TIP3    H129540   1.104   2.718  12.525  0.4509 -0.2134 -0.2320
 2683TIP3    H229541   0.964   2.725  12.467  1.0831 -0.9872 -1.9181
 2684TIP3   OH229542   6.592   0.656  11.614  0.0318 -0.5816  0.0256
 2684TIP3    H129543   6.514   0.611  11.648 -0.4071  0.5095  0.5640
 2684TIP3    H229544   6.573   0.670  11.521  0.6861 -2.4925 -0.4181
 2685TIP3   OH229545   4.273   5.243  12.799  0.2591  0.0136 -0.5998
 2685TIP3    H129546   4.293   5.287  12.717 -0.0190  2.2388  0.4463
 2685TIP3    H229547   4.177   5.238  12.801  0.2318  0.6260 -0.1044
 2686TIP3   OH229548   4.372   2.142  16.548 -0.0229  0.0431 -0.3313
 2686TIP3    H129549   4.337   2.053  16.555  0.0679  0.0247 -0.0983
 2686TIP3    H229550   4.309   2.188  16.493  0.0361 -0.2202 -0.6284
 2687TIP3   OH229551   1.015   3.046  14.006 -0.0842 -0.1329 -0.3390
 2687TIP3    H129552   1.106   3.027  13.982 -0.4961 -0.7852 -1.4320
 2687TIP3    H229553   0.963   2.986  13.953 -1.1058 -0.9134  1.4595
 2688TIP3   OH229554   1.099   5.700   0.315  0.6602  0.0872  0.8300
 2688TIP3    H129555   1.115   5.793   0.331  2.6844 -0.4873  2.5497
 2688TIP3    H229556   1.010   5.685   0.346  0.1276  1.5010  0.0955
 2689TIP3   OH229557   4.896   4.682   0.964  0.4429  0.2569 -0.1806
 2689TIP3    H129558   4.870   4.756   0.908  0.1624 -0.5653 -1.1598
 2689TIP3    H229559   4.984   4.660   0.934  1.0237  0.9561  0.9442
 2690TIP3   OH229560   4.808   1.456  15.479 -0.0115 -0.1810  0.4748
 2690TIP3    H129561   4.901   1.443  15.500  0.5301 -0.4026 -1.8702
 2690TIP3    H229562   4.781   1.529  15.535  1.7626  0.3557  0.7017
 2691TIP3   OH229563   2.309   3.939   0.888  0.3071  0.0019  0.1099
 2691TIP3    H129564   2.221   3.907   0.908  0.4330 -0.1414  0.4419
 2691TIP3    H229565   2.295   4.026   0.852 -0.1513 -0.9344 -2.1534
 2692TIP3   OH229566   4.073   2.613  10.823 -0.0353  0.5258 -0.5039
 2692TIP3    H129567   4.118   2.694  10.849  0.2646  0.1106  0.3043
 2692TIP3    H229568   4.066   2.619  10.728  1.3249  0.8140 -0.6024
 2693TIP3   OH229569   2.981   2.434   1.045  0.2344  0.3766 -0.1674
 2693TIP3    H129570   2.961   2.358   0.989 -1.2612  0.1184  0.6556
 2693TIP3    H229571   2.962   2.403   1.133  0.3330  1.4912  0.2510
 2694TIP3   OH229572   1.987   3.247   0.999  0.3220 -0.1086  0.5627
 2694TIP3    H129573   2.068   3.264   1.047  0.8443  1.1044 -0.6704
 2694TIP3    H229574   1.962   3.332   0.962  0.1149 -0.9944 -1.5140
 2695TIP3   OH229575   2.196   3.953  16.798 -0.3319 -0.8953 -0.0158
 2695TIP3    H129576   2.135   3.991  16.861 -1.7911 -3.1885  0.0793
 2695TIP3    H229577   2.158   3.973  16.713  1.0254  1.1928 -0.1958
 2696TIP3   OH229578   1.088   1.751   5.923  0.0142 -0.0204  0.0798
 2696TIP3    H129579   1.114   1.730   5.834  0.4272 -0.5063  0.3049
 2696TIP3    H229580   1.152   1.816   5.952 -0.9429  1.1626 -0.4361
 2697TIP3   OH229581   0.158   0.815  14.393  0.0256  0.0998  0.5857
 2697TIP3    H129582   0.234   0.776  14.437  0.2546 -0.4107 -0.2371
 2697TIP3    H229583   0.167   0.909  14.409  0.4118 -0.0297  1.1503
 2698TIP3   OH229584   2.802   1.394  15.036 -0.0974 -0.0663 -0.0366
 2698TIP3    H129585   2.742   1.326  15.067  0.4889 -0.4635  0.2581
 2698TIP3    H229586   2.789   1.397  14.942  0.9573 -1.6859 -0.2767
 2699TIP3   OH229587   6.317   5.099  15.869 -0.0522 -0.1907  0.5441
 2699TIP3    H129588   6.278   5.041  15.934 -1.6871  1.3571  1.0321
 2699TIP3    H229589   6.400   5.127  15.907 -0.6298  0.0939  1.6144
 2700TIP3   OH229590   0.985   1.678   0.650  0.0188 -0.1632 -0.9356
 2700TIP3    H129591   0.968   1.680   0.556 -0.4416  1.3726 -0.8501
 2700TIP3    H229592   0.906   1.638   0.687 -1.2625  2.1581 -0.9799
 2701TIP3   OH229593   1.869   3.854   3.540 -0.3518 -0.0724  0.1225
 2701TIP3    H129594   1.863   3.798   3.617 -0.4048  1.6960  1.4847
 2701TIP3    H229595   1.839   3.940   3.571 -3.1374  0.1177 -2.5556
 2702TIP3   OH229596   2.017   2.300  16.538  0.1188  0.6802 -0.0102
 2702TIP3    H129597   2.000   2.235  16.471 -0.4062 -1.0084  1.6654
 2702TIP3    H229598   2.113   2.300  16.548  0.1199  0.1139  0.0128
 2703TIP3   OH229599   2.910   6.642  15.560 -0.2934 -0.1455  1.0448
 2703TIP3    H129600   3.000   6.609  15.555 -0.4280 -0.3548 -0.5582
 2703TIP3    H229601   2.867   6.586  15.624 -0.1700 -2.3586 -0.6874
 2704TIP3   OH229602   3.980   4.122   4.765 -0.8177 -0.4467 -0.0839
 2704TIP3    H129603   3.992   4.216   4.781  0.6170 -1.0770  3.7420
 2704TIP3    H229604   3.892   4.104   4.799 -0.4722 -0.6953  0.7053
 2705TIP3   OH229605   6.768   1.881  15.070  0.5346 -0.0434  0.0422
 2705TIP3    H129606   6.739   1.859  15.159 -2.0591  1.1408 -0.4391
 2705TIP3    H229607   6.852   1.925  15.084  0.0976  0.3016  1.9432
 2706TIP3   OH229608   0.035   1.203  16.032 -0.1015  0.3023 -0.2307
 2706TIP3    H129609  -0.052   1.202  16.071  0.0141  1.7219  0.1041
 2706TIP3    H229610   0.087   1.143  16.086 -1.3516 -2.3588 -1.7402
 2707TIP3   OH229611   1.821   5.193   5.675  0.2787 -0.3821 -0.7759
 2707TIP3    H129612   1.837   5.285   5.698 -1.4127 -0.4681  0.9697
 2707TIP3    H229613   1.883   5.144   5.728 -2.1385 -0.4480  2.2356
 2708TIP3   OH229614   6.361   2.113   6.266  0.1948 -0.3680 -0.9793
 2708TIP3    H129615   6.312   2.042   6.307  1.9549 -1.7396 -1.1070
 2708TIP3    H229616   6.433   2.131   6.326  1.3382 -0.6308 -2.2225
 2709TIP3   OH229617   6.500   5.190  16.098  0.2275  0.1934 -0.4395
 2709TIP3    H129618   6.555   5.200  16.019 -1.9677  0.0263 -2.0737
 2709TIP3    H229619   6.449   5.271  16.101 -1.6385 -0.9328 -0.7753
 2710TIP3   OH229620   1.460   0.924  15.791  0.1488  0.8643  0.0078
 2710TIP3    H129621   1.395   0.907  15.723  1.5868  0.2559 -1.2473
 2710TIP3    H229622   1.482   1.017  15.780  1.7185  0.3542 -1.6315
 2711TIP3   OH229623   1.261   3.245  11.371 -0.3876 -0.6082  0.2448
 2711TIP3    H129624   1.194   3.266  11.306  1.1347  0.8464 -0.9189
 2711TIP3    H229625   1.261   3.319  11.431 -0.0806 -0.7941  0.4779
 2712TIP3   OH229626   2.043   0.044  14.035  0.3882 -0.4540 -0.5144
 2712TIP3    H129627   2.094   0.114  13.996 -2.0777  0.1934 -2.9185
 2712TIP3    H229628   1.990   0.087  14.102  1.6839 -0.8203  0.7940
 2713TIP3   OH229629   0.281   1.162  11.527  0.5364 -0.1101  0.4928
 2713TIP3    H129630   0.295   1.208  11.609  0.4997 -0.1380  0.5151
 2713TIP3    H229631   0.357   1.184  11.474 -0.5535  1.8259 -0.3600
 2714TIP3   OH229632   0.926   3.050   0.608 -0.0148 -0.0357 -0.6726
 2714TIP3    H129633   0.839   3.032   0.644  0.3249  0.7169  0.5995
 2714TIP3    H229634   0.919   3.027   0.515 -1.4196 -0.4680 -0.4833
 2715TIP3   OH229635   0.839   5.599   4.982  0.4869 -0.0756 -0.1259
 2715TIP3    H129636   0.798   5.587   4.897  0.4161 -1.0780  0.0457
 2715TIP3    H229637   0.850   5.511   5.017 -1.2883  0.3826  1.7659
 2716TIP3   OH229638   5.614   3.360   3.513  0.9003 -0.1796  0.0882
 2716TIP3    H129639   5.534   3.365   3.461  1.3327 -0.2701 -0.6027
 2716TIP3    H229640   5.655   3.445   3.502  2.0567 -0.8893 -1.4975
 2717TIP3   OH229641   6.357   5.500  12.642 -0.3743  0.7463  0.1038
 2717TIP3    H129642   6.375   5.549  12.722 -0.1612 -0.3217  0.7254
 2717TIP3    H229643   6.262   5.506  12.632 -0.3903  0.9876  0.3628
 2718TIP3   OH229644   3.494   2.859   6.399 -0.3127  0.1142  0.8288
 2718TIP3    H129645   3.494   2.937   6.456  0.3602  0.9552 -0.2821
 2718TIP3    H229646   3.585   2.850   6.371 -0.5465 -0.5911  0.2927
 2719TIP3   OH229647   5.184   6.044   4.062 -0.6598 -0.2617 -0.1667
 2719TIP3    H129648   5.223   5.992   3.991 -2.2725 -1.2077 -0.4115
 2719TIP3    H229649   5.171   5.981   4.132  1.9834  0.8796  1.5221
 2720TIP3   OH229650   5.131   3.929  12.132 -0.1166  0.3430  1.7805
 2720TIP3    H129651   5.143   4.006  12.077  2.9646 -0.0732  1.7177
 2720TIP3    H229652   5.173   3.951  12.215 -0.8025 -0.6299  2.4129
 2721TIP3   OH229653   4.576   2.283  15.785 -0.1648  0.1774 -1.0394
 2721TIP3    H129654   4.490   2.284  15.741 -0.6853  1.0340 -0.0472
 2721TIP3    H229655   4.636   2.320  15.719 -0.7483  0.5337 -1.3852
 2722TIP3   OH229656   1.262   5.552  17.078 -0.3071  0.3373  0.4801
 2722TIP3    H129657   1.358   5.552  17.081 -0.2615 -1.8265  0.4006
 2722TIP3    H229658   1.241   5.502  16.999 -1.5136  0.8530  0.4638
 2723TIP3   OH229659   5.013   6.294  12.647  0.2944 -0.1260  0.6939
 2723TIP3    H129660   4.928   6.309  12.688 -0.4725  0.8482 -1.1471
 2723TIP3    H229661   5.049   6.381  12.634  0.3463 -0.3728 -0.9739
 2724TIP3   OH229662   3.049   6.220   4.897  0.1736  0.3988 -0.4342
 2724TIP3    H129663   2.982   6.267   4.847 -0.1224  0.1090 -0.3144
 2724TIP3    H229664   3.132   6.256   4.866 -0.0702  2.2392  0.8417
 2725TIP3   OH229665   2.398   3.004  14.065  0.6754 -0.6482 -0.2115
 2725TIP3    H129666   2.347   3.069  14.018 -0.5905 -1.7765 -0.4554
 2725TIP3    H229667   2.462   2.972  14.002  0.6887 -0.3153 -0.3662
 2726TIP3   OH229668   1.412   6.231  15.214 -0.3998 -0.1348 -0.3722
 2726TIP3    H129669   1.389   6.238  15.306  1.5405  0.7017  0.1070
 2726TIP3    H229670   1.369   6.305  15.172 -1.8003 -0.8674 -0.2932
 2727TIP3   OH229671   2.556   1.862   4.180 -0.4703  0.3132  0.0444
 2727TIP3    H129672   2.555   1.929   4.111 -1.9410 -0.4466 -0.6963
 2727TIP3    H229673   2.598   1.787   4.139 -0.8903  0.0275  0.1381
 2728TIP3   OH229674   2.929   4.397   3.496 -0.0836 -0.2712  0.4991
 2728TIP3    H129675   3.007   4.440   3.459 -0.3998  1.8542  2.0717
 2728TIP3    H229676   2.959   4.311   3.522  1.0391 -0.4978 -1.3374
 2729TIP3   OH229677   6.146   3.793   5.358  0.3710 -0.6579  0.4874
 2729TIP3    H129678   6.228   3.825   5.395 -0.5315  0.3868  1.6814
 2729TIP3    H229679   6.156   3.805   5.264  0.4993  2.2820  0.7785
 2730TIP3   OH229680   5.491   6.706  12.826  0.2870 -0.1639  0.3061
 2730TIP3    H129681   5.587   6.702  12.824  0.2289 -2.4294  0.1529
 2730TIP3    H229682   5.469   6.704  12.919  0.3637 -3.4693  0.3555
 2731TIP3   OH229683   2.431   5.752  14.154  0.4552  0.3025 -0.6145
 2731TIP3    H129684   2.502   5.687  14.157 -0.5921 -0.9974 -2.2074
 2731TIP3    H229685   2.420   5.779  14.245  1.2067 -1.4536  0.0470
 2732TIP3   OH229686   2.261   2.345   2.985  0.1028  0.1467  0.0516
 2732TIP3    H129687   2.207   2.273   2.953  1.4787  0.0627 -2.3412
 2732TIP3    H229688   2.219   2.424   2.951  1.0462  0.1233 -1.2413
 2733TIP3   OH229689   3.530   5.078   2.890 -0.5433  0.1885 -0.1695
 2733TIP3    H129690   3.534   5.003   2.949  0.2512 -1.0517 -1.7303
 2733TIP3    H229691   3.607   5.129   2.911 -1.0074  0.5196  0.7988
 2734TIP3   OH229692   2.103   4.349  13.488 -0.2656 -0.0876  0.2997
 2734TIP3    H129693   2.152   4.407  13.546  0.9743 -0.4512 -0.3503
 2734TIP3    H229694   2.158   4.341  13.410 -1.4366 -0.3941 -0.5223
 2735TIP3   OH229695   6.450   1.436  15.873 -0.3124  0.7233  0.4883
 2735TIP3    H129696   6.466   1.420  15.966  0.5447  0.9171  0.3780
 2735TIP3    H229697   6.417   1.353  15.839  2.5663 -0.4104  0.2575
 2736TIP3   OH229698   5.121   6.142  15.754 -0.3779  0.7021  0.1380
 2736TIP3    H129699   5.046   6.198  15.777  1.1523  2.8661  0.1260
 2736TIP3    H229700   5.109   6.125  15.660 -1.8197 -0.5566  0.5165
 2737TIP3   OH229701   4.466   5.672   1.659 -0.1007 -0.0506  0.1884
 2737TIP3    H129702   4.457   5.760   1.622  2.8917 -0.0875 -0.9181
 2737TIP3    H229703   4.494   5.687   1.749 -2.2274  0.0498  0.8860
 2738TIP3   OH229704   2.551   2.717  13.423  0.3520  0.3087 -0.0711
 2738TIP3    H129705   2.459   2.709  13.399  0.4590  0.7830 -0.6699
 2738TIP3    H229706   2.598   2.693  13.343  0.7402  0.3214  0.1545
 2739TIP3   OH229707   1.586   0.656   4.373 -0.0542 -0.3676  0.1312
 2739TIP3    H129708   1.610   0.605   4.295  0.0196 -0.5071  0.2444
 2739TIP3    H229709   1.535   0.595   4.426 -0.8533 -0.0101 -0.2124
 2740TIP3   OH229710   3.322   2.309   0.252  0.1316  0.4787  0.3347
 2740TIP3    H129711   3.371   2.228   0.261 -1.5418 -0.3697  2.6705
 2740TIP3    H229712   3.255   2.290   0.186 -0.4477 -0.1472  1.1010
 2741TIP3   OH229713   0.724   4.727   1.341 -0.2196  0.5207 -0.0836
 2741TIP3    H129714   0.758   4.785   1.409  1.2688 -0.9769  0.5184
 2741TIP3    H229715   0.771   4.752   1.262  1.4102 -0.6637  0.4588
 2742TIP3   OH229716   1.171   5.719  16.750  0.6913  0.7653  0.1546
 2742TIP3    H129717   1.192   5.629  16.724  1.0417  1.2418 -1.2671
 2742TIP3    H229718   1.193   5.722  16.843  1.8411 -0.2889 -0.0517
 2743TIP3   OH229719   6.353   0.179  10.978 -0.3638  0.2822  0.1412
 2743TIP3    H129720   6.394   0.246  10.923 -0.7685  0.5737  0.1913
 2743TIP3    H229721   6.415   0.106  10.976  0.5639  1.0137  0.8906
 2744TIP3   OH229722   0.148   0.745  11.800 -0.1692  0.5920  0.3923
 2744TIP3    H129723   0.182   0.830  11.830  0.6001 -0.1120  1.5747
 2744TIP3    H229724   0.213   0.682  11.831 -0.6589 -0.4249 -0.6128
 2745TIP3   OH229725   0.734   3.846   5.452  0.0008 -0.5647  0.6031
 2745TIP3    H129726   0.658   3.894   5.485  1.4912  2.5940 -0.1030
 2745TIP3    H229727   0.708   3.818   5.364 -0.8202 -0.8819  0.9319
 2746TIP3   OH229728   6.213   4.841  15.754 -0.9266  0.1696  0.4660
 2746TIP3    H129729   6.185   4.912  15.812 -0.8866 -0.7816  1.6937
 2746TIP3    H229730   6.148   4.839  15.684 -2.1213  0.0645  1.5539
 2747TIP3   OH229731   4.578   2.416   6.661 -0.8331 -0.2434 -0.3294
 2747TIP3    H129732   4.550   2.507   6.672  0.7742  0.2761 -0.2198
 2747TIP3    H229733   4.655   2.422   6.604 -0.9539 -1.5912 -0.6705
 2748TIP3   OH229734   6.785   4.031   0.579  0.2100 -0.0971 -0.2784
 2748TIP3    H129735   6.868   4.036   0.533 -0.5457 -0.4778 -1.7416
 2748TIP3    H229736   6.719   4.033   0.510 -0.9882 -0.1647  0.8254
 2749TIP3   OH229737   5.802   5.622   3.436 -0.0889 -0.1019  0.4911
 2749TIP3    H129738   5.850   5.662   3.364  3.7227 -1.0544  2.2674
 2749TIP3    H229739   5.716   5.663   3.433  1.3401  3.1223 -1.9059
 2750TIP3   OH229740   4.793   5.145  11.410 -0.1376  0.1821  0.1249
 2750TIP3    H129741   4.712   5.196  11.416 -0.9734 -1.1222  0.1800
 2750TIP3    H229742   4.817   5.128  11.501  0.4684  0.9617  0.1194
 2751TIP3   OH229743   1.529   2.511   4.249  0.3228 -0.4681 -0.4137
 2751TIP3    H129744   1.511   2.604   4.255  0.7170 -0.3212 -1.3693
 2751TIP3    H229745   1.519   2.479   4.339 -0.0538  0.4392 -0.1186
 2752TIP3   OH229746   3.088   2.584   4.830  0.1447  0.7204  0.9086
 2752TIP3    H129747   3.015   2.574   4.770  0.4830  1.0883  0.4231
 2752TIP3    H229748   3.110   2.677   4.825  1.8518  0.3043 -0.4150
 2753TIP3   OH229749   3.142   0.370  11.560  0.2612 -0.0287  0.1643
 2753TIP3    H129750   3.171   0.381  11.470 -0.3720 -0.8693 -0.1580
 2753TIP3    H229751   3.071   0.433  11.571 -0.4936 -0.7681 -0.3302
 2754TIP3   OH229752   6.079   2.284  16.655  0.0731 -0.1002 -0.7119
 2754TIP3    H129753   6.035   2.346  16.714  1.0522  0.1907 -0.2790
 2754TIP3    H229754   6.032   2.294  16.572 -0.5370  0.3700 -0.3243
 2755TIP3   OH229755   4.790   0.745   2.205  0.1643 -0.0645  0.1119
 2755TIP3    H129756   4.744   0.803   2.145  0.5180 -0.5662 -0.6731
 2755TIP3    H229757   4.874   0.789   2.222  0.5745 -0.4824 -0.7526
 2756TIP3   OH229758   1.439   6.745  15.267 -0.1885 -0.4096  0.0393
 2756TIP3    H129759   1.493   6.825  15.265 -0.3171 -0.3274 -0.1465
 2756TIP3    H229760   1.371   6.761  15.202 -0.8508 -0.2179  0.7612
 2757TIP3   OH229761   1.103   1.291  11.781 -0.3443 -0.4249  0.6701
 2757TIP3    H129762   1.130   1.299  11.690 -1.2336  1.1221  0.5107
 2757TIP3    H229763   1.130   1.373  11.822 -0.4029 -0.8921  1.6822
 2758TIP3   OH229764   2.113   6.142   4.209  0.0703 -0.0746  0.0881
 2758TIP3    H129765   2.087   6.198   4.136  2.8098  1.6922  0.3228
 2758TIP3    H229766   2.201   6.111   4.185 -0.4515 -2.4863  1.0211
 2759TIP3   OH229767   5.825   3.972  14.749  0.2682  0.1247 -0.2804
 2759TIP3    H129768   5.784   4.007  14.828  2.3444 -3.2108  2.6250
 2759TIP3    H229769   5.903   4.026  14.736 -0.2906  0.9355 -0.2801
 2760TIP3   OH229770   1.104   5.605   2.662 -0.5070  0.6507 -0.1978
 2760TIP3    H129771   1.122   5.667   2.734  0.2019  0.8686 -0.5560
 2760TIP3    H229772   1.076   5.525   2.706 -1.4881  1.2297  0.2751
 2761TIP3   OH229773   4.952   5.778  13.519  0.4119 -0.1208 -0.6884
 2761TIP3    H129774   4.870   5.788  13.470 -0.4339  0.6090  0.7936
 2761TIP3    H229775   4.967   5.684  13.521 -0.4627 -0.2750 -0.8709
 2762TIP3   OH229776   5.366   3.912   1.197  0.0700  0.0108  0.2921
 2762TIP3    H129777   5.373   3.974   1.123  2.1661 -0.3099  0.1631
 2762TIP3    H229778   5.419   3.837   1.170 -2.7238 -2.1166  0.2825
 2763TIP3   OH229779   2.539   3.298   5.259 -0.8544  0.3842  0.3782
 2763TIP3    H129780   2.461   3.350   5.240  0.7496  2.8199  0.1135
 2763TIP3    H229781   2.542   3.295   5.355  0.4103  3.1526  0.5179
 2764TIP3   OH229782   5.838   6.273  13.862 -0.4792 -0.6497  0.1318
 2764TIP3    H129783   5.783   6.213  13.912  1.2388 -1.4142  1.1875
 2764TIP3    H229784   5.800   6.359  13.878 -0.2192 -0.9103  2.5011
 2765TIP3   OH229785   3.377   6.366  13.386 -0.2753 -0.3404 -0.5423
 2765TIP3    H129786   3.319   6.394  13.315 -2.4285  0.3207  1.3438
 2765TIP3    H229787   3.438   6.439  13.397 -1.3468  0.5535 -0.2940
 2766TIP3   OH229788   6.024   1.246  11.208 -0.0314 -0.2723  0.1352
 2766TIP3    H129789   6.015   1.326  11.260  2.1762  0.4839 -0.5187
 2766TIP3    H229790   5.978   1.264  11.127 -1.9577 -0.7915  1.0415
 2767TIP3   OH229791   0.724   1.719  11.460 -0.4593 -0.2165  0.0924
 2767TIP3    H129792   0.653   1.667  11.421 -0.1771 -2.0472  1.8516
 2767TIP3    H229793   0.687   1.752  11.542  0.0480  0.6760 -0.0195
 2768TIP3   OH229794   1.695   5.676  14.589 -0.0810 -0.4724 -0.3838
 2768TIP3    H129795   1.739   5.760  14.580  0.2678 -0.4526  1.1947
 2768TIP3    H229796   1.663   5.675  14.679 -2.1498 -1.0671 -1.0618
 2769TIP3   OH229797   4.954   6.448   2.149  0.3455 -0.0943 -0.5009
 2769TIP3    H129798   4.958   6.499   2.068 -1.0766  0.0538 -0.5106
 2769TIP3    H229799   4.884   6.490   2.200  1.1464 -0.2536  0.7607
 2770TIP3   OH229800   3.589   5.785  11.629  0.2132  0.2993  0.1792
 2770TIP3    H129801   3.670   5.794  11.679  0.0948  3.4703 -0.0112
 2770TIP3    H229802   3.552   5.873  11.626 -1.9420 -0.5517 -1.9279
 2771TIP3   OH229803   4.263   2.503   2.517 -0.0240 -0.4592  0.0967
 2771TIP3    H129804   4.267   2.530   2.425 -0.9081 -1.0833 -0.1322
 2771TIP3    H229805   4.352   2.515   2.549 -0.0432  1.3386 -0.3897
 2772TIP3   OH229806   2.872   1.591  16.820  0.7031 -0.1752 -0.3387
 2772TIP3    H129807   2.859   1.595  16.914  0.2809  0.5027 -0.4134
 2772TIP3    H229808   2.960   1.556  16.809  1.4583  1.4129  0.3548
 2773TIP3   OH229809   6.107   0.579   0.072 -0.2872  0.1561 -0.4792
 2773TIP3    H129810   6.161   0.522   0.126 -0.7352 -0.9619 -1.1790
 2773TIP3    H229811   6.165   0.609   0.002 -0.5971 -1.2212 -1.3588
 2774TIP3   OH229812   0.063   0.518  14.425  0.4337 -0.5268 -0.0848
 2774TIP3    H129813   0.118   0.593  14.401  0.2846 -0.6455 -0.8260
 2774TIP3    H229814   0.125   0.451  14.455  0.5568 -0.0582  0.7389
 2775TIP3   OH229815   0.898   5.028  14.947 -0.3548 -0.1903  0.6428
 2775TIP3    H129816   0.871   4.991  14.863  0.1685  3.2236 -1.2326
 2775TIP3    H229817   0.833   4.994  15.010 -3.6790  0.6372 -2.0111
 2776TIP3   OH229818   5.980   4.003  12.721 -0.0384  0.1231  0.5661
 2776TIP3    H129819   5.981   4.091  12.758 -2.0304  0.4261  0.0176
 2776TIP3    H229820   5.910   3.957  12.769  1.6179 -1.5319  1.5511
 2777TIP3   OH229821   5.095   1.297  12.053 -0.2151  0.3302 -0.5961
 2777TIP3    H129822   5.082   1.290  11.958 -2.6562  1.4928 -0.4151
 2777TIP3    H229823   5.057   1.217  12.089  0.8246 -0.1695 -0.5788
 2778TIP3   OH229824   2.178   3.394   4.517 -0.2822 -0.7231 -0.1424
 2778TIP3    H129825   2.245   3.462   4.527 -0.4659 -0.3942 -1.0933
 2778TIP3    H229826   2.105   3.438   4.473 -0.1642 -1.6668 -1.3219
 2779TIP3   OH229827   1.514   4.266   1.522 -0.2008 -0.3353  0.0152
 2779TIP3    H129828   1.457   4.244   1.449  0.8547  1.8927 -1.6094
 2779TIP3    H229829   1.575   4.331   1.486  0.6428  0.5497  2.7667
 2780TIP3   OH229830   1.327   4.276  13.162 -0.2277  0.0287 -0.0422
 2780TIP3    H129831   1.384   4.239  13.229  0.5860 -0.3570 -0.9112
 2780TIP3    H229832   1.282   4.348  13.205  0.5648  0.0323  0.8125
 2781TIP3   OH229833   3.803   5.160  14.931 -0.2367  1.0480  0.1393
 2781TIP3    H129834   3.746   5.090  14.898  0.0845  1.6145 -1.7363
 2781TIP3    H229835   3.743   5.233  14.947 -0.7867  0.0928  3.3343
 2782TIP3   OH229836   6.325   0.801   2.201 -0.0919  0.3970  0.0370
 2782TIP3    H129837   6.328   0.857   2.123  0.0512  0.6148  0.2010
 2782TIP3    H229838   6.247   0.830   2.248 -0.2066  0.2306 -0.0516
 2783TIP3   OH229839   0.897   5.439  14.762  0.4151  0.2024  0.0018
 2783TIP3    H129840   0.891   5.408  14.852 -1.4067 -0.6400 -0.3536
 2783TIP3    H229841   0.948   5.371  14.717 -1.2810 -1.0044 -0.2016
 2784TIP3   OH229842   0.869   5.124   5.921  0.4025 -0.1885  0.0344
 2784TIP3    H129843   0.818   5.105   5.999  0.1694 -0.3243 -0.1511
 2784TIP3    H229844   0.858   5.047   5.865  1.3058 -0.4956  0.2510
 2785TIP3   OH229845   5.546   5.660   0.658 -0.3553  0.1473  0.3855
 2785TIP3    H129846   5.570   5.606   0.733 -0.3800 -0.9494 -0.3730
 2785TIP3    H229847   5.590   5.619   0.584  1.2641  2.3011  0.0235
 2786TIP3   OH229848   2.650   4.559  12.830  0.2874  0.3397  0.4563
 2786TIP3    H129849   2.563   4.527  12.805  0.7383  0.2339 -1.0806
 2786TIP3    H229850   2.662   4.637  12.776  1.2094  0.2752  0.5619
 2787TIP3   OH229851   2.180   0.450   5.180  0.3899 -0.4105 -0.1590
 2787TIP3    H129852   2.249   0.440   5.115  2.2566  0.5734  1.5597
 2787TIP3    H229853   2.215   0.514   5.242 -1.5672 -0.8192  1.4558
 2788TIP3   OH229854   2.634   2.732   5.778  0.1871  0.6045  0.0534
 2788TIP3    H129855   2.687   2.741   5.858 -0.2022 -1.1889  0.5645
 2788TIP3    H229856   2.574   2.806   5.781  0.8780  1.1610  0.8648
 2789TIP3   OH229857   3.188   4.323  11.132 -0.6483 -0.2550  0.2738
 2789TIP3    H129858   3.189   4.293  11.041 -1.2342  1.5571 -0.3522
 2789TIP3    H229859   3.254   4.391  11.136  0.5537 -1.4262  1.6476
 2790TIP3   OH229860   5.269   6.374   5.637  0.4324  0.9861  0.0298
 2790TIP3    H129861   5.322   6.445   5.673  0.8051  0.3370  0.7986
 2790TIP3    H229862   5.296   6.297   5.687  0.7919  0.0907 -1.4735
 2791TIP3   OH229863   5.585   0.227  11.583  0.0004 -0.4779  0.2323
 2791TIP3    H129864   5.579   0.298  11.647 -0.9344  0.6144 -1.0207
 2791TIP3    H229865   5.675   0.233  11.550  0.4465 -0.9592  1.2791
 2792TIP3   OH229866   4.816   5.043  13.745 -0.4340  0.4731 -0.1797
 2792TIP3    H129867   4.834   5.012  13.834  1.8178  0.2032 -0.6648
 2792TIP3    H229868   4.735   4.999  13.720 -0.6522 -0.1010  1.4336
 2793TIP3   OH229869   1.675   3.304   0.912  0.0414  0.0989 -0.0736
 2793TIP3    H129870   1.748   3.358   0.942 -0.6536  1.4896 -0.8114
 2793TIP3    H229871   1.646   3.345   0.830 -0.9438 -1.0020 -0.3093
 2794TIP3   OH229872   5.814   5.555  11.228  0.0542 -0.3414  0.3875
 2794TIP3    H129873   5.728   5.514  11.241  0.5177 -2.3666 -2.1530
 2794TIP3    H229874   5.859   5.542  11.311 -0.6814 -3.0094  0.4616
 2795TIP3   OH229875   3.036   2.134   3.419 -0.0585 -0.8275 -0.3133
 2795TIP3    H129876   2.977   2.064   3.390 -2.2244  0.9753 -0.4920
 2795TIP3    H229877   3.035   2.197   3.348 -1.0866  1.0952  1.3222
 2796TIP3   OH229878   3.295   0.137  14.392 -0.1787  0.2621  0.9408
 2796TIP3    H129879   3.352   0.087  14.450 -1.3216 -2.5411 -0.1824
 2796TIP3    H229880   3.217   0.154  14.444  0.5135  1.6399  1.5736
 2797TIP3   OH229881   1.384   1.095   3.117  0.1224  0.4520 -0.0343
 2797TIP3    H129882   1.363   1.009   3.080  0.8702  0.7741 -1.2616
 2797TIP3    H229883   1.413   1.076   3.206 -0.0876 -0.5298 -0.1654
 2798TIP3   OH229884   2.197   1.905   4.391  0.4979  0.4475 -0.0527
 2798TIP3    H129885   2.195   1.815   4.422  1.3818  1.3656  2.9789
 2798TIP3    H229886   2.198   1.897   4.296 -2.7089 -2.6324 -0.0517
 2799TIP3   OH229887   0.003   0.907  13.467  0.4072 -0.0014 -0.7941
 2799TIP3    H129888  -0.027   0.824  13.504  1.9804  0.2142  1.1371
 2799TIP3    H229889  -0.077   0.955  13.447 -0.5151 -1.3872 -0.5361
 2800TIP3   OH229890   0.392   4.798  14.125 -0.2554  0.5343 -0.3856
 2800TIP3    H129891   0.372   4.706  14.108  0.4358 -0.0220  1.5133
 2800TIP3    H229892   0.312   4.833  14.165 -0.2353  0.5116 -0.3247
 2801TIP3   OH229893   2.632   1.756   0.670 -0.0489  0.4305  0.0812
 2801TIP3    H129894   2.600   1.675   0.630  1.1491  0.0979 -0.2290
 2801TIP3    H229895   2.562   1.782   0.730 -1.2229  0.1194 -1.0882
 2802TIP3   OH229896   1.674   2.722   0.640 -0.0747  0.0530 -0.2167
 2802TIP3    H129897   1.704   2.648   0.692  0.1449  1.4588  1.7793
 2802TIP3    H229898   1.582   2.702   0.620 -0.2585 -0.4071  1.0035
 2803TIP3   OH229899   4.807   0.032   0.954 -0.5218 -0.8418 -0.0423
 2803TIP3    H129900   4.744   0.068   0.891  1.1394 -0.0165 -1.2826
 2803TIP3    H229901   4.806   0.094   1.027 -0.7548 -0.5356 -0.3009
 2804TIP3   OH229902   4.596   5.986  14.630  0.0401  0.2749 -0.5773
 2804TIP3    H129903   4.581   6.019  14.719 -1.1583 -1.8308  0.0517
 2804TIP3    H229904   4.670   5.925  14.638 -2.2357 -2.6258 -0.2293
 2805TIP3   OH229905   3.695   0.565   5.595  0.3383  0.5146 -0.1282
 2805TIP3    H129906   3.614   0.595   5.554  0.9558  1.4652 -0.6938
 2805TIP3    H229907   3.752   0.541   5.521 -0.0925 -2.1195  0.2720
 2806TIP3   OH229908   3.567   3.866   0.505 -0.1028  0.1998 -0.3004
 2806TIP3    H129909   3.549   3.936   0.443 -1.0964  0.5554  0.3626
 2806TIP3    H229910   3.561   3.908   0.591 -0.8478 -0.7148  0.1125
 2807TIP3   OH229911   0.214   3.671   4.980  0.1866 -0.0621 -0.5525
 2807TIP3    H129912   0.177   3.613   4.914  0.2936  1.4695 -2.0408
 2807TIP3    H229913   0.211   3.621   5.061  0.8697 -2.3578 -1.8608
 2808TIP3   OH229914   5.649   1.069  11.499 -0.2900 -0.1053 -0.2333
 2808TIP3    H129915   5.742   1.046  11.502  0.4038  2.1346 -2.1193
 2808TIP3    H229916   5.609   1.001  11.445 -0.0146 -1.6372  1.3777
 2809TIP3   OH229917   1.754   1.212   2.427 -0.5036  0.1144  0.9063
 2809TIP3    H129918   1.678   1.212   2.369  0.6575  0.3954 -0.6907
 2809TIP3    H229919   1.792   1.300   2.416  0.8192 -0.4771  0.6008
 2810TIP3   OH229920   3.552   5.540   0.964  0.0740  0.1815 -0.2021
 2810TIP3    H129921   3.523   5.567   0.877  1.1263  0.4918 -0.4799
 2810TIP3    H229922   3.472   5.523   1.012 -0.5350  0.2478 -1.1576
 2811TIP3   OH229923   5.218   0.245  10.963  0.3383  0.2050 -0.5551
 2811TIP3    H129924   5.244   0.202  11.044  2.3180 -1.8953 -2.1492
 2811TIP3    H229925   5.122   0.245  10.964  0.3131  0.9528  2.0674
 2812TIP3   OH229926   1.454   0.919  13.290 -0.6189  0.3226  0.0896
 2812TIP3    H129927   1.532   0.957  13.249  1.4693 -0.3770  3.0580
 2812TIP3    H229928   1.428   0.983  13.355 -0.4746 -0.8304  1.3345
 2813TIP3   OH229929   1.254   4.604   2.558 -0.4737  0.6097  0.0782
 2813TIP3    H129930   1.270   4.527   2.504 -1.4702 -0.1408  0.8135
 2813TIP3    H229931   1.164   4.630   2.537 -0.3932  1.1397  0.3586
 2814TIP3   OH229932   0.223   1.495  16.847  0.1649  0.3745  0.1302
 2814TIP3    H129933   0.144   1.466  16.802  0.3284  0.8350 -0.4578
 2814TIP3    H229934   0.294   1.449  16.803  0.3136  0.7360 -0.0163
 2815TIP3   OH229935   2.727   0.202  14.938  0.2691 -0.1476 -0.1063
 2815TIP3    H129936   2.635   0.175  14.947  0.4268 -0.7087 -0.1153
 2815TIP3    H229937   2.756   0.162  14.856  0.4114  0.3510 -0.2987
 2816TIP3   OH229938   0.747   1.627   3.983  0.5283  0.1785  0.3623
 2816TIP3    H129939   0.789   1.711   3.964 -0.7943  0.6211 -0.6966
 2816TIP3    H229940   0.705   1.602   3.901 -1.6114 -0.0527  1.4582
 2817TIP3   OH229941   2.488   2.753  15.176  0.2195  0.4318 -0.2704
 2817TIP3    H129942   2.540   2.675  15.192 -0.0227  0.7587  2.5051
 2817TIP3    H229943   2.403   2.719  15.146 -0.4554 -0.5472  2.4999
 2818TIP3   OH229944   6.584   5.424  15.708 -0.0170  0.3686  0.2881
 2818TIP3    H129945   6.492   5.400  15.718  0.4182 -1.7660 -0.2093
 2818TIP3    H229946   6.603   5.405  15.616  0.6154  2.0281  0.0541
 2819TIP3   OH229947   3.722   3.150   0.160 -0.3606  0.6466  0.3479
 2819TIP3    H129948   3.785   3.090   0.119  0.6878  2.4887 -0.9140
 2819TIP3    H229949   3.708   3.114   0.248 -1.8905 -2.9067 -1.1495
 2820TIP3   OH229950   4.026   0.315  12.988 -0.2667 -0.0310  0.0073
 2820TIP3    H129951   4.047   0.282  13.075 -0.7077  0.3386  0.2575
 2820TIP3    H229952   4.069   0.400  12.983 -1.7150  0.7780  0.5636
 2821TIP3   OH229953   2.091   1.425  14.367 -0.1159 -0.0939 -0.2451
 2821TIP3    H129954   2.089   1.475  14.285 -2.6790 -0.8940 -0.7579
 2821TIP3    H229955   2.155   1.356  14.351 -0.4600 -0.1465 -1.5527
 2822TIP3   OH229956   0.770   2.289  10.809  0.3905  0.2383  0.4598
 2822TIP3    H129957   0.812   2.368  10.776  2.6599 -1.4655 -1.0062
 2822TIP3    H229958   0.786   2.290  10.903 -1.4470  2.4616  0.8435
 2823TIP3   OH229959   4.234   3.474  16.238 -0.3936 -0.3744  0.1206
 2823TIP3    H129960   4.303   3.511  16.294  0.2492  1.7081 -1.8911
 2823TIP3    H229961   4.153   3.494  16.284  0.1822 -0.0759  1.0427
 2824TIP3   OH229962   6.061   0.320   2.769  0.5237  0.3822 -0.1870
 2824TIP3    H129963   6.055   0.234   2.728  2.1383  0.6133 -1.0057
 2824TIP3    H229964   6.104   0.375   2.704  0.0348  1.6700  0.5348
 2825TIP3   OH229965   6.234   5.332  16.086 -0.1176  0.0055 -0.6589
 2825TIP3    H129966   6.163   5.381  16.127 -1.2041 -2.7050  1.0342
 2825TIP3    H229967   6.201   5.308  16.000 -0.7734 -0.1981 -0.3539
 2826TIP3   OH229968   5.288   4.310   1.412  0.9314  0.0436 -0.0176
 2826TIP3    H129969   5.326   4.309   1.324  1.2075 -1.7488  0.0903
 2826TIP3    H229970   5.198   4.280   1.400  0.2933  1.7940  0.0757
 2827TIP3   OH229971   6.010   1.880   4.787 -1.1464  0.1750  0.0533
 2827TIP3    H129972   6.043   1.963   4.821  1.4462 -0.1638 -1.4440
 2827TIP3    H229973   6.087   1.825   4.779 -2.7984 -2.4940  1.1084
 2828TIP3   OH229974   4.904   4.049   2.334  0.1986 -0.3287 -0.2509
 2828TIP3    H129975   4.900   3.967   2.384  0.1490 -0.3683 -0.3209
 2828TIP3    H229976   4.940   4.024   2.249 -0.4089 -0.3801 -0.4980
 2829TIP3   OH229977   3.857   2.941  11.308  0.3470 -0.3021 -0.0202
 2829TIP3    H129978   3.807   2.959  11.229  1.0936  3.0810  0.1220
 2829TIP3    H229979   3.791   2.920  11.374 -0.6387  0.7056 -0.6462
 2830TIP3   OH229980   3.769   3.481   3.214 -0.1503 -0.0549 -0.3351
 2830TIP3    H129981   3.808   3.394   3.201  1.9589  0.9617 -1.4735
 2830TIP3    H229982   3.679   3.472   3.183  0.2340 -1.6744 -1.1092
 2831TIP3   OH229983   0.237   5.719   3.652 -0.0769 -0.2080  0.2061
 2831TIP3    H129984   0.156   5.766   3.668  0.3365  0.5439  0.1487
 2831TIP3    H229985   0.258   5.677   3.735  0.8241  1.7273  1.0086
 2832TIP3   OH229986   1.241   3.846   1.600 -0.3660  0.5777  0.2071
 2832TIP3    H129987   1.173   3.908   1.576 -0.3894  1.1078  1.5587
 2832TIP3    H229988   1.195   3.778   1.649 -0.4373 -0.8578 -1.7109
 2833TIP3   OH229989   4.458   6.698   1.916 -0.7211 -0.7718 -0.0522
 2833TIP3    H129990   4.433   6.665   1.830  1.0172  0.3448 -1.0362
 2833TIP3    H229991   4.554   6.704   1.913 -0.7467  1.0763  1.2785
 2834TIP3   OH229992   2.949   3.606  12.671  0.1374  0.1379 -0.2103
 2834TIP3    H129993   2.894   3.532  12.644 -0.6005 -0.1261  1.8406
 2834TIP3    H229994   3.037   3.569  12.677  0.2762  0.1250 -1.7621
 2835TIP3   OH229995   4.939   2.320   3.725  0.0962 -0.2922 -0.3233
 2835TIP3    H129996   4.915   2.315   3.817 -0.7377 -0.0658 -0.5147
 2835TIP3    H229997   4.867   2.368   3.684  0.5299 -0.2511 -1.0658
 2836TIP3   OH229998   4.754   1.028  11.945  0.5965  0.0752 -0.2923
 2836TIP3    H129999   4.702   0.968  11.891  1.0470 -1.0892  0.5247
 2836TIP3    H230000   4.839   1.032  11.902  1.0264 -1.0264  0.4109
 2837TIP3   OH230001   3.805   2.395  16.911 -0.3248 -0.3807  0.5100
 2837TIP3    H130002   3.836   2.306  16.890  0.7057 -0.1720  1.0479
 2837TIP3    H230003   3.713   2.395  16.885 -0.3749 -1.6455  0.5844
 2838TIP3   OH230004   5.038   2.234   4.054  0.5857  0.1947  0.2823
 2838TIP3    H130005   4.999   2.170   4.113  0.1783  0.3433  0.1727
 2838TIP3    H230006   5.043   2.190   3.970 -3.7621  1.6492 -1.0060
 2839TIP3   OH230007   6.415   0.380  16.894  0.6870  0.0898 -0.1685
 2839TIP3    H130008   6.378   0.438  16.827  1.7638 -0.5156 -1.3258
 2839TIP3    H230009   6.411   0.432  16.975  0.1733  1.1765 -0.8631
 2840TIP3   OH230010   5.757   3.041  12.583  0.2502  0.3346  0.7185
 2840TIP3    H130011   5.815   2.981  12.535  0.8583 -0.0051  1.8357
 2840TIP3    H230012   5.803   3.125  12.582 -0.8110  0.9595 -1.2372
 2841TIP3   OH230013   6.677   4.534  10.936 -0.0419  0.5043  0.0957
 2841TIP3    H130014   6.699   4.555  10.846  0.2700 -0.5667 -0.0878
 2841TIP3    H230015   6.634   4.448  10.932  0.5389  0.1459  1.0192
 2842TIP3   OH230016   0.613   6.538   1.767 -0.1469  0.0615  0.2358
 2842TIP3    H130017   0.652   6.542   1.680  1.1955 -1.1867  0.7391
 2842TIP3    H230018   0.574   6.450   1.772 -2.4026  0.9830  0.0439
 2843TIP3   OH230019   3.023   5.527  11.582 -1.0077 -0.3095  0.0943
 2843TIP3    H130020   3.001   5.449  11.531 -2.1242 -0.8286  1.3042
 2843TIP3    H230021   3.111   5.511  11.615 -0.5513 -0.2747 -1.0677
 2844TIP3   OH230022   2.830   6.780   5.478  0.3778  0.7680 -0.6949
 2844TIP3    H130023   2.739   6.752   5.474  0.1254  1.5963 -1.0366
 2844TIP3    H230024   2.832   6.862   5.428  0.8529  1.9339  1.1697
 2845TIP3   OH230025   5.856   2.687   2.651  0.5531 -0.2019 -0.4165
 2845TIP3    H130026   5.775   2.678   2.601  0.4297 -2.1785  0.0549
 2845TIP3    H230027   5.829   2.696   2.742  0.8305  1.7330 -0.4802
 2846TIP3   OH230028   3.309   5.743   0.732  0.1465  0.1734 -0.3772
 2846TIP3    H130029   3.282   5.743   0.824 -0.8092  0.0784 -0.6497
 2846TIP3    H230030   3.317   5.836   0.710 -0.3134  0.2088 -0.3944
 2847TIP3   OH230031   1.234   2.857   1.455  0.0510  0.3754 -0.7387
 2847TIP3    H130032   1.320   2.848   1.498  0.9826 -1.8884 -2.8288
 2847TIP3    H230033   1.240   2.940   1.406  1.3242 -0.0447 -1.3398
 2848TIP3   OH230034   1.213   6.685  11.622  0.0999  0.0909 -0.2502
 2848TIP3    H130035   1.203   6.651  11.533 -1.6482 -0.9868  0.2993
 2848TIP3    H230036   1.191   6.611  11.679  0.2182  1.0216  1.0621
 2849TIP3   OH230037   3.163   4.908  12.151  0.0638 -0.3260 -0.7281
 2849TIP3    H130038   3.135   4.941  12.237 -1.5715  0.6696 -1.5937
 2849TIP3    H230039   3.234   4.847  12.171  0.5722  0.8091  1.2394
 2850TIP3   OH230040   1.037   2.667   4.170  0.1341 -0.3498 -0.1162
 2850TIP3    H130041   1.052   2.614   4.091  0.1900 -0.4476 -0.0393
 2850TIP3    H230042   1.060   2.756   4.142  1.8605 -0.6272  0.2694
 2851TIP3   OH230043   3.879   3.453   2.050  0.2659  0.1850  0.1403
 2851TIP3    H130044   3.852   3.498   2.131  0.4904  1.0392 -0.2467
 2851TIP3    H230045   3.915   3.523   1.996 -0.6025 -0.2361 -1.0136
 2852TIP3   OH230046   2.254   2.968   0.255  0.5570 -0.6277  0.3904
 2852TIP3    H130047   2.298   2.902   0.201  1.3549  1.4875 -1.7401
 2852TIP3    H230048   2.164   2.935   0.265  0.6241 -1.5161 -1.5458
 2853TIP3   OH230049   1.609   1.231  10.906  0.1734 -0.0390 -0.1450
 2853TIP3    H130050   1.565   1.220  10.822  0.6419  2.3289 -0.7624
 2853TIP3    H230051   1.658   1.149  10.918 -0.5938 -0.7754 -1.7286
 2854TIP3   OH230052   5.459   3.609  14.942  0.2966 -0.6228 -0.0883
 2854TIP3    H130053   5.478   3.651  14.858  1.1168 -0.0132  0.3876
 2854TIP3    H230054   5.489   3.672  15.008 -1.5918 -0.4887  0.7040
 2855TIP3   OH230055   3.463   3.840   5.979  0.1078  0.1796 -0.1038
 2855TIP3    H130056   3.454   3.804   5.890 -0.1893  0.9604 -0.3980
 2855TIP3    H230057   3.548   3.808   6.009 -0.3228 -1.1041 -0.1906
 2856TIP3   OH230058   1.793   5.422   4.643  0.0983  0.0795  0.1232
 2856TIP3    H130059   1.827   5.342   4.683  0.2299 -0.2138 -0.5629
 2856TIP3    H230060   1.711   5.439   4.689  0.8482  0.4529  1.3876
 2857TIP3   OH230061   0.374   5.141  16.474  0.0688  0.6722 -0.9187
 2857TIP3    H130062   0.404   5.134  16.384 -0.6893 -1.1987 -1.0643
 2857TIP3    H230063   0.453   5.124  16.526  0.1642  0.1078 -1.2445
 2858TIP3   OH230064   6.840   2.589   2.538  0.7834  0.0592  0.0389
 2858TIP3    H130065   6.917   2.590   2.595  0.2446  0.8634  0.7599
 2858TIP3    H230066   6.828   2.680   2.512  0.2436 -0.1087 -0.3069
 2859TIP3   OH230067   1.488   6.094  14.105 -0.1309 -0.7469  0.3269
 2859TIP3    H130068   1.481   6.080  14.011 -1.7678  2.4602 -0.1673
 2859TIP3    H230069   1.557   6.159  14.115 -0.9987  0.0958  1.1334
 2860TIP3   OH230070   6.137   3.646  13.498 -0.8498  0.1028  0.3020
 2860TIP3    H130071   6.223   3.624  13.533 -1.0969 -0.0987  0.8040
 2860TIP3    H230072   6.085   3.566  13.510 -0.5512 -0.4923 -1.9057
 2861TIP3   OH230073   0.778   1.744   5.915 -0.1549  0.3725  0.1329
 2861TIP3    H130074   0.770   1.839   5.909 -0.3536  0.2762 -1.8237
 2861TIP3    H230075   0.860   1.730   5.962  0.3365  1.5274 -0.3330
 2862TIP3   OH230076   3.215   2.743   5.745 -0.2848 -0.5433  0.2105
 2862TIP3    H130077   3.310   2.729   5.749 -0.0067  0.3003 -1.8889
 2862TIP3    H230078   3.180   2.660   5.711 -0.0942 -0.3563 -0.4640
 2863TIP3   OH230079   5.412   2.314  14.579  0.0702  0.1214  0.5189
 2863TIP3    H130080   5.406   2.363  14.497  0.3389  0.0817  0.4765
 2863TIP3    H230081   5.505   2.293  14.588 -0.1379 -1.0218  0.1561
 2864TIP3   OH230082   3.242   3.158   1.921  0.1007  0.3714 -0.3324
 2864TIP3    H130083   3.179   3.225   1.946  0.1469  0.5876 -0.7809
 2864TIP3    H230084   3.189   3.085   1.889  0.0696  0.5502 -0.7024
 2865TIP3   OH230085   2.120   2.960   5.961  0.1788  0.2396  0.1742
 2865TIP3    H130086   2.061   2.934   6.032  0.2110 -2.9372 -0.8312
 2865TIP3    H230087   2.063   2.971   5.885  0.6735 -1.2099 -0.4177
 2866TIP3   OH230088   2.103   2.885   1.108  0.2259  0.2474 -0.0295
 2866TIP3    H130089   2.110   2.884   1.013  0.4357 -1.3202 -0.0289
 2866TIP3    H230090   2.191   2.907   1.139  0.0274  1.3003 -0.1900
 2867TIP3   OH230091   4.872   4.399   1.376  0.3177  0.3065  0.3837
 2867TIP3    H130092   4.904   4.311   1.395 -0.1046 -0.3278 -1.5743
 2867TIP3    H230093   4.827   4.426   1.456 -1.3264 -2.0916  0.3753
 2868TIP3   OH230094   6.811   3.305  14.341 -0.0354  0.6516  0.1837
 2868TIP3    H130095   6.721   3.283  14.366  0.5401 -0.8421  1.0810
 2868TIP3    H230096   6.863   3.287  14.420  1.4997 -1.7741 -1.2524
 2869TIP3   OH230097   4.964   6.831   3.950  0.0164 -0.0505  0.1718
 2869TIP3    H130098   5.052   6.795   3.951  0.2119  0.2310 -1.9841
 2869TIP3    H230099   4.970   6.908   3.894 -1.7259 -0.4781 -0.7003
 2870TIP3   OH230100   5.474   0.358   0.037  0.4350 -0.5196  0.5519
 2870TIP3    H130101   5.500   0.395  -0.047  1.0561 -0.1139  0.9179
 2870TIP3    H230102   5.413   0.422   0.074  2.2297  0.6462  1.6095
 2871TIP3   OH230103   1.783   5.757   0.907  0.0162  0.1578 -0.1330
 2871TIP3    H130104   1.805   5.673   0.945 -0.6117  0.9122  2.0047
 2871TIP3    H230105   1.848   5.818   0.942 -0.5393  0.8739 -0.3070
 2872TIP3   OH230106   5.164   1.729  15.672 -0.3864  0.0435 -0.4020
 2872TIP3    H130107   5.136   1.766  15.756  0.7257  0.2192 -0.0922
 2872TIP3    H230108   5.247   1.686  15.692 -0.5605 -0.7032 -1.2336
 2873TIP3   OH230109   6.483   5.132   3.596 -0.3142 -0.1399  0.0470
 2873TIP3    H130110   6.574   5.107   3.578 -0.7694 -1.8053 -0.1283
 2873TIP3    H230111   6.487   5.225   3.618  1.3705 -0.0840 -0.3911
 2874TIP3   OH230112   4.214   1.822  14.590  0.1070 -0.6046  0.0977
 2874TIP3    H130113   4.184   1.887  14.527  2.2731 -0.2313 -0.6454
 2874TIP3    H230114   4.162   1.743  14.571  0.9304 -0.6164 -2.4304
 2875TIP3   OH230115   4.688   5.880   4.341  0.5146  0.0371 -0.5800
 2875TIP3    H130116   4.780   5.866   4.317  1.0149  1.7427  0.1367
 2875TIP3    H230117   4.663   5.801   4.388  1.0187 -1.2432 -2.3623
 2876TIP3   OH230118   5.486   0.647   3.337  0.0558  0.2653 -0.0249
 2876TIP3    H130119   5.511   0.555   3.349  1.1833  0.2136 -2.2832
 2876TIP3    H230120   5.411   0.659   3.395 -0.5713 -2.2737 -0.1908
 2877TIP3   OH230121   1.491   2.043   5.260 -0.3429 -0.0584  0.0064
 2877TIP3    H130122   1.496   1.963   5.313  1.7626  0.0973  0.1067
 2877TIP3    H230123   1.578   2.082   5.267 -0.9265  1.5379 -1.1601
 2878TIP3   OH230124   5.687   1.504   3.599  0.6783 -0.3533  0.1552
 2878TIP3    H130125   5.628   1.465   3.535  1.2322 -0.7215 -0.1359
 2878TIP3    H230126   5.722   1.582   3.555  1.1162 -0.6474 -0.0287
 2879TIP3   OH230127   4.236   4.372  14.663 -0.1810  0.5321  0.2365
 2879TIP3    H130128   4.197   4.459  14.666  0.8820  1.0664 -0.4268
 2879TIP3    H230129   4.314   4.379  14.718  0.1743  0.1599 -0.2092
 2880TIP3   OH230130   1.550   0.038  15.983  0.6142  0.1398  0.6543
 2880TIP3    H130131   1.584  -0.021  15.915 -1.2668  0.4527 -0.6608
 2880TIP3    H230132   1.597   0.013  16.062  2.5792 -0.5568 -0.6445
 2881TIP3   OH230133   4.339   0.505  14.559 -0.2489  0.2748 -0.5547
 2881TIP3    H130134   4.373   0.420  14.532  0.9310  1.4933 -3.3139
 2881TIP3    H230135   4.249   0.506  14.526 -0.0046  0.3799 -1.2263
 2882TIP3   OH230136   6.726   0.805   2.639  0.3392 -0.5140 -0.2138
 2882TIP3    H130137   6.689   0.880   2.592 -0.7458 -0.5568  0.5444
 2882TIP3    H230138   6.736   0.835   2.729  0.5848 -1.0505 -0.0563
 2883TIP3   OH230139   3.983   2.525  14.110  0.0288 -0.6202  0.2167
 2883TIP3    H130140   3.932   2.579  14.170  1.2334  0.6986  0.1121
 2883TIP3    H230141   3.920   2.462  14.075 -1.4018  0.6105  0.4639
 2884TIP3   OH230142   4.489   0.141   2.731  0.6168 -0.1509 -0.4869
 2884TIP3    H130143   4.507   0.151   2.824  0.7293 -0.8264 -0.4286
 2884TIP3    H230144   4.516   0.224   2.692 -0.1275  0.4267  0.1726
 2885TIP3   OH230145   3.087   3.058   2.557 -0.0871 -0.1164 -1.2211
 2885TIP3    H130146   2.998   3.021   2.550  0.2163 -0.7658 -1.8810
 2885TIP3    H230147   3.144   2.981   2.556  0.5284  0.3421 -1.7741
 2886TIP3   OH230148   5.199   3.279   6.640  0.1884 -0.1299 -0.1279
 2886TIP3    H130149   5.198   3.189   6.673  1.3574 -0.1611 -0.1252
 2886TIP3    H230150   5.275   3.282   6.582  0.7789  1.1274  0.6720
 2887TIP3   OH230151   1.226   1.693  13.602  0.2436  0.0167  0.5839
 2887TIP3    H130152   1.289   1.688  13.531 -0.5900 -1.0217 -0.1147
 2887TIP3    H230153   1.204   1.786  13.609  1.0735  0.2521  0.1570
 2888TIP3   OH230154   6.391   3.776  17.049  0.1765 -0.0362  0.1217
 2888TIP3    H130155   6.369   3.840  16.982 -1.0642  0.8132  1.2882
 2888TIP3    H230156   6.428   3.827  17.121 -0.0039 -0.7235  0.7197
 2889TIP3   OH230157   5.382   5.096  15.130 -0.6430 -0.5681 -0.0141
 2889TIP3    H130158   5.397   5.143  15.212 -1.3807 -0.5418  0.1119
 2889TIP3    H230159   5.297   5.127  15.100  0.3996  0.7722 -1.7227
 2890TIP3   OH230160   3.040   6.042  12.693 -0.4454  0.0600 -0.8801
 2890TIP3    H130161   2.990   6.115  12.729  1.3658  0.5825  0.7257
 2890TIP3    H230162   2.975   5.972  12.683 -1.4100  0.4246  1.8798
 2891TIP3   OH230163   0.127   3.515   5.187 -0.4824 -0.2550 -0.1663
 2891TIP3    H130164   0.065   3.484   5.253  0.0122  0.3674  0.6043
 2891TIP3    H230165   0.144   3.438   5.132 -0.5242 -0.9158  0.7321
 2892TIP3   OH230166   4.081   1.796  15.708  0.0632  0.2840 -0.5200
 2892TIP3    H130167   4.174   1.802  15.683  0.9825  0.4094  2.5358
 2892TIP3    H230168   4.074   1.714  15.755 -1.3622  0.3729 -0.5521
 2893TIP3   OH230169   4.964   1.858  14.132  0.1210 -0.4964 -0.3883
 2893TIP3    H130170   5.027   1.801  14.087  0.1343 -0.0352 -0.9684
 2893TIP3    H230171   4.996   1.862  14.222  0.1271 -1.3894 -0.3366
 2894TIP3   OH230172   1.268   2.452  11.583  0.5156  0.0510 -0.6331
 2894TIP3    H130173   1.326   2.527  11.595 -0.8812  1.0976 -0.1264
 2894TIP3    H230174   1.263   2.411  11.669  0.8370 -0.2987 -0.7781
 2895TIP3   OH230175   4.329   3.541   3.538  0.3571  0.2575  0.0774
 2895TIP3    H130176   4.376   3.470   3.495  0.3529  0.3471 -0.0753
 2895TIP3    H230177   4.249   3.501   3.572  1.3975 -0.3219  1.9719
 2896TIP3   OH230178   4.630   5.630   1.888  0.1113 -0.6158 -0.8685
 2896TIP3    H130179   4.675   5.688   1.826  0.3733 -1.4880 -1.5109
 2896TIP3    H230180   4.681   5.638   1.969 -0.9988  1.5426 -0.3129
 2897TIP3   OH230181   5.912   1.340   4.291  0.2898 -0.1344 -0.4916
 2897TIP3    H130182   5.909   1.431   4.261  2.3614 -0.4131 -1.6966
 2897TIP3    H230183   5.880   1.344   4.382  0.7540  1.8644 -0.3747
 2898TIP3   OH230184   3.560   5.973   3.699 -0.1246  0.2695  0.1152
 2898TIP3    H130185   3.503   5.911   3.653 -0.0711 -0.2562  0.7395
 2898TIP3    H230186   3.504   6.010   3.768 -0.3857  1.5112 -0.7450
 2899TIP3   OH230187   6.377   0.315  15.307 -0.2022  0.2503  0.2374
 2899TIP3    H130188   6.296   0.320  15.256  0.5662  2.3833 -0.8871
 2899TIP3    H230189   6.446   0.328  15.242  1.1991 -2.6754  0.9758
 2900TIP3   OH230190   4.561   5.361   2.082 -0.5442  0.4616  0.1749
 2900TIP3    H130191   4.488   5.362   2.020  0.3448 -1.4945 -1.0060
 2900TIP3    H230192   4.635   5.331   2.030  0.0686 -2.1065  2.3309
 2901TIP3   OH230193   6.845   0.516  15.673 -0.0695  0.0299  0.2964
 2901TIP3    H130194   6.814   0.605  15.656  1.6363  0.7155  0.6264
 2901TIP3    H230195   6.777   0.477  15.728 -1.2347  0.8317 -0.5204
 2902TIP3   OH230196   4.288   4.603  16.529 -0.6859  0.4247 -0.5017
 2902TIP3    H130197   4.371   4.590  16.484  0.4151  1.3437  1.1724
 2902TIP3    H230198   4.286   4.697  16.549 -2.0713  0.3974 -0.3738
 2903TIP3   OH230199   6.157   4.621   4.668  0.1180  0.0380  0.3721
 2903TIP3    H130200   6.239   4.573   4.675 -0.0049 -0.4456 -1.1718
 2903TIP3    H230201   6.091   4.563   4.705  0.4681  0.4655  1.7013
 2904TIP3   OH230202   1.647   3.187  11.181  0.6405 -0.3546  0.0333
 2904TIP3    H130203   1.697   3.264  11.153 -0.1633  0.8763  1.7602
 2904TIP3    H230204   1.588   3.170  11.107 -0.0096  1.4832  0.0592
 2905TIP3   OH230205   6.095   0.127   4.367  0.5362  0.3147  0.3078
 2905TIP3    H130206   6.072   0.043   4.328 -0.1033  0.4654  0.3596
 2905TIP3    H230207   6.186   0.142   4.340  1.5851 -1.6258  2.3774
 2906TIP3   OH230208   3.602   4.302   0.004  0.2327  0.2467 -0.0390
 2906TIP3    H130209   3.633   4.345   0.084 -1.0712  1.7642 -0.2996
 2906TIP3    H230210   3.548   4.368  -0.040 -0.5306 -1.1391 -1.2989
 2907TIP3   OH230211   4.503   4.033   2.176 -0.2420  0.1247  0.4784
 2907TIP3    H130212   4.564   4.004   2.108  0.8762  1.7607  0.7172
 2907TIP3    H230213   4.432   4.076   2.128  0.1460  0.5707  0.2975
 2908TIP3   OH230214   4.018   6.440   5.590  0.0104 -0.3802 -0.4599
 2908TIP3    H130215   4.000   6.400   5.676 -0.2002 -1.1457 -0.8493
 2908TIP3    H230216   3.938   6.426   5.540  0.0581  0.2546 -0.7168
 2909TIP3   OH230217   6.395   1.511  14.155 -1.0458 -0.3619 -0.4174
 2909TIP3    H130218   6.485   1.542  14.148 -0.7032 -1.0100  0.7673
 2909TIP3    H230219   6.344   1.589  14.177 -0.4964 -0.2758  0.6070
 2910TIP3   OH230220   1.376   3.208  14.147 -0.0852  0.9084 -0.2815
 2910TIP3    H130221   1.461   3.247  14.127  0.6214 -0.4239 -0.0047
 2910TIP3    H230222   1.369   3.135  14.086  0.0675 -0.4594  1.2762
 2911TIP3   OH230223   2.469   6.310   2.377  0.1852 -0.5234 -0.1535
 2911TIP3    H130224   2.392   6.254   2.366 -0.6656  0.6984 -0.8034
 2911TIP3    H230225   2.452   6.357   2.459 -0.8060  1.2250 -1.2989
 2912TIP3   OH230226   4.145   4.572   2.500 -0.7567  0.1073 -0.3947
 2912TIP3    H130227   4.136   4.491   2.550  1.5050 -0.3032 -0.5602
 2912TIP3    H230228   4.122   4.642   2.562 -3.4608 -0.6056 -0.4562
 2913TIP3   OH230229   4.853   2.705  11.917 -0.7469 -0.0455 -0.5826
 2913TIP3    H130230   4.808   2.701  11.832  0.0003 -2.4463 -0.9448
 2913TIP3    H230231   4.860   2.613  11.944  1.1428  0.4942  0.9388
 2914TIP3   OH230232   0.946   1.819  13.153 -0.1886 -0.1824  0.1974
 2914TIP3    H130233   0.957   1.815  13.058 -0.4857  4.2534 -0.2467
 2914TIP3    H230234   0.857   1.851  13.165  0.6774  1.8972  1.7188
 2915TIP3   OH230235   3.520   1.876   1.036 -0.5991  0.0278  0.8712
 2915TIP3    H130236   3.574   1.954   1.043 -2.6417  1.4379  2.4678
 2915TIP3    H230237   3.481   1.881   0.948 -1.6343  1.5319  1.3727
 2916TIP3   OH230238   0.342   6.347   4.132 -0.2164  0.2446  0.1170
 2916TIP3    H130239   0.391   6.360   4.213  2.1286 -1.4156 -0.9044
 2916TIP3    H230240   0.323   6.253   4.130 -0.2494  0.2618 -1.2196
 2917TIP3   OH230241   3.966   1.994  11.982  0.6003  0.6962  0.3403
 2917TIP3    H130242   3.914   2.074  11.993  0.8523  0.8819  0.1643
 2917TIP3    H230243   3.900   1.925  11.971  0.3522  0.7411  1.3520
 2918TIP3   OH230244   2.385   3.362   4.300  0.4446  0.2682  0.4028
 2918TIP3    H130245   2.305   3.338   4.255  0.4275 -0.6540  0.8972
 2918TIP3    H230246   2.370   3.451   4.332 -0.2552  0.2094  0.2355
 2919TIP3   OH230247   6.330   2.812  14.765 -0.5006 -0.7324 -0.1077
 2919TIP3    H130248   6.338   2.856  14.680  1.5399  0.4447  0.6230
 2919TIP3    H230249   6.236   2.807  14.781 -0.8885 -0.0162 -1.9321
 2920TIP3   OH230250   2.837   4.050   4.599  0.0062 -0.2954  0.0613
 2920TIP3    H130251   2.803   4.140   4.594  1.6759  0.3091 -1.6905
 2920TIP3    H230252   2.762   3.995   4.577 -0.9577  0.6759  0.7911
 2921TIP3   OH230253   5.425   4.873   4.981  0.6561  0.4355 -0.4759
 2921TIP3    H130254   5.466   4.947   4.936  2.6381  0.4200  1.1358
 2921TIP3    H230255   5.492   4.804   4.980 -0.2384 -0.4791  0.1914
 2922TIP3   OH230256   2.967   3.081   0.162 -0.0145 -0.3991 -0.2892
 2922TIP3    H130257   3.025   3.051   0.232  2.0108  0.8673 -1.3163
 2922TIP3    H230258   2.987   3.175   0.153 -1.6195 -0.1109 -1.2969
 2923TIP3   OH230259   0.013   0.141  14.564 -0.0525  0.2164  0.1117
 2923TIP3    H130260  -0.036   0.192  14.500 -2.3852 -0.5204  1.1711
 2923TIP3    H230261   0.104   0.167  14.552 -0.8698  3.0110 -0.8184
 2924TIP3   OH230262   1.533   0.119  13.099 -0.2304  0.0409 -0.2815
 2924TIP3    H130263   1.449   0.076  13.111  0.0625 -0.9498 -1.5617
 2924TIP3    H230264   1.543   0.174  13.177 -0.9570 -1.6355  1.0567
 2925TIP3   OH230265   1.704   3.202   4.677 -0.2809 -0.6143 -0.0583
 2925TIP3    H130266   1.713   3.251   4.595  1.7470 -1.1744 -0.2353
 2925TIP3    H230267   1.757   3.124   4.664 -0.8339 -1.2768  1.4001
 2926TIP3   OH230268   5.533   3.874  15.284 -0.3728 -0.1120  0.0219
 2926TIP3    H130269   5.517   3.781  15.301 -0.6065  0.2278  1.8618
 2926TIP3    H230270   5.543   3.880  15.189 -0.4578 -1.9962 -0.1349
 2927TIP3   OH230271   5.477   1.812   4.315 -0.2504  0.1918 -0.0917
 2927TIP3    H130272   5.445   1.751   4.382  0.8456 -1.2743 -0.8611
 2927TIP3    H230273   5.540   1.866   4.362 -1.3119  0.8658  0.6266
 2928TIP3   OH230274   2.395   0.250  13.677 -0.2950  1.0273  0.6503
 2928TIP3    H130275   2.481   0.219  13.707 -0.4244 -0.5065 -0.4461
 2928TIP3    H230276   2.413   0.335  13.638  1.5052 -0.7411 -2.9293
 2929TIP3   OH230277   5.131   1.500  17.089  0.0857 -0.7470 -0.3939
 2929TIP3    H130278   5.149   1.470  17.000 -0.1771 -0.8355 -0.4162
 2929TIP3    H230279   5.093   1.587  17.077  2.3572  0.3350 -0.2691
 2930TIP3   OH230280   3.973   0.310  15.151  0.0661 -0.1776 -0.5752
 2930TIP3    H130281   4.064   0.286  15.167 -0.1486 -1.2045 -0.8069
 2930TIP3    H230282   3.955   0.278  15.062  0.1395  2.0501 -1.4444
 2931TIP3   OH230283   5.917   5.744   3.215 -0.4047  0.1941  0.1604
 2931TIP3    H130284   5.930   5.723   3.123 -0.4330 -0.3606  0.2769
 2931TIP3    H230285   5.964   5.826   3.228 -0.0651  0.0713 -0.2561
 2932TIP3   OH230286   3.877   3.657   4.051 -0.7672  0.6728 -0.5473
 2932TIP3    H130287   3.835   3.595   4.110 -1.3828  2.0776  0.5617
 2932TIP3    H230288   3.832   3.644   3.967  0.2280 -1.4523 -0.8233
 2933TIP3   OH230289   2.830   0.541  13.506 -0.2217  0.7817 -0.3873
 2933TIP3    H130290   2.917   0.507  13.527 -0.2037  0.7813 -0.4653
 2933TIP3    H230291   2.844   0.605  13.437 -0.4206 -0.0955 -1.2542
 2934TIP3   OH230292   6.097   6.347  13.947  0.4490 -0.3423  0.1578
 2934TIP3    H130293   6.105   6.329  14.041  0.1387 -3.2261 -0.2604
 2934TIP3    H230294   6.004   6.333  13.928  0.3266  1.1532 -0.4470
 2935TIP3   OH230295   3.492   5.476   4.666 -0.7606  0.3138 -0.4590
 2935TIP3    H130296   3.412   5.426   4.651  0.0422 -0.5518 -2.2596
 2935TIP3    H230297   3.520   5.501   4.578  1.2656  0.0461  0.0707
 2936TIP3   OH230298   2.203   6.052  15.718  0.0333  0.0611 -0.3656
 2936TIP3    H130299   2.262   6.097  15.658  0.4159 -0.5289 -0.4383
 2936TIP3    H230300   2.165   6.122  15.771 -0.6440  0.6247 -1.5829
 2937TIP3   OH230301   1.894   2.959   2.482 -0.1270  0.1325 -0.0338
 2937TIP3    H130302   1.970   2.925   2.435  0.2876  1.4462 -0.3728
 2937TIP3    H230303   1.930   3.027   2.539 -0.9000 -0.0302  0.6677
 2938TIP3   OH230304   1.237   2.345  11.823 -0.0768 -0.2522  0.0324
 2938TIP3    H130305   1.213   2.266  11.872  0.1345 -1.3209 -1.5241
 2938TIP3    H230306   1.197   2.416  11.872 -0.1696 -1.2998  1.5548
 2939TIP3   OH230307   2.207   5.635   1.130  0.0807 -0.3211 -0.4412
 2939TIP3    H130308   2.171   5.578   1.062 -1.0629 -0.7203  0.4679
 2939TIP3    H230309   2.297   5.603   1.142 -0.8314 -2.7215  0.8044
 2940TIP3   OH230310   4.988   3.342   1.222  0.1794 -0.5000  0.5983
 2940TIP3    H130311   5.053   3.354   1.292  0.6321 -0.8754  0.2544
 2940TIP3    H230312   4.921   3.285   1.261  1.6800 -2.8267  0.0054
 2941TIP3   OH230313   0.265   2.060  14.745 -0.2971 -0.1513  0.1634
 2941TIP3    H130314   0.357   2.033  14.737 -0.2621  0.3588 -1.9271
 2941TIP3    H230315   0.219   2.008  14.679 -1.5719 -0.5359  1.3107
 2942TIP3   OH230316   1.646   4.003   1.948 -0.0071 -0.5370 -0.4951
 2942TIP3    H130317   1.568   4.000   1.892 -0.7741 -5.0359  0.4613
 2942TIP3    H230318   1.714   4.039   1.892 -1.8978  0.0231 -2.5935
 2943TIP3   OH230319   0.799   1.089  15.333  0.7480 -0.4484 -0.7227
 2943TIP3    H130320   0.809   1.184  15.322  0.4315 -0.4146 -0.7151
 2943TIP3    H230321   0.885   1.060  15.361  0.3293  0.1272  1.3416
 2944TIP3   OH230322   4.709   3.477   4.480 -0.2323  0.3643 -0.6347
 2944TIP3    H130323   4.615   3.490   4.494 -0.5564 -0.0633 -2.2536
 2944TIP3    H230324   4.718   3.463   4.386  1.6090  1.5483 -0.6827
 2945TIP3   OH230325   3.689   1.519   4.820 -0.3478 -0.0638 -0.0734
 2945TIP3    H130326   3.634   1.489   4.747  0.2588  0.3077 -0.6994
 2945TIP3    H230327   3.700   1.613   4.805  1.0721 -0.2561 -0.4037
 2946TIP3   OH230328   5.005   4.625   2.217 -0.9262 -0.0827  0.2782
 2946TIP3    H130329   5.064   4.588   2.282 -0.7007  0.0264  0.1361
 2946TIP3    H230330   4.941   4.675   2.268 -0.6460  0.1483  0.4053
 2947TIP3   OH230331   0.222   4.799   4.018 -0.0602  0.5099 -0.0925
 2947TIP3    H130332   0.147   4.743   4.040 -0.5504  1.8987  2.1960
 2947TIP3    H230333   0.249   4.771   3.931 -2.4102 -0.9497 -0.4412
 2948TIP3   OH230334   4.027   5.079  15.121  0.4299  0.2901 -0.3987
 2948TIP3    H130335   3.996   5.116  15.039  0.1838  0.2020 -0.3478
 2948TIP3    H230336   3.980   4.996  15.129 -1.2441  1.2939  0.9009
 2949TIP3   OH230337   3.319   6.850  13.642  0.4326  0.7428 -0.3718
 2949TIP3    H130338   3.280   6.841  13.555 -0.4212  2.0551 -0.1511
 2949TIP3    H230339   3.250   6.822  13.702  0.4644  1.3323 -0.0545
 2950TIP3   OH230340   5.460   5.218   5.801  0.1420  0.2517  0.8939
 2950TIP3    H130341   5.428   5.147   5.857 -0.3064  0.7376  1.2666
 2950TIP3    H230342   5.554   5.201   5.791 -0.0072 -0.5175  0.7884
 2951TIP3   OH230343   3.163   1.212  11.243  0.5122  0.0606  0.8093
 2951TIP3    H130344   3.213   1.293  11.250  1.9483 -0.5029 -1.6927
 2951TIP3    H230345   3.216   1.147  11.290  1.5778 -0.2425 -0.7064
 2952TIP3   OH230346   4.859   6.634   6.255  0.0867  0.1500  0.0154
 2952TIP3    H130347   4.833   6.712   6.206  1.6855 -0.4331 -1.8752
 2952TIP3    H230348   4.911   6.669   6.328  2.0441  0.8501 -1.6333
 2953TIP3   OH230349   0.656   5.222  12.259  0.2153  0.0630  0.1033
 2953TIP3    H130350   0.614   5.282  12.320 -0.4731 -0.8953  0.6080
 2953TIP3    H230351   0.610   5.236  12.176 -1.8858 -1.6693  0.8787
 2954TIP3   OH230352   2.077   0.130   1.288 -0.2093 -0.5193 -0.1889
 2954TIP3    H130353   2.108   0.202   1.234 -1.2848 -0.1595 -0.3661
 2954TIP3    H230354   1.996   0.164   1.328 -0.6285 -1.5543 -0.1218
 2955TIP3   OH230355   1.296   6.499  15.909  0.2489 -0.2934 -0.1756
 2955TIP3    H130356   1.282   6.406  15.924 -1.5759  0.2380  2.1995
 2955TIP3    H230357   1.369   6.522  15.966 -0.5753  0.0240  0.7968
 2956TIP3   OH230358   0.859   0.477  13.589  0.3191 -0.3358  0.0550
 2956TIP3    H130359   0.877   0.442  13.501  0.1245  1.6166 -0.8181
 2956TIP3    H230360   0.933   0.535  13.607  0.1754 -0.4455  1.0460
 2957TIP3   OH230361   2.383   4.913  13.953 -0.3374 -0.3018 -0.2695
 2957TIP3    H130362   2.299   4.956  13.937 -0.2124  0.3454  0.7094
 2957TIP3    H230363   2.392   4.850  13.882 -2.3748 -1.4599  0.4171
 2958TIP3   OH230364   1.121   1.776   0.163  0.2824  0.0348  0.1126
 2958TIP3    H130365   1.131   1.853   0.220  1.3327 -0.9451  1.3260
 2958TIP3    H230366   1.029   1.752   0.172  0.0502  0.8729  0.0792
 2959TIP3   OH230367   0.796   2.325   3.891  0.2006 -0.2052 -0.1239
 2959TIP3    H130368   0.728   2.326   3.959 -0.0481 -1.5184 -0.3244
 2959TIP3    H230369   0.865   2.382   3.925 -0.9819  1.1553  0.0831
 2960TIP3   OH230370   4.239   4.088  11.082  0.5296 -0.7298  0.5949
 2960TIP3    H130371   4.327   4.064  11.110  1.4700  0.2383 -1.3513
 2960TIP3    H230372   4.235   4.063  10.989 -0.4661  1.1668  0.0593
 2961TIP3   OH230373   3.731   0.930  16.597 -0.1633  0.4827 -0.1219
 2961TIP3    H130374   3.730   0.927  16.502  1.8395  1.6941 -0.2387
 2961TIP3    H230375   3.668   0.863  16.624  0.8984 -1.5001 -2.2712
 2962TIP3   OH230376   6.042   5.263   1.882 -0.0927 -0.2628 -0.7850
 2962TIP3    H130377   5.983   5.321   1.833  0.4394  0.5310 -0.5042
 2962TIP3    H230378   6.016   5.174   1.855 -1.2669  0.0704 -0.8248
 2963TIP3   OH230379   4.727   6.076  10.262  0.7064  0.3180 -0.1453
 2963TIP3    H130380   4.758   5.999  10.310  0.2482  0.6573  0.7317
 2963TIP3    H230381   4.692   6.133  10.330 -2.2737 -0.2360 -1.0582
 2964TIP3   OH230382   5.374   2.285   2.885  0.2035 -0.2475  0.5230
 2964TIP3    H130383   5.400   2.197   2.913 -0.4281  0.0095  1.9962
 2964TIP3    H230384   5.392   2.341   2.960 -1.7962  0.4357  0.5660
 2965TIP3   OH230385   4.000   3.946  13.936 -0.2783  0.4562 -0.0525
 2965TIP3    H130386   4.059   3.881  13.973 -1.2770  1.2780  3.3945
 2965TIP3    H230387   4.011   4.023  13.991 -3.5666  1.0621  0.0070
 2966TIP3   OH230388   3.684   4.118   0.253  0.1058 -0.0273  0.0138
 2966TIP3    H130389   3.716   4.050   0.313 -1.4620  0.4186  1.4390
 2966TIP3    H230390   3.634   4.069   0.187 -0.1439 -0.3683  0.4423
 2967TIP3   OH230391   1.815   2.626  11.785  0.1917  0.1591 -0.1253
 2967TIP3    H130392   1.776   2.631  11.698  0.0232  2.4988  0.0251
 2967TIP3    H230393   1.745   2.654  11.844  0.9223  0.5851  0.5560
 2968TIP3   OH230394   0.373   5.374   5.192 -0.5410  0.4952  0.3129
 2968TIP3    H130395   0.444   5.439   5.197 -0.5043  0.4684  0.1340
 2968TIP3    H230396   0.416   5.290   5.210 -0.5247  0.4761  0.1804
 2969TIP3   OH230397   5.188   0.007   2.678  0.4466 -0.4071  0.3624
 2969TIP3    H130398   5.132  -0.067   2.654 -1.5043  1.5251 -1.5123
 2969TIP3    H230399   5.156   0.035   2.763 -1.6428  0.6980 -0.6950
 2970TIP3   OH230400   1.201   5.669   5.717 -0.0627 -0.1166  0.3150
 2970TIP3    H130401   1.194   5.666   5.812  1.8137 -1.1189  0.4761
 2970TIP3    H230402   1.259   5.595   5.695 -0.3466  0.1706 -1.5903
 2971TIP3   OH230403   0.758   3.151  15.507 -0.0882  0.3544  0.3594
 2971TIP3    H130404   0.825   3.119  15.446 -0.5586 -1.1670  0.5991
 2971TIP3    H230405   0.699   3.202  15.452  0.2886  0.2097 -0.1954
 2972TIP3   OH230406   3.554   6.039  16.423  0.1697 -0.1010 -0.0561
 2972TIP3    H130407   3.490   6.079  16.364  0.2610  1.1691  0.6710
 2972TIP3    H230408   3.530   5.947  16.425  0.6212 -0.3559 -2.6442
 2973TIP3   OH230409   6.822   4.060  13.455  0.0048 -0.1291 -0.6340
 2973TIP3    H130410   6.729   4.036  13.455 -0.4884  1.3075 -3.8963
 2973TIP3    H230411   6.832   4.117  13.531 -1.5602 -0.9367  0.2269
 2974TIP3   OH230412   3.318   3.963   6.186  0.1037 -0.6913  0.3748
 2974TIP3    H130413   3.373   3.938   6.111 -0.8710 -0.6110 -0.3953
 2974TIP3    H230414   3.377   3.961   6.261  0.6958 -2.6318 -0.0838
 2975TIP3   OH230415   5.679   1.153  12.037 -0.2239  0.5674 -0.0701
 2975TIP3    H130416   5.708   1.089  11.972 -2.2338 -0.4120 -0.0836
 2975TIP3    H230417   5.628   1.216  11.987 -2.9087 -0.9064  0.5899
 2976TIP3   OH230418   2.928   0.623   0.207  0.0963 -0.4160  0.2846
 2976TIP3    H130419   2.878   0.668   0.275 -0.2312 -0.6354  0.1894
 2976TIP3    H230420   2.868   0.617   0.133  0.3634 -0.4168  0.0689
 2977TIP3   OH230421   0.344   3.967  14.803 -0.3748  0.0061 -0.1016
 2977TIP3    H130422   0.344   3.924  14.889  1.0121  0.8752  0.3603
 2977TIP3    H230423   0.274   4.031  14.809  0.4115  0.8094  0.7970
 2978TIP3   OH230424   4.836   0.098  11.053 -0.0364 -0.0045  0.5866
 2978TIP3    H130425   4.848   0.193  11.049  0.7051 -0.1307 -1.2728
 2978TIP3    H230426   4.855   0.076  11.144  0.7791  1.5232  0.8345
 2979TIP3   OH230427   2.807   6.217  15.278 -0.1139 -0.1041  0.4513
 2979TIP3    H130428   2.751   6.277  15.228 -0.9498  0.1877  1.6777
 2979TIP3    H230429   2.800   6.249  15.368  2.3117  0.1292  0.6122
 2980TIP3   OH230430   6.229   1.783  14.125 -0.2701  0.4079 -0.0858
 2980TIP3    H130431   6.170   1.856  14.143  2.9383  2.6869  2.2809
 2980TIP3    H230432   6.277   1.769  14.207  1.5354 -2.2127 -1.4167
 2981TIP3   OH230433   2.847   4.862  11.825  0.1865 -0.3753  1.0026
 2981TIP3    H130434   2.849   4.885  11.917  0.1779  0.4438  0.7991
 2981TIP3    H230435   2.816   4.771  11.824 -2.0461  0.3219  1.6524
 2982TIP3   OH230436   0.337   0.782  14.628  0.4965 -0.6798  0.6194
 2982TIP3    H130437   0.330   0.752  14.719 -1.9146 -1.2725  0.3065
 2982TIP3    H230438   0.321   0.876  14.633  3.1547 -0.1818  1.0544
 2983TIP3   OH230439   0.063   0.038  15.416 -0.0941  0.4440 -0.2188
 2983TIP3    H130440   0.014   0.119  15.400  1.3714  1.3693 -0.2500
 2983TIP3    H230441   0.007  -0.014  15.473 -0.9069  1.6464  0.1073
 2984TIP3   OH230442   4.607   1.337  12.422  0.3750  0.3215  0.3871
 2984TIP3    H130443   4.687   1.289  12.400  0.1603 -0.1369  0.6014
 2984TIP3    H230444   4.631   1.390  12.498  0.9126  1.3657 -0.4919
 2985TIP3   OH230445   0.005   2.043   3.284 -0.7929  0.1331  0.1107
 2985TIP3    H130446  -0.053   2.119   3.288  0.1378  0.8215  1.1870
 2985TIP3    H230447   0.091   2.080   3.267 -0.6959 -0.9144 -2.0784
 2986TIP3   OH230448   4.079   1.854   4.167  0.0904  0.4561  0.1331
 2986TIP3    H130449   4.007   1.813   4.118  0.3489  0.6857 -0.4517
 2986TIP3    H230450   4.040   1.879   4.250 -0.0368 -1.1216  0.5764
 2987TIP3   OH230451   5.072   1.055  12.439  0.4649  0.1720  0.7899
 2987TIP3    H130452   4.979   1.035  12.427  0.2076  0.3634  2.2401
 2987TIP3    H230453   5.118   0.990  12.386 -0.4885  1.6187 -2.0503
 2988TIP3   OH230454   5.321   2.620   0.854  0.0574 -0.8515 -0.1199
 2988TIP3    H130455   5.277   2.703   0.873 -1.3324 -1.1681 -1.6738
 2988TIP3    H230456   5.414   2.638   0.863 -0.1947  1.0415 -0.9547
 2989TIP3   OH230457   2.761   3.746  11.805 -0.3768  1.0509 -0.9107
 2989TIP3    H130458   2.849   3.774  11.780  0.6322  0.0383  1.2293
 2989TIP3    H230459   2.764   3.651  11.801 -2.0991  0.9949 -2.8600
 2990TIP3   OH230460   4.048   5.729   5.943 -0.0031 -0.1215  0.1713
 2990TIP3    H130461   3.986   5.788   5.985 -0.8296 -0.1021 -1.0470
 2990TIP3    H230462   4.105   5.700   6.015 -1.0609  0.2884  1.2053
 2991TIP3   OH230463   2.306   2.250  15.472  0.9955 -0.4222 -0.7586
 2991TIP3    H130464   2.328   2.266  15.564 -1.9060 -0.8244  0.1088
 2991TIP3    H230465   2.340   2.163  15.453 -0.0688 -1.1857  0.6134
 2992TIP3   OH230466   0.349   4.417   5.344  0.1611  0.0828  0.4416
 2992TIP3    H130467   0.387   4.505   5.345 -0.3614  0.3445 -0.6414
 2992TIP3    H230468   0.268   4.428   5.295 -0.0196 -0.9663  0.5025
 2993TIP3   OH230469   3.897   4.045  14.574  0.5219 -0.4080 -0.0832
 2993TIP3    H130470   3.899   4.022  14.667  0.6709 -1.3885 -0.3161
 2993TIP3    H230471   3.922   3.964  14.529 -0.1518 -0.1186 -1.0069
 2994TIP3   OH230472   5.260   6.042   4.413 -0.4163  0.4074 -0.3877
 2994TIP3    H130473   5.213   6.092   4.480  1.0534 -2.0822  2.7598
 2994TIP3    H230474   5.199   5.973   4.388 -1.4654  2.0522 -2.8312
 2995TIP3   OH230475   2.006   5.029   5.010 -0.0813 -0.2355  0.5447
 2995TIP3    H130476   2.023   4.951   4.958  0.5749  0.3354 -0.1084
 2995TIP3    H230477   2.041   5.101   4.958 -1.0619  0.5501  0.9414
 2996TIP3   OH230478   0.526   1.822   4.704  0.2181  0.6807  0.1738
 2996TIP3    H130479   0.509   1.764   4.778  0.2413  0.0986 -0.2733
 2996TIP3    H230480   0.619   1.841   4.708  0.8461 -1.6634 -1.3351
 2997TIP3   OH230481   1.533   5.927   6.445 -0.2128 -0.5821  0.1605
 2997TIP3    H130482   1.627   5.915   6.433  0.2498  1.6724  1.0024
 2997TIP3    H230483   1.496   5.919   6.357  0.6892 -1.8320 -0.1331
 2998TIP3   OH230484   3.918   6.517  12.443  0.1841 -0.1179  0.5510
 2998TIP3    H130485   3.957   6.604  12.452  0.6753 -0.3289  0.4867
 2998TIP3    H230486   3.931   6.475  12.528 -1.8325  0.5726  1.2609
 2999TIP3   OH230487   5.409   4.485  12.044  0.2096  0.4962  0.1213
 2999TIP3    H130488   5.418   4.408  11.987 -2.2454 -0.9456  1.4956
 2999TIP3    H230489   5.442   4.456  12.129 -0.5865  0.9924  0.6160
 3000TIP3   OH230490   1.846   6.144  14.023  0.2635 -0.3738 -0.1328
 3000TIP3    H130491   1.921   6.154  13.964  0.6008 -2.1295 -0.0566
 3000TIP3    H230492   1.776   6.192  13.979  1.2080  0.6342 -0.6045
 3001TIP3   OH230493   3.081   2.175   1.805 -0.0321 -0.0701  0.5800
 3001TIP3    H130494   3.013   2.207   1.745 -1.4730 -0.4217  1.9505
 3001TIP3    H230495   3.061   2.082   1.816  1.9531 -0.6793 -0.5902
 3002TIP3   OH230496   6.494   6.835   1.089 -0.1166 -0.1462 -0.3056
 3002TIP3    H130497   6.481   6.767   1.023  1.0005 -0.2990 -0.3859
 3002TIP3    H230498   6.548   6.901   1.045 -2.1840  1.4400 -0.6414
 3003TIP3   OH230499   1.861   6.104  12.023  0.3661 -0.4289  0.0238
 3003TIP3    H130500   1.917   6.130  12.096  0.3342 -0.2470 -0.0155
 3003TIP3    H230501   1.896   6.153  11.948  0.5401 -0.7846 -0.1304
 3004TIP3   OH230502   6.060   0.274   0.078  0.6457  0.2966  0.1504
 3004TIP3    H130503   5.980   0.313   0.113  0.1689  1.0160 -1.6215
 3004TIP3    H230504   6.093   0.339   0.016  2.4868 -0.0992  0.6365
 3005TIP3   OH230505   6.336   1.075  15.908 -0.4356 -0.7053 -0.6098
 3005TIP3    H130506   6.377   0.989  15.908 -1.8440 -1.4068 -0.1145
 3005TIP3    H230507   6.297   1.082  15.995  0.8176  1.0287 -0.1339
 3006TIP3   OH230508   3.205   5.637   5.009  0.2079  0.1487  0.4995
 3006TIP3    H130509   3.126   5.584   5.015 -0.7920  1.5323 -0.0054
 3006TIP3    H230510   3.206   5.689   5.089  0.7235  0.0059  0.5945
 3007TIP3   OH230511   1.746   4.674  12.092 -0.0122  0.2420 -0.3105
 3007TIP3    H130512   1.672   4.617  12.070 -0.0419  1.6093 -4.9034
 3007TIP3    H230513   1.823   4.626  12.059  0.4294  1.1600 -0.6413
 3008TIP3   OH230514   0.535   6.315  16.668 -0.0856  0.2815  0.2314
 3008TIP3    H130515   0.458   6.311  16.724 -0.6487  0.2047 -0.5387
 3008TIP3    H230516   0.552   6.408  16.655 -0.4128  0.2957 -0.0922
 3009TIP3   OH230517   4.519   6.809  13.149 -0.0261 -1.1211  0.2128
 3009TIP3    H130518   4.596   6.777  13.196 -1.4271 -1.3535  2.4606
 3009TIP3    H230519   4.445   6.768  13.193 -1.5564  0.5742 -0.6711
 3010TIP3   OH230520   5.824   3.417   2.079  0.1907  0.8517 -0.3556
 3010TIP3    H130521   5.846   3.488   2.140  0.3302  2.3328 -2.0375
 3010TIP3    H230522   5.909   3.391   2.041  0.2226 -0.6841  0.6833
 3011TIP3   OH230523   3.686   3.065   3.018  0.1465  0.1166  0.2372
 3011TIP3    H130524   3.739   2.985   3.022  0.8959  0.6050  0.1337
 3011TIP3    H230525   3.606   3.037   2.974 -0.7830 -1.2186  2.5751
 3012TIP3   OH230526   3.526   5.092  11.871 -0.1982 -0.1599 -0.0180
 3012TIP3    H130527   3.440   5.060  11.898  0.1619 -1.0450  0.1194
 3012TIP3    H230528   3.524   5.186  11.889 -0.9861 -0.2452  0.3669
 3013TIP3   OH230529   5.049   0.244  14.263 -0.1085  0.3525 -0.6899
 3013TIP3    H130530   5.097   0.307  14.210 -1.4835 -0.1492 -2.6121
 3013TIP3    H230531   5.010   0.296  14.333 -0.3995  1.4818 -1.6609
 3014TIP3   OH230532   0.367   5.393   4.061  0.3707 -0.6348 -0.5552
 3014TIP3    H130533   0.348   5.403   4.155  2.7375  3.4238 -0.2623
 3014TIP3    H230534   0.453   5.351   4.058  1.1931  0.9844 -0.7211
 3015TIP3   OH230535   1.832   0.929  15.188  0.2217 -0.2277  0.3172
 3015TIP3    H130536   1.838   0.949  15.281 -0.2008  0.3458  0.2251
 3015TIP3    H230537   1.760   0.866  15.181 -0.6980  0.8168  0.2200
 3016TIP3   OH230538   3.009   5.843  13.018 -0.5322  0.2001 -0.3203
 3016TIP3    H130539   2.978   5.783  13.086  1.5694  1.8829  2.3347
 3016TIP3    H230540   3.073   5.792  12.968 -0.0379 -0.3186  0.7934
 3017TIP3   OH230541   0.285   0.541   5.410  0.5569  0.1235  0.5668
 3017TIP3    H130542   0.213   0.541   5.346  1.2847 -1.0871 -0.2995
 3017TIP3    H230543   0.242   0.536   5.495 -0.4230  1.3126  0.1736
 3018TIP3   OH230544   5.676   3.151  14.168  0.1993 -0.3344 -0.1066
 3018TIP3    H130545   5.688   3.130  14.261 -1.1384 -0.6356  0.0082
 3018TIP3    H230546   5.681   3.066  14.124 -0.5417 -0.3618 -0.1494
 3019TIP3   OH230547   1.831   2.574   1.507  0.0095  0.2806  0.1788
 3019TIP3    H130548   1.791   2.644   1.457 -0.4280 -0.4127 -0.4622
 3019TIP3    H230549   1.912   2.552   1.460 -0.6062 -0.6464 -0.4745
 3020TIP3   OH230550   5.487   3.198  12.039 -0.5929  0.0723  0.6424
 3020TIP3    H130551   5.425   3.250  12.092 -0.1739  0.7070  0.5211
 3020TIP3    H230552   5.514   3.258  11.969 -0.4106 -0.4519  0.2630
 3021TIP3   OH230553   1.970   6.350   6.350  0.8418  0.2005  0.1767
 3021TIP3    H130554   1.961   6.311   6.438 -0.8803 -0.9173 -0.4413
 3021TIP3    H230555   2.037   6.417   6.361  3.0200 -2.0150  1.6482
 3022TIP3   OH230556   4.792   3.091  10.330 -0.5809 -0.4838  0.4096
 3022TIP3    H130557   4.787   3.130  10.242  0.1361  0.9074  0.9602
 3022TIP3    H230558   4.886   3.083  10.347 -0.7142 -1.6759  0.6755
 3023TIP3   OH230559   0.606   2.749  11.246  0.4477  0.2377 -0.0962
 3023TIP3    H130560   0.630   2.841  11.257 -0.4068  0.8606 -2.6680
 3023TIP3    H230561   0.553   2.728  11.322  2.7592  1.0627  1.8560
 3024TIP3   OH230562   5.598   0.149   2.441 -0.0407 -0.3931 -0.0942
 3024TIP3    H130563   5.567   0.083   2.503 -1.8589  0.5419  0.0501
 3024TIP3    H230564   5.618   0.100   2.361  1.2105 -1.4562  0.8251
 3025TIP3   OH230565   5.365   3.192   2.320 -0.8714  0.1137 -0.5071
 3025TIP3    H130566   5.424   3.252   2.274  1.0358 -1.2080  0.0717
 3025TIP3    H230567   5.312   3.248   2.376  0.6273  1.3143 -0.2198
 3026TIP3   OH230568   5.808   4.782   5.095 -1.1024 -0.2770  0.0183
 3026TIP3    H130569   5.798   4.873   5.066 -1.8120 -0.3796 -0.0666
 3026TIP3    H230570   5.837   4.789   5.186  0.0303  0.0374 -0.3416
 3027TIP3   OH230571   6.654   4.489   1.903 -0.0241 -0.1902 -0.0586
 3027TIP3    H130572   6.631   4.503   1.994  0.1073 -1.4717  0.1877
 3027TIP3    H230573   6.598   4.549   1.854  0.9209  1.5688  0.9252
 3028TIP3   OH230574   0.391   1.698  14.903  0.1654  0.3502 -0.7331
 3028TIP3    H130575   0.419   1.769  14.962 -2.8983  1.2594 -0.1771
 3028TIP3    H230576   0.448   1.624  14.925  0.8355  1.4638  1.5496
 3029TIP3   OH230577   5.097   6.786   0.981  0.1764  0.0935 -0.2653
 3029TIP3    H130578   5.034   6.817   1.046  1.6719  0.7265  0.9492
 3029TIP3    H230579   5.113   6.862   0.926  1.7023  0.7291  0.9701
 3030TIP3   OH230580   4.206   3.015   1.825 -0.1130 -0.2383 -0.0267
 3030TIP3    H130581   4.124   2.972   1.847 -0.4376 -0.5295 -1.6972
 3030TIP3    H230582   4.234   2.975   1.743  0.9888  0.8142 -0.2057
 3031TIP3   OH230583   6.461   3.164  16.228  0.5501  0.2690 -0.1178
 3031TIP3    H130584   6.393   3.113  16.184  2.3603  0.5658 -3.6053
 3031TIP3    H230585   6.448   3.253  16.196  1.5103  0.6950  0.6326
 3032TIP3   OH230586   4.122   3.547   3.101 -0.4553  0.8354  0.1163
 3032TIP3    H130587   4.029   3.569   3.092 -0.7110  0.1812  0.9723
 3032TIP3    H230588   4.139   3.484   3.031 -0.7757  0.6259  0.2229
 3033TIP3   OH230589   5.722   1.433   0.007  0.0945  0.3070 -0.5608
 3033TIP3    H130590   5.753   1.412   0.095  0.5371 -0.8539 -0.9796
 3033TIP3    H230591   5.632   1.461   0.020  1.0087  3.1075  0.6074
 3034TIP3   OH230592   2.829   2.218   0.892 -0.3226 -0.4380  0.3302
 3034TIP3    H130593   2.778   2.155   0.842 -0.1187 -0.8371  0.6217
 3034TIP3    H230594   2.920   2.192   0.879  0.0747  1.8118 -2.3420
 3035TIP3   OH230595   0.926   4.732  15.598  0.1272 -0.3161  0.1105
 3035TIP3    H130596   0.869   4.706  15.670  1.0595 -2.3816  0.1561
 3035TIP3    H230597   0.885   4.696  15.520 -0.9513  2.0253 -0.4889
 3036TIP3   OH230598   4.547   0.783  15.687 -0.5307 -0.0258  0.5598
 3036TIP3    H130599   4.628   0.785  15.738 -1.0148 -0.4285  1.3510
 3036TIP3    H230600   4.481   0.820  15.745 -1.1827 -0.9142  0.3999
 3037TIP3   OH230601   1.297   2.464   6.281 -0.4046  0.0937 -0.0231
 3037TIP3    H130602   1.370   2.511   6.241  0.3021  0.9489  2.0994
 3037TIP3    H230603   1.221   2.489   6.228  0.7205 -0.4774 -2.0199
 3038TIP3   OH230604   3.010   6.443   4.158  0.7194 -0.3073 -0.2601
 3038TIP3    H130605   3.080   6.478   4.103  1.6931 -0.6032  0.7579
 3038TIP3    H230606   2.939   6.423   4.097  0.5642  2.2995 -1.0398
 3039TIP3   OH230607   4.871   0.839   4.551  0.3569 -0.1278  0.0772
 3039TIP3    H130608   4.814   0.889   4.609  0.7858 -0.1753  0.5431
 3039TIP3    H230609   4.917   0.906   4.500 -0.3260 -0.0953 -0.5175
 3040TIP3   OH230610   3.531   5.894   3.105 -0.3111 -0.1054  0.2092
 3040TIP3    H130611   3.475   5.956   3.059  0.8118  0.0384 -1.0159
 3040TIP3    H230612   3.608   5.946   3.130 -0.4137 -0.4498  1.2829
 3041TIP3   OH230613   4.830   1.274   1.446  0.1910 -0.1896  0.7280
 3041TIP3    H130614   4.831   1.367   1.469  0.5293 -0.2357  0.9029
 3041TIP3    H230615   4.800   1.272   1.355  0.5412  0.1167  0.6047
 3042TIP3   OH230616   3.974   1.990  13.455  0.3147 -0.1749 -0.4417
 3042TIP3    H130617   3.981   1.915  13.514 -3.5373 -0.1513  0.3241
 3042TIP3    H230618   3.911   1.962  13.388  0.5078  1.6235 -1.4358
 3043TIP3   OH230619   3.115   3.960   0.855  0.1267 -0.2446 -0.2209
 3043TIP3    H130620   3.020   3.952   0.860 -0.0314  1.7651  1.3141
 3043TIP3    H230621   3.147   3.875   0.885 -1.0958 -1.7255 -2.7624
 3044TIP3   OH230622   0.593   0.929   4.742 -0.5256  0.3389  0.2919
 3044TIP3    H130623   0.527   0.942   4.809 -2.3436  0.5684 -1.4503
 3044TIP3    H230624   0.608   1.016   4.706  0.4879  0.2324  0.4216
 3045TIP3   OH230625   1.528   3.028  11.457 -0.3984 -0.9434 -0.0728
 3045TIP3    H130626   1.520   3.053  11.549  0.2895 -1.4875  0.1467
 3045TIP3    H230627   1.470   3.088  11.411 -0.6463 -0.5707  0.7010
 3046TIP3   OH230628   5.087   6.111  15.489  0.4027 -0.0561 -0.1282
 3046TIP3    H130629   5.051   6.054  15.421  0.4220 -0.4378  0.1778
 3046TIP3    H230630   5.163   6.152  15.448  1.9454 -2.1738  0.3992
 3047TIP3   OH230631   4.236   0.212  13.644  0.4294  0.6208  0.0724
 3047TIP3    H130632   4.167   0.276  13.662  2.4603  2.5249  1.6543
 3047TIP3    H230633   4.309   0.264  13.610  0.8041 -1.4617 -2.6681
 3048TIP3   OH230634   5.180   1.350  11.267 -0.1549 -0.4438 -0.0990
 3048TIP3    H130635   5.274   1.334  11.259  0.3913  1.0220  2.3208
 3048TIP3    H230636   5.167   1.374  11.358 -2.7760  0.1805 -0.5387
 3049TIP3   OH230637   6.066   0.051   0.519  0.5057 -0.2369 -0.8112
 3049TIP3    H130638   6.061   0.073   0.612 -0.3054 -0.2173 -0.8538
 3049TIP3    H230639   6.080  -0.043   0.516 -0.6427 -0.4228 -0.6728
 3050TIP3   OH230640   0.556   3.824  14.722  0.5007  0.0087 -0.2559
 3050TIP3    H130641   0.644   3.855  14.699  0.3120  0.2724 -0.6428
 3050TIP3    H230642   0.507   3.904  14.741  0.4517 -0.1628  0.3559
 3051TIP3   OH230643   4.618   4.502   5.979 -0.2642 -0.0388 -0.3075
 3051TIP3    H130644   4.638   4.439   5.909  0.0237 -1.2770  0.8401
 3051TIP3    H230645   4.697   4.554   5.988  0.8740 -1.9053  1.1278
 3052TIP3   OH230646   3.501   2.283   5.253  0.7477  0.0758  0.2098
 3052TIP3    H130647   3.482   2.312   5.164  1.5851  0.5324  0.1682
 3052TIP3    H230648   3.416   2.256   5.289  0.4315 -0.2643 -0.7760
 3053TIP3   OH230649   2.971   0.617   2.961  0.0852 -0.3676 -0.1896
 3053TIP3    H130650   2.976   0.686   2.895  0.3188  0.0950  0.3047
 3053TIP3    H230651   3.047   0.632   3.017  0.2891 -1.1863 -0.2199
 3054TIP3   OH230652   6.618   1.175  16.039 -0.0946 -0.4678 -0.2377
 3054TIP3    H130653   6.598   1.152  15.948  1.4699  0.3293 -0.8197
 3054TIP3    H230654   6.563   1.117  16.091 -0.8053 -1.1523 -1.6902
 3055TIP3   OH230655   3.967   5.392  10.591  0.2915 -0.1256  0.3878
 3055TIP3    H130656   3.954   5.325  10.523 -0.8221 -1.1063  1.5206
 3055TIP3    H230657   4.017   5.461  10.547 -0.9381 -0.4349 -1.6186
 3056TIP3   OH230658   0.557   0.259  11.487 -0.4073  0.4138 -0.2860
 3056TIP3    H130659   0.473   0.244  11.444 -0.6739  0.4553  0.2145
 3056TIP3    H230660   0.536   0.263  11.580  0.2345 -0.2108 -0.1065
 3057TIP3   OH230661   4.948   3.441   3.363 -0.3778 -0.2199  0.1921
 3057TIP3    H130662   4.895   3.521   3.374  1.2738  1.4267 -2.6590
 3057TIP3    H230663   5.038   3.471   3.366  0.3860 -2.4140  1.3482
 3058TIP3   OH230664   5.160   0.869   0.751  0.3428  0.1710  0.2238
 3058TIP3    H130665   5.166   0.856   0.656 -0.8351  1.8078 -0.1303
 3058TIP3    H230666   5.131   0.785   0.785 -1.6627  0.2042 -1.2068
 3059TIP3   OH230667   6.592   0.922   0.837  0.1456 -0.0729  0.3758
 3059TIP3    H130668   6.601   0.849   0.776 -0.3577  0.2477 -0.0891
 3059TIP3    H230669   6.681   0.952   0.853  0.2158  0.6889 -1.2386
 3060TIP3   OH230670   3.640   5.469  16.232  0.4872  0.2416  0.5324
 3060TIP3    H130671   3.584   5.396  16.207 -1.6658  1.9169  0.1495
 3060TIP3    H230672   3.657   5.456  16.325 -2.6526  0.8766  1.3169
 3061TIP3   OH230673   2.228   3.578  12.215  0.2246  0.4234 -0.0654
 3061TIP3    H130674   2.310   3.624  12.195  0.6486 -0.3334 -0.1309
 3061TIP3    H230675   2.234   3.558  12.308  1.1107 -1.4716 -0.4730
 3062TIP3   OH230676   4.344   0.405   2.832  0.1372 -0.2022 -0.4501
 3062TIP3    H130677   4.367   0.403   2.739 -0.3088  1.0147 -0.6035
 3062TIP3    H230678   4.249   0.405   2.833  0.1125  1.4112 -0.0700
 3063TIP3   OH230679   5.536   1.641  12.678 -0.1094 -0.1605  0.4854
 3063TIP3    H130680   5.488   1.652  12.596 -0.5461 -1.8832  0.4853
 3063TIP3    H230681   5.481   1.684  12.744 -1.7446 -2.1379  0.4953
 3064TIP3   OH230682   3.845   3.281  12.971 -0.0452  0.5143  0.0669
 3064TIP3    H130683   3.762   3.329  12.976 -0.0584  0.7456 -1.7300
 3064TIP3    H230684   3.844   3.240  12.885  1.0180 -0.8211  0.6421
 3065TIP3   OH230685   3.420   5.586  12.338 -0.6451 -0.2117  0.5358
 3065TIP3    H130686   3.449   5.638  12.263 -0.1610  2.2244  2.2942
 3065TIP3    H230687   3.474   5.508  12.335  0.7841  0.7652 -0.5499
 3066TIP3   OH230688   1.918   1.247   1.210  0.1976  0.7900 -0.0866
 3066TIP3    H130689   1.920   1.152   1.197 -1.0303  0.5282  1.2813
 3066TIP3    H230690   1.836   1.274   1.170  0.3972  1.2170 -0.2020
 3067TIP3   OH230691   4.134   6.018   4.272 -0.0358  0.1197  0.3629
 3067TIP3    H130692   4.161   5.933   4.308 -1.4175  0.8165  3.2962
 3067TIP3    H230693   4.039   6.020   4.284 -0.0782  1.9208 -0.0298
 3068TIP3   OH230694   3.244   5.979  11.690  0.6972 -0.7186 -0.3466
 3068TIP3    H130695   3.181   6.049  11.674  1.4962  0.2698  0.7417
 3068TIP3    H230696   3.189   5.902  11.708 -0.1865 -0.4882 -1.8689
 3069TIP3   OH230697   3.545   5.258  13.505 -0.2947 -0.1746  0.1184
 3069TIP3    H130698   3.580   5.228  13.421  1.8712 -0.3046  0.9959
 3069TIP3    H230699   3.548   5.353  13.501  2.3515 -0.1412  0.9357
 3070TIP3   OH230700   0.163   4.809  15.906  0.2271 -0.1222  0.0557
 3070TIP3    H130701   0.244   4.787  15.860  0.3155 -0.6306  0.4417
 3070TIP3    H230702   0.130   4.725  15.939 -1.3710 -0.1753 -1.5234
 3071TIP3   OH230703   1.844   1.060  11.947 -0.1262 -0.6209 -0.1427
 3071TIP3    H130704   1.773   0.997  11.935 -0.1177 -0.8645  1.0440
 3071TIP3    H230705   1.800   1.144  11.957 -0.2696 -0.7991  0.7910
 3072TIP3   OH230706   4.176   3.824  16.319 -0.3797  0.1519  0.0182
 3072TIP3    H130707   4.157   3.892  16.384 -0.7698 -0.7210  0.8473
 3072TIP3    H230708   4.089   3.798  16.287 -0.4724 -1.7211  1.5891
 3073TIP3   OH230709   0.198   6.555   4.927 -0.0893 -0.4791  0.3515
 3073TIP3    H130710   0.266   6.489   4.944  0.2046 -0.8070 -1.8121
 3073TIP3    H230711   0.244   6.626   4.882 -0.7426  0.4470  1.0976
 3074TIP3   OH230712   5.450   0.451  13.946  0.1056  0.8853  0.3931
 3074TIP3    H130713   5.448   0.546  13.948  1.2249  0.9225  1.7988
 3074TIP3    H230714   5.542   0.429  13.929  0.0002  0.0695  0.8104
 3075TIP3   OH230715   3.675   1.773   0.255  0.3109  0.2589  0.1243
 3075TIP3    H130716   3.618   1.831   0.205 -1.1873 -0.5666  0.8260
 3075TIP3    H230717   3.616   1.715   0.303  1.7154  0.0952  1.7733
 3076TIP3   OH230718   5.261   2.829  14.796  0.1756  0.7618 -0.1782
 3076TIP3    H130719   5.167   2.848  14.805 -0.0234 -0.8235  1.9247
 3076TIP3    H230720   5.284   2.864  14.711 -2.0447  2.3229 -0.2371
 3077TIP3   OH230721   5.296   2.224   3.794  0.4208  0.1512  0.1307
 3077TIP3    H130722   5.257   2.286   3.733  1.0908 -0.8003 -1.3214
 3077TIP3    H230723   5.234   2.151   3.797  0.4116  0.1741  0.5618
 3078TIP3   OH230724   3.623   2.984   1.459 -0.2099  0.1140  0.3563
 3078TIP3    H130725   3.567   3.014   1.530 -0.0990 -0.0619  0.5194
 3078TIP3    H230726   3.647   2.894   1.483 -0.0834  0.0918  0.1524
 3079TIP3   OH230727   1.917   5.137  15.770  0.4537  0.1155 -0.2637
 3079TIP3    H130728   1.852   5.194  15.729  1.4241  0.5876 -1.1960
 3079TIP3    H230729   1.937   5.071  15.704 -0.3456 -1.1057  0.6506
 3080TIP3   OH230730   0.372   5.507   1.731  0.2861 -0.4351 -0.2285
 3080TIP3    H130731   0.340   5.454   1.658 -0.5713 -2.8351  1.7657
 3080TIP3    H230732   0.460   5.475   1.748  1.2083  1.3902 -1.3034
 3081TIP3   OH230733   5.993   0.352  12.149 -0.7133 -0.4988 -0.2562
 3081TIP3    H130734   6.065   0.353  12.085 -1.3883  0.1643 -1.0268
 3081TIP3    H230735   5.962   0.261  12.149 -2.5102 -0.0115 -2.9969
 3082TIP3   OH230736   6.536   4.691   4.156 -0.3455 -0.1301 -0.2253
 3082TIP3    H130737   6.470   4.683   4.088 -0.4233  0.6000 -0.2429
 3082TIP3    H230738   6.560   4.600   4.177 -1.4333 -0.4097 -0.1342
 3083TIP3   OH230739   5.305   1.617  15.054 -0.0049 -0.2398 -0.1959
 3083TIP3    H130740   5.342   1.579  14.974 -1.4980  0.4316 -1.2730
 3083TIP3    H230741   5.348   1.702  15.062  0.9269 -0.7540  0.3348
 3084TIP3   OH230742   0.223   6.755   4.722  0.4903  0.6236  0.1946
 3084TIP3    H130743   0.156   6.802   4.772  0.4068  1.5462 -0.7578
 3084TIP3    H230744   0.182   6.738   4.637  1.4430  1.1710 -0.3925
 3085TIP3   OH230745   0.277   5.411  13.226 -0.2447  0.5700 -0.0101
 3085TIP3    H130746   0.312   5.380  13.309  0.2779 -0.5942 -0.6372
 3085TIP3    H230747   0.315   5.498  13.214  1.7026 -0.2572 -0.2021
 3086TIP3   OH230748   1.456   0.753   5.147 -0.4086 -0.3464  0.7751
 3086TIP3    H130749   1.362   0.736   5.144 -0.5435  0.4511 -2.0527
 3086TIP3    H230750   1.496   0.666   5.143 -0.9577 -0.6933  2.0195
 3087TIP3   OH230751   4.836   4.086   3.764 -0.0770 -0.4002 -0.0340
 3087TIP3    H130752   4.742   4.073   3.749 -0.2377  1.6742 -1.1465
 3087TIP3    H230753   4.876   4.077   3.678  0.4297  1.0354  0.0356
 3088TIP3   OH230754   6.604   6.644   0.215 -0.5907 -0.6581 -0.3261
 3088TIP3    H130755   6.650   6.637   0.299  0.3130 -0.0410 -0.7513
 3088TIP3    H230756   6.674   6.643   0.150 -1.2760 -0.9814 -1.0731
 3089TIP3   OH230757   1.183   2.204  10.725  0.0227 -0.3896  0.1231
 3089TIP3    H130758   1.177   2.281  10.781 -0.6866 -0.8855  0.7504
 3089TIP3    H230759   1.098   2.201  10.680 -0.5852 -1.6824  1.2959
 3090TIP3   OH230760   6.119   4.894  13.934 -0.1012  0.3703 -0.1975
 3090TIP3    H130761   6.138   4.804  13.962  1.1130  1.2340  2.0409
 3090TIP3    H230762   6.103   4.941  14.016 -0.2087  2.3029 -1.2744
 3091TIP3   OH230763   5.643   4.744   0.816  0.4590 -0.2021  0.1452
 3091TIP3    H130764   5.669   4.755   0.907  0.1786  0.0867  0.1907
 3091TIP3    H230765   5.603   4.657   0.812  2.0883 -0.9896 -0.0786
 3092TIP3   OH230766   3.886   3.399  16.671 -0.2070  0.1687 -0.2274
 3092TIP3    H130767   3.951   3.347  16.624  1.0016  0.1945  1.3412
 3092TIP3    H230768   3.874   3.476  16.616  0.9707  0.0926 -0.6307
 3093TIP3   OH230769   5.634   3.948  11.843 -0.4343  0.4137  0.2412
 3093TIP3    H130770   5.721   3.985  11.859 -0.0986 -0.7099  1.2633
 3093TIP3    H230771   5.578   3.989  11.909 -0.3785  0.1673  0.4440
 3094TIP3   OH230772   2.499   4.000  13.576  0.3261 -0.2244  0.0888
 3094TIP3    H130773   2.543   4.076  13.535 -0.0541  0.0065  0.1020
 3094TIP3    H230774   2.406   4.019  13.566  0.1924  0.5461  2.3641
 3095TIP3   OH230775   0.385   2.523   5.096 -0.1079 -0.1936  0.1820
 3095TIP3    H130776   0.421   2.584   5.031  1.4874 -0.3668  0.8628
 3095TIP3    H230777   0.382   2.574   5.177 -1.5595 -0.1548  0.1386
 3096TIP3   OH230778   4.443   1.749   0.695 -0.5099  0.0303  0.1581
 3096TIP3    H130779   4.354   1.763   0.727 -1.0060  1.1988 -1.5813
 3096TIP3    H230780   4.431   1.726   0.602  1.0028  0.7391 -0.2409
 3097TIP3   OH230781   2.838   6.007  14.352  0.5330 -0.3967 -0.6790
 3097TIP3    H130782   2.871   6.085  14.397  0.5543  0.2383 -1.7624
 3097TIP3    H230783   2.875   6.013  14.264 -1.2767 -0.4121 -1.4878
 3098TIP3   OH230784   2.462   6.776  14.620  0.7851 -0.4656  0.3010
 3098TIP3    H130785   2.419   6.703  14.575 -0.0908 -1.3497  2.4604
 3098TIP3    H230786   2.540   6.738  14.659  2.0796  0.5175 -1.2197
 3099TIP3   OH230787   3.527   3.747  16.503 -0.4420 -0.1210  0.9878
 3099TIP3    H130788   3.481   3.830  16.491  0.3637  0.2392  0.2413
 3099TIP3    H230789   3.541   3.714  16.414  1.6141  0.2910  1.1135
 3100TIP3   OH230790   5.516   4.156   5.286  0.3623  0.3477  0.2522
 3100TIP3    H130791   5.498   4.064   5.266  1.1830  0.4417 -1.0973
 3100TIP3    H230792   5.602   4.172   5.246  0.3374  1.6296  0.6810
 3101TIP3   OH230793   0.098   5.073   3.901 -0.3170  0.1854  0.0932
 3101TIP3    H130794   0.165   5.072   3.832  0.1953  0.0411  0.5813
 3101TIP3    H230795   0.132   5.013   3.967 -1.8352 -1.3810 -0.4684
 3102TIP3   OH230796   0.530   0.082  15.433  0.0803  0.1391 -0.0634
 3102TIP3    H130797   0.535   0.160  15.378 -0.2500  0.2804  0.1039
 3102TIP3    H230798   0.478   0.110  15.509 -2.5842 -1.0218 -1.3448
 3103TIP3   OH230799   3.841   0.819   6.483  0.6899  0.2404 -0.1855
 3103TIP3    H130800   3.766   0.774   6.444  0.9744 -0.5226  0.1346
 3103TIP3    H230801   3.911   0.754   6.482  0.7319  0.2221  1.5150
 3104TIP3   OH230802   6.604   3.444   0.013 -0.3047  0.0710 -0.1105
 3104TIP3    H130803   6.542   3.372   0.016 -0.1368 -0.1068 -0.7827
 3104TIP3    H230804   6.688   3.404   0.038  0.5993 -0.8775 -4.0360
 3105TIP3   OH230805   1.735   2.169   5.317 -0.8479 -0.1803  0.4206
 3105TIP3    H130806   1.821   2.128   5.315 -0.3951  0.7890 -0.4821
 3105TIP3    H230807   1.747   2.250   5.366 -0.4934  1.5236 -2.3187
 3106TIP3   OH230808   0.077   5.632  11.798  0.0700 -0.0581  0.1865
 3106TIP3    H130809   0.154   5.634  11.855  0.2871 -1.4206 -0.0290
 3106TIP3    H230810   0.112   5.655  11.711 -0.0454  0.7755  0.3459
 3107TIP3   OH230811   4.631   3.802  12.305 -0.3629 -0.1272 -0.4315
 3107TIP3    H130812   4.718   3.762  12.311  0.3899  1.5222  0.5196
 3107TIP3    H230813   4.639   3.865  12.233 -1.6458 -1.8351 -2.1856
 3108TIP3   OH230814   3.701   3.985  13.009 -0.3234 -0.3260 -0.1704
 3108TIP3    H130815   3.752   3.992  12.928  0.0473  0.9380  0.1611
 3108TIP3    H230816   3.666   3.896  13.007 -0.8364 -0.1307 -2.0287
 3109TIP3   OH230817   3.337   2.420  15.135  0.1282  0.5559  0.1355
 3109TIP3    H130818   3.388   2.350  15.094  0.4553  0.7989  0.1220
 3109TIP3    H230819   3.311   2.476  15.062 -3.3182 -1.4873 -0.4295
 3110TIP3   OH230820   3.897   3.517   5.323  0.7291  0.4588 -0.3244
 3110TIP3    H130821   3.929   3.590   5.375 -3.0557  0.6206  2.2532
 3110TIP3    H230822   3.905   3.441   5.381  0.3140 -0.2186 -1.1323
 3111TIP3   OH230823   6.826   3.639   0.888 -0.4064  0.3183  0.1114
 3111TIP3    H130824   6.793   3.648   0.977 -1.4960 -1.4444 -0.0636
 3111TIP3    H230825   6.889   3.567   0.893  0.7857  1.3159 -0.2430
 3112TIP3   OH230826   2.280   4.416   5.072  0.2108 -0.2899  0.1429
 3112TIP3    H130827   2.321   4.499   5.096  0.6939 -0.3126 -0.5569
 3112TIP3    H230828   2.200   4.441   5.026  0.8651 -0.1663 -0.9783
 3113TIP3   OH230829   3.572   3.015   4.687 -0.0767 -0.2645  0.1224
 3113TIP3    H130830   3.553   2.994   4.595  0.3892  1.7159 -0.4817
 3113TIP3    H230831   3.620   3.098   4.683  1.7693 -1.1453  2.0512
 3114TIP3   OH230832   0.580   5.886   3.792 -0.0231  0.3001  0.3494
 3114TIP3    H130833   0.579   5.942   3.869  0.3525  2.1735 -0.9348
 3114TIP3    H230834   0.668   5.894   3.757  0.1018 -1.2754  0.2045
 3115TIP3   OH230835   0.219   3.164  11.648 -0.6126 -0.2280 -0.1600
 3115TIP3    H130836   0.149   3.229  11.638  0.8545  1.3224 -0.7338
 3115TIP3    H230837   0.284   3.207  11.703  0.1306 -1.4628 -0.0363
 3116TIP3   OH230838   5.562   4.039   4.149 -0.3467  0.0743  0.0617
 3116TIP3    H130839   5.654   4.044   4.121 -0.1817  0.0452  0.5923
 3116TIP3    H230840   5.515   4.091   4.085  0.3528  2.1556  1.1545
 3117TIP3   OH230841   0.996   6.782   4.482  0.3368  0.3043 -0.6755
 3117TIP3    H130842   1.050   6.854   4.449  1.0634 -0.3672 -0.9906
 3117TIP3    H230843   1.031   6.762   4.569 -0.9852  1.4624  0.1567
 3118TIP3   OH230844   4.591   1.166  17.094  0.0755 -0.3986 -0.3942
 3118TIP3    H130845   4.668   1.121  17.129  0.0918 -0.9596 -1.1371
 3118TIP3    H230846   4.518   1.107  17.112 -0.1778  0.0740  0.1908
 3119TIP3   OH230847   0.046   1.773   0.897  0.4553  0.6419  0.7500
 3119TIP3    H130848  -0.005   1.823   0.961  1.3093  0.9670  1.2017
 3119TIP3    H230849   0.077   1.839   0.835  0.5817  0.4970  0.6573
 3120TIP3   OH230850   5.101   4.818   3.314 -1.1647  0.1915 -0.7943
 3120TIP3    H130851   5.036   4.782   3.374 -0.9074  0.7948 -0.1319
 3120TIP3    H230852   5.168   4.856   3.372 -1.0839  1.0989 -1.4583
 3121TIP3   OH230853   2.313   4.405   4.562 -0.2864 -0.5189  0.6297
 3121TIP3    H130854   2.237   4.418   4.506 -0.0631 -1.1791  0.1606
 3121TIP3    H230855   2.386   4.438   4.511 -0.5617  3.0790  2.2767
 3122TIP3   OH230856   0.178   3.582   0.190 -0.3169 -0.3850 -0.5733
 3122TIP3    H130857   0.144   3.669   0.209  2.3076  0.6965 -0.3702
 3122TIP3    H230858   0.199   3.545   0.276  0.2497 -0.4795 -0.7511
 3123TIP3   OH230859   6.592   5.363   1.730 -0.3038  0.1350 -0.1985
 3123TIP3    H130860   6.551   5.315   1.658 -0.9561  1.6269 -0.8682
 3123TIP3    H230861   6.675   5.318   1.745 -0.5202 -0.6842 -1.3407
 3124TIP3   OH230862   4.422   6.808   5.195  0.5370  0.4121 -0.3411
 3124TIP3    H130863   4.368   6.766   5.127 -0.2323 -0.5787  0.8471
 3124TIP3    H230864   4.510   6.772   5.180  0.0816 -0.9333  0.0570
 3125TIP3   OH230865   3.334   0.282  14.980  0.1712 -0.4201 -0.3910
 3125TIP3    H130866   3.403   0.346  14.998  0.6025 -0.8851 -0.3764
 3125TIP3    H230867   3.377   0.197  14.989 -0.3474 -0.7111 -0.6229
 3126TIP3   OH230868   5.412   4.188  14.615  0.0039  0.0525 -0.2113
 3126TIP3    H130869   5.468   4.265  14.615 -0.9991  0.8245 -1.5871
 3126TIP3    H230870   5.468   4.117  14.585  0.6803  0.4450  0.1085
 3127TIP3   OH230871   1.777   4.822   4.845  0.0592 -0.3408 -0.2842
 3127TIP3    H130872   1.834   4.854   4.775  0.0590  0.1202 -0.0766
 3127TIP3    H230873   1.764   4.898   4.902 -2.0943  0.0441 -1.1918
 3128TIP3   OH230874   6.460   6.146   6.653  0.1734  0.4700 -0.6093
 3128TIP3    H130875   6.545   6.143   6.609 -0.4278 -0.7907 -1.7402
 3128TIP3    H230876   6.403   6.193   6.592 -0.7361 -1.5172 -1.3798
 3129TIP3   OH230877   3.054   3.251   3.278 -0.1259  0.1850 -0.6033
 3129TIP3    H130878   3.109   3.233   3.202  0.4700  1.7592 -0.5707
 3129TIP3    H230879   2.975   3.290   3.242 -0.8973 -1.2769 -0.5769
 3130TIP3   OH230880   5.215   5.958  14.563 -0.1481 -0.1217 -0.2767
 3130TIP3    H130881   5.134   5.944  14.513 -0.3948 -1.3037  0.4086
 3130TIP3    H230882   5.207   6.047  14.597 -0.7819  0.0648 -0.8821
 3131TIP3   OH230883   3.497   1.823  11.370  0.4233  0.2191 -0.4217
 3131TIP3    H130884   3.529   1.760  11.306 -0.3573 -0.7767  0.1501
 3131TIP3    H230885   3.409   1.794  11.391  0.1678  1.3102  0.1155
 3132TIP3   OH230886   0.830   3.822   5.855 -0.4287 -0.1754  0.6985
 3132TIP3    H130887   0.783   3.822   5.939 -0.0291 -0.5357  0.9323
 3132TIP3    H230888   0.797   3.744   5.810 -2.0105  1.0221 -0.2875
 3133TIP3   OH230889   2.696   5.825  13.286 -0.1563  0.5022 -0.7928
 3133TIP3    H130890   2.725   5.912  13.315 -0.6358 -0.0163  1.4687
 3133TIP3    H230891   2.601   5.828  13.294 -0.1264 -0.4386 -0.0237
 3134TIP3   OH230892   3.622   2.523   3.283 -0.0408 -0.8876  0.4751
 3134TIP3    H130893   3.605   2.613   3.256  0.3045 -0.2280  2.3310
 3134TIP3    H230894   3.681   2.489   3.216 -1.9832 -0.5311 -1.5242
 3135TIP3   OH230895   4.006   5.768  15.920 -0.2833  0.0192  0.4124
 3135TIP3    H130896   4.095   5.757  15.954 -0.5022 -2.0706  0.4281
 3135TIP3    H230897   4.006   5.720  15.837 -1.1637  0.7905 -0.0541
 3136TIP3   OH230898   2.550   3.095   4.049 -0.5342  0.0804  0.1880
 3136TIP3    H130899   2.560   3.174   3.997 -0.7863  0.0346  0.0678
 3136TIP3    H230900   2.583   3.119   4.136  0.4290 -0.0210 -0.1429
 3137TIP3   OH230901   1.037   4.742  14.980 -0.1113  0.6061  0.5974
 3137TIP3    H130902   0.985   4.780  14.909  1.5401 -1.1477 -1.6697
 3137TIP3    H230903   1.028   4.648  14.968  1.6399  0.2765  1.6370
 3138TIP3   OH230904   1.682   1.676   8.597  0.1323  0.6536 -0.0953
 3138TIP3    H130905   1.697   1.746   8.533  0.8062  0.1751 -0.4625
 3138TIP3    H230906   1.757   1.680   8.656 -0.5682  1.2064  0.7966
 3139TIP3   OH230907   3.386   5.805  13.203 -0.0097 -0.2929 -0.4417
 3139TIP3    H130908   3.472   5.832  13.236 -1.1080  1.3756  1.2439
 3139TIP3    H230909   3.374   5.855  13.123  0.4557 -0.3114 -0.5268
 3140TIP3   OH230910   5.038   0.412   0.031  0.1076 -0.1795 -0.0601
 3140TIP3    H130911   5.110   0.427  -0.031  2.0551 -1.4138  1.7446
 3140TIP3    H230912   4.959   0.437  -0.017  1.3505 -2.0623 -3.4273
 3141TIP3   OH230913   5.481   2.771   6.180  0.5027 -0.0103 -0.0445
 3141TIP3    H130914   5.387   2.787   6.180  0.4449 -0.3456  0.0323
 3141TIP3    H230915   5.513   2.817   6.102  0.5668  1.7278  0.9736
 3142TIP3   OH230916   0.839   2.397  17.043  0.2445  0.4241  0.3884
 3142TIP3    H130917   0.868   2.458  16.976  0.4582  1.9422  1.8072
 3142TIP3    H230918   0.769   2.347  17.001  1.5338  0.0997 -1.4997
 3143TIP3   OH230919   1.143   0.560   0.301 -0.1117  0.0361  0.1033
 3143TIP3    H130920   1.136   0.652   0.327 -1.1877  0.3731 -1.2846
 3143TIP3    H230921   1.167   0.514   0.382 -4.0951  0.8742  2.0290
 3144TIP3   OH230922   5.778   1.617  16.151 -0.4047 -0.1542  0.6276
 3144TIP3    H130923   5.799   1.681  16.083 -1.2513 -0.1241  0.3852
 3144TIP3    H230924   5.828   1.539  16.125  0.5000  0.3447  0.8378
 3145TIP3   OH230925   6.075   6.272   6.326  0.4004  0.3246 -0.3578
 3145TIP3    H130926   6.066   6.176   6.331 -2.2130  0.4897 -0.0951
 3145TIP3    H230927   6.160   6.291   6.364  0.4632 -1.8269  0.7182
 3146TIP3   OH230928   5.843   6.408   3.123 -0.5210  0.1213 -0.2419
 3146TIP3    H130929   5.884   6.398   3.210  0.4765  0.1222 -0.7012
 3146TIP3    H230930   5.840   6.319   3.089  0.6915  0.3012 -0.9001
 3147TIP3   OH230931   6.333   5.961   1.216  0.6325 -0.1006  0.5974
 3147TIP3    H130932   6.264   6.028   1.211  0.6632 -0.1369 -1.0123
 3147TIP3    H230933   6.316   5.904   1.140  2.6019  0.0761 -0.0385
 3148TIP3   OH230934   5.268   0.427   5.439 -0.0555  0.5128  0.3905
 3148TIP3    H130935   5.335   0.387   5.495  0.1957  1.0308  0.4623
 3148TIP3    H230936   5.201   0.359   5.430 -0.5561  0.7341  2.0842
 3149TIP3   OH230937   4.522   4.147   4.731 -0.5745  0.3287  0.2276
 3149TIP3    H130938   4.450   4.095   4.768  0.0416 -0.8850 -0.2137
 3149TIP3    H230939   4.567   4.086   4.671  0.6009  1.1644  0.2299
 3150TIP3   OH230940   3.266   2.863  11.500 -0.9929 -0.6509 -0.4446
 3150TIP3    H130941   3.235   2.854  11.590 -1.3832  0.5898 -0.4404
 3150TIP3    H230942   3.344   2.806  11.496 -1.7216 -1.7387  0.2815
 3151TIP3   OH230943   1.591   2.359   2.137 -0.0636  0.3452 -0.0686
 3151TIP3    H130944   1.517   2.404   2.177  0.8035  0.4840  1.4730
 3151TIP3    H230945   1.667   2.392   2.184  0.6601 -2.3895  0.8846
 3152TIP3   OH230946   3.512   2.009   2.012  0.1039  0.2095 -0.4992
 3152TIP3    H130947   3.596   1.967   1.991 -0.3829 -0.7667 -0.5360
 3152TIP3    H230948   3.452   1.976   1.946 -0.7156 -0.4431  0.5427
 3153TIP3   OH230949   3.013   1.409   2.527 -0.1047 -0.4819 -0.6024
 3153TIP3    H130950   3.022   1.464   2.449 -0.3956 -1.8036 -1.6007
 3153TIP3    H230951   2.928   1.435   2.564  1.4435  2.5493  1.2922
 3154TIP3   OH230952   1.144   4.067   0.632 -0.0659  0.2656 -0.2190
 3154TIP3    H130953   1.117   4.113   0.552 -0.9215 -1.7902 -1.1834
 3154TIP3    H230954   1.225   4.110   0.658  0.3542  0.8463 -2.3292
 3155TIP3   OH230955   2.771   0.616   2.661  0.4617  0.0361  0.1033
 3155TIP3    H130956   2.836   0.680   2.688  0.1837  0.0122  0.8555
 3155TIP3    H230957   2.815   0.564   2.594  0.8244  0.7495 -0.2247
 3156TIP3   OH230958   1.178   0.706   5.235 -0.1212  0.0820 -0.3049
 3156TIP3    H130959   1.181   0.754   5.317 -1.2160  0.1810 -0.3071
 3156TIP3    H230960   1.095   0.733   5.194 -0.2681 -1.0276 -0.7797
 3157TIP3   OH230961   2.060   3.973   5.773 -0.4819 -0.5301  0.1544
 3157TIP3    H130962   2.121   3.915   5.728 -1.0393 -1.7806  0.9728
 3157TIP3    H230963   2.052   3.936   5.861 -1.3936  0.3939  0.4817
 3158TIP3   OH230964   3.311   1.446  11.312 -0.1831  0.2201 -0.8048
 3158TIP3    H130965   3.304   1.536  11.281 -1.4836  0.3570 -0.2036
 3158TIP3    H230966   3.297   1.452  11.406 -2.8636 -0.8112 -1.0318
 3159TIP3   OH230967   4.418   2.699  15.374  0.1840  0.1156  0.9936
 3159TIP3    H130968   4.447   2.709  15.284 -1.2570  1.0488  0.6082
 3159TIP3    H230969   4.485   2.744  15.426  0.5436  0.3653  0.3190
 3160TIP3   OH230970   4.538   2.798  11.435  0.0324 -0.1494 -0.0203
 3160TIP3    H130971   4.481   2.727  11.405  1.7904 -1.6925  0.0947
 3160TIP3    H230972   4.489   2.838  11.507 -0.2124 -2.5790  1.3023
 3161TIP3   OH230973   2.148   3.286   4.179  0.5659 -0.0520 -0.0878
 3161TIP3    H130974   2.099   3.321   4.105  2.8929  1.4179 -1.0312
 3161TIP3    H230975   2.179   3.200   4.150 -3.4587 -2.2982  1.4966
 3162TIP3   OH230976   6.058   0.965   4.696 -0.2148  0.0138 -0.1770
 3162TIP3    H130977   6.080   0.996   4.608  0.7949  0.6720  0.2988
 3162TIP3    H230978   5.962   0.967   4.698 -0.2337  2.5107 -0.3867
 3163TIP3   OH230979   2.064   5.171   4.069  0.2533  0.3035  0.1845
 3163TIP3    H130980   1.986   5.222   4.049  0.3090  0.2243 -0.2453
 3163TIP3    H230981   2.123   5.233   4.111  0.5366  0.7371 -0.8325
 3164TIP3   OH230982   1.880   4.608  14.786  0.1049  0.0265  0.1472
 3164TIP3    H130983   1.955   4.652  14.746  0.4400 -1.2106 -0.6247
 3164TIP3    H230984   1.822   4.589  14.713  0.0810 -1.0228  0.4280
 3165TIP3   OH230985   5.260   0.395  16.153  0.0362  0.1109 -0.3740
 3165TIP3    H130986   5.285   0.323  16.211 -0.6515 -1.0758 -1.4973
 3165TIP3    H230987   5.172   0.420  16.181  0.4292  0.8186  0.2752
 3166TIP3   OH230988   1.437   3.925   3.446 -0.4780 -0.3666 -0.2498
 3166TIP3    H130989   1.478   3.991   3.390 -1.5951 -0.0404 -0.7130
 3166TIP3    H230990   1.343   3.940   3.435 -0.7322 -0.6060  1.3484
 3167TIP3   OH230991   4.209   0.544   2.153 -0.5694  0.0318  0.1915
 3167TIP3    H130992   4.162   0.499   2.223 -0.8145 -0.6391 -0.3853
 3167TIP3    H230993   4.284   0.487   2.135 -1.9862 -1.3199 -1.9671
 3168TIP3   OH230994   1.106   0.753  10.424 -0.1177 -0.2555 -0.4586
 3168TIP3    H130995   1.142   0.775  10.510 -0.4379  0.9957 -0.6255
 3168TIP3    H230996   1.162   0.682  10.392  0.3917 -0.3054  0.5124
 3169TIP3   OH230997   1.840   3.341   1.347 -0.0998 -0.2327  0.3431
 3169TIP3    H130998   1.865   3.422   1.391 -0.2744 -0.7154  1.3555
 3169TIP3    H230999   1.778   3.368   1.279 -0.7844  0.3870  1.2037
 3170TIP3   OH231000   6.608   1.781  14.592 -0.1997  0.2669 -0.0720
 3170TIP3    H131001   6.685   1.731  14.562  0.1543  1.3807 -1.1186
 3170TIP3    H231002   6.644   1.865  14.619 -1.0670  0.8369 -0.6680
 3171TIP3   OH231003   1.572   1.532  12.822 -0.1493  0.3417 -0.4468
 3171TIP3    H131004   1.566   1.625  12.844  1.3480  0.2378  0.6253
 3171TIP3    H231005   1.643   1.499  12.879  0.4684 -1.0962 -1.9664
 3172TIP3   OH231006   5.527   6.675  15.991  0.5772  0.1367 -0.5236
 3172TIP3    H131007   5.609   6.625  15.986 -0.3553 -1.6318  0.6980
 3172TIP3    H231008   5.462   6.617  15.951 -0.5341  0.3768  0.8628
 3173TIP3   OH231009   1.440   4.824   3.765  0.3046 -0.0913 -0.4627
 3173TIP3    H131010   1.406   4.735   3.755  0.3668 -0.1960  0.2545
 3173TIP3    H231011   1.363   4.880   3.753  0.3909 -0.1977 -1.6310
 3174TIP3   OH231012   2.960   4.438   2.818 -0.2092 -0.6997 -0.4914
 3174TIP3    H131013   2.883   4.386   2.844  0.4573 -0.7540  1.5153
 3174TIP3    H231014   3.017   4.437   2.895  0.3072  2.1512 -0.7274
 3175TIP3   OH231015   2.217   4.546  13.899  0.4655  0.0945 -0.4771
 3175TIP3    H131016   2.200   4.502  13.815  0.3904  0.8596 -0.8776
 3175TIP3    H231017   2.155   4.619  13.900  0.1542 -0.1827  0.4607
 3176TIP3   OH231018   0.959   1.816  14.538 -0.1113 -0.5051 -0.2554
 3176TIP3    H131019   0.945   1.737  14.487 -0.4150  0.0627 -1.0827
 3176TIP3    H231020   0.959   1.887  14.473 -1.2581  0.3222  0.5899
 3177TIP3   OH231021   5.746   3.223  13.503 -0.0178  0.2760  0.1857
 3177TIP3    H131022   5.708   3.228  13.415 -0.7388 -0.2105  0.4656
 3177TIP3    H231023   5.789   3.138  13.506 -1.6357 -0.5459  0.9433
 3178TIP3   OH231024   3.216   5.653  12.824 -0.3536  0.5380 -0.7479
 3178TIP3    H131025   3.273   5.592  12.871 -0.2501  1.3173  0.1765
 3178TIP3    H231026   3.268   5.681  12.749 -0.2782 -0.2516 -0.9950
 3179TIP3   OH231027   3.075   3.121  15.219 -0.3545  0.1503 -0.9357
 3179TIP3    H131028   3.010   3.064  15.261 -0.6873  0.7311 -0.6311
 3179TIP3    H231029   3.154   3.109  15.271 -0.1768 -0.6562 -1.3829
 3180TIP3   OH231030   0.116   1.115  13.133  0.5549  0.1816 -0.2440
 3180TIP3    H131031   0.066   1.034  13.141 -1.5990  1.3399 -1.2376
 3180TIP3    H231032   0.114   1.136  13.040  1.3205  1.2382 -0.0433
 3181TIP3   OH231033   1.900   3.443  16.326  0.3617 -0.9900  0.2139
 3181TIP3    H131034   1.935   3.394  16.400 -0.6500  0.3534  1.6423
 3181TIP3    H231035   1.806   3.447  16.342  0.2969  0.5519 -0.3811
 3182TIP3   OH231036   2.874   5.344   5.333 -0.1620  0.3959  0.1165
 3182TIP3    H131037   2.811   5.381   5.272 -0.9869 -0.3595  0.4891
 3182TIP3    H231038   2.876   5.251   5.313  1.3340  0.4877 -0.3194
 3183TIP3   OH231039   2.732   3.639   5.944  0.3377  0.2682 -0.4056
 3183TIP3    H131040   2.670   3.674   6.009  1.5764  1.6987  0.0751
 3183TIP3    H231041   2.813   3.686   5.962  1.1354 -0.4258 -2.0291
 3184TIP3   OH231042   4.238   0.300  15.227  0.0637  0.1851  0.0690
 3184TIP3    H131043   4.323   0.310  15.269  0.7222  1.3976 -1.4892
 3184TIP3    H231044   4.257   0.297  15.134 -1.7302  3.1218 -0.5208
 3185TIP3   OH231045   0.459   4.351   0.970 -0.2292 -0.4859  0.1648
 3185TIP3    H131046   0.404   4.400   1.031 -0.2052  1.1272 -1.0469
 3185TIP3    H231047   0.399   4.319   0.903  0.0148 -0.4597 -0.0692
 3186TIP3   OH231048   0.764   2.734  16.308 -0.1745 -0.4751  0.2897
 3186TIP3    H131049   0.840   2.786  16.281 -0.0063 -0.6544  0.4158
 3186TIP3    H231050   0.704   2.737  16.233 -0.1097 -0.2062  0.2469
 3187TIP3   OH231051   2.680   4.708  11.615  0.1049 -0.1087  0.2928
 3187TIP3    H131052   2.666   4.677  11.704 -0.1188  1.1508  0.7233
 3187TIP3    H231053   2.613   4.664  11.563 -2.3636  1.9852  1.4539
 3188TIP3   OH231054   1.779   3.059  15.649  0.1034  0.0511  0.3630
 3188TIP3    H131055   1.699   3.107  15.671  0.9785  0.6727  2.3593
 3188TIP3    H231056   1.785   3.066  15.553 -1.4852  1.1672  0.3036
 3189TIP3   OH231057   5.583   2.629  10.968 -0.2177  0.3597 -0.2734
 3189TIP3    H131058   5.545   2.679  10.896 -1.9883  0.2877  0.5662
 3189TIP3    H231059   5.546   2.541  10.959  0.7274 -0.0766 -0.1232
 3190TIP3   OH231060   5.255   6.054   0.675 -0.7102  0.2271 -0.2893
 3190TIP3    H131061   5.270   6.139   0.717  0.1408 -0.1392  0.1713
 3190TIP3    H231062   5.180   6.018   0.721 -0.4078  0.2714  0.2527
 3191TIP3   OH231063   6.607   3.991  12.969 -0.2812  0.2426 -0.4932
 3191TIP3    H131064   6.617   3.995  12.874  1.4510 -1.1831 -0.4138
 3191TIP3    H231065   6.514   4.012  12.984 -0.9662 -0.9742 -2.6076
 3192TIP3   OH231066   2.359   2.156   6.638 -0.7896 -0.5150 -0.4362
 3192TIP3    H131067   2.446   2.128   6.666 -0.6703  0.5848  0.3265
 3192TIP3    H231068   2.373   2.192   6.550  0.1181  2.3346  0.7499
 3193TIP3   OH231069   5.999   3.978  13.096  0.1845  0.0665  0.9046
 3193TIP3    H131070   5.985   4.041  13.167  0.5362  0.4914  0.5989
 3193TIP3    H231071   6.041   4.028  13.027 -0.1681 -0.3459  0.3831
 3194TIP3   OH231072   1.051   3.361   0.520 -0.1326  0.7402  0.7042
 3194TIP3    H131073   1.120   3.301   0.494 -0.8539  0.4911 -0.7344
 3194TIP3    H231074   0.970   3.319   0.491 -0.7147  2.0250  0.3672
 3195TIP3   OH231075   6.452   3.863  11.726 -0.5871  0.2804  0.4914
 3195TIP3    H131076   6.478   3.775  11.753 -0.6575  0.3722  0.8568
 3195TIP3    H231077   6.384   3.889  11.788 -2.6237 -0.5151 -1.2797
 3196TIP3   OH231078   1.042   1.507  15.835  0.1428  0.4703 -0.0211
 3196TIP3    H131079   1.066   1.564  15.761  2.2169 -0.1218  0.1367
 3196TIP3    H231080   1.086   1.546  15.910 -0.8251  0.2766  0.6580
 3197TIP3   OH231081   6.737   1.570  16.238  0.1098 -0.0200  0.9157
 3197TIP3    H131082   6.709   1.646  16.289  0.4290  0.7037  0.0409
 3197TIP3    H231083   6.656   1.525  16.214 -0.1147  0.3617  0.9600
 3198TIP3   OH231084   3.954   0.658   0.508 -0.0958 -0.0536 -0.0988
 3198TIP3    H131085   3.965   0.564   0.526 -2.5875 -0.5209 -0.6944
 3198TIP3    H231086   3.993   0.670   0.421  2.0040 -0.0740  0.7868
 3199TIP3   OH231087   5.580   2.571   3.857  0.4039 -0.0305  1.0930
 3199TIP3    H131088   5.523   2.558   3.933 -1.2723 -0.4766 -0.1763
 3199TIP3    H231089   5.593   2.483   3.822 -0.5422  0.3371 -0.2820
 3200TIP3   OH231090   4.156   6.808   0.272 -0.2471  0.2693  0.5018
 3200TIP3    H131091   4.191   6.834   0.187 -0.0155 -0.6763  0.2900
 3200TIP3    H231092   4.162   6.887   0.326 -0.5236  0.9183 -0.3931
 3201TIP3   OH231093   5.937   2.387  13.318  0.3188 -0.0768 -0.0194
 3201TIP3    H131094   5.907   2.469  13.278  0.2236  0.1067  0.4175
 3201TIP3    H231095   6.024   2.408  13.352  0.3136 -0.1688  0.0507
 3202TIP3   OH231096   1.209   1.629  16.759  0.1672 -0.2209  0.4843
 3202TIP3    H131097   1.261   1.572  16.815  0.7798  0.6444  0.8206
 3202TIP3    H231098   1.160   1.685  16.820 -0.6855 -0.5920  0.1641
 3203TIP3   OH231099   5.951   6.742   1.418  0.5834  0.2754  0.1884
 3203TIP3    H131100   5.956   6.821   1.471  1.3427  0.6746 -0.4437
 3203TIP3    H231101   6.029   6.746   1.362  0.1903 -0.4895 -0.4420
 3204TIP3   OH231102   4.504   0.416  13.041 -0.1284 -0.5333 -0.0275
 3204TIP3    H131103   4.431   0.372  12.997 -1.4854  1.7758 -0.3005
 3204TIP3    H231104   4.535   0.481  12.977  1.1708 -0.4415  0.6527
 3205TIP3   OH231105   2.402   4.334  16.207 -0.1917 -0.3574  0.1158
 3205TIP3    H131106   2.328   4.318  16.148 -0.4601 -0.4469  0.4743
 3205TIP3    H231107   2.470   4.372  16.151 -0.3488 -0.6911 -0.2998
 3206TIP3   OH231108   5.526   4.626  15.771  0.1260  0.3612 -0.5286
 3206TIP3    H131109   5.543   4.564  15.843  0.1505 -0.0289 -0.8683
 3206TIP3    H231110   5.439   4.661  15.791  0.4367  0.8015  0.0846
 3207TIP3   OH231111   1.741   1.691   2.712 -0.5188  0.5830  0.4856
 3207TIP3    H131112   1.783   1.752   2.651 -2.6149  0.2734 -1.3867
 3207TIP3    H231113   1.756   1.605   2.675  0.2176  0.1502  1.7329
 3208TIP3   OH231114   6.589   6.086   0.413 -0.6509 -0.3953  0.0442
 3208TIP3    H131115   6.663   6.030   0.435 -1.4612 -1.5959 -0.2145
 3208TIP3    H231116   6.523   6.066   0.479 -0.6445  0.9206  0.4851
 3209TIP3   OH231117   4.706   4.286  14.889  0.8703  0.1385  0.3166
 3209TIP3    H131118   4.671   4.200  14.912  1.7682 -0.1692  0.5623
 3209TIP3    H231119   4.687   4.340  14.966 -1.0273  0.5919 -0.4049
 3210TIP3   OH231120   0.173   4.968  11.986  0.2426  0.2676  0.1331
 3210TIP3    H131121   0.104   4.927  11.934  1.0405  0.6528 -1.2681
 3210TIP3    H231122   0.251   4.964  11.931  0.2393  4.3490 -0.4826
 3211TIP3   OH231123   1.394   2.846   2.764  0.7805  0.1610  0.1601
 3211TIP3    H131124   1.393   2.924   2.708  1.2707  1.1920  1.5113
 3211TIP3    H231125   1.304   2.813   2.761  0.6107  0.6615 -0.5876
 3212TIP3   OH231126   2.681   0.355   1.601  0.5567 -0.9936  0.2467
 3212TIP3    H131127   2.775   0.338   1.609  0.5651 -0.6498  0.9348
 3212TIP3    H231128   2.640   0.284   1.652  0.4563 -0.9654  0.2044
 3213TIP3   OH231129   0.553   0.577  13.282 -0.3400 -0.4571  0.1982
 3213TIP3    H131130   0.646   0.600  13.290 -0.4624  0.5596 -1.0594
 3213TIP3    H231131   0.535   0.582  13.188 -1.7799 -0.1875  0.4688
 3214TIP3   OH231132   0.328   6.502   1.211 -0.1642  0.3188 -0.3087
 3214TIP3    H131133   0.292   6.571   1.265 -1.6948  0.2589 -1.1793
 3214TIP3    H231134   0.394   6.545   1.157 -2.5788  1.6853 -2.3958
 3215TIP3   OH231135   2.079   5.969   2.006  0.1580 -0.0190 -0.3700
 3215TIP3    H131136   2.004   5.970   2.065  0.2546 -0.5147 -0.2280
 3215TIP3    H231137   2.154   5.952   2.064  0.4819  1.2180 -0.4046
 3216TIP3   OH231138   1.480   3.271  16.502 -0.8036 -0.0910 -0.0839
 3216TIP3    H131139   1.464   3.185  16.541 -0.0418 -1.6005 -2.8121
 3216TIP3    H231140   1.395   3.298  16.468 -0.5534 -1.1666 -1.6821
 3217TIP3   OH231141   0.123   5.791  14.933 -0.2630 -0.2116 -0.3120
 3217TIP3    H131142   0.108   5.884  14.954 -1.8853 -0.7188  1.0521
 3217TIP3    H231143   0.150   5.791  14.842 -3.3592  1.4298 -1.4027
 3218TIP3   OH231144   6.827   2.093  11.825  0.3997  0.0432  0.7010
 3218TIP3    H131145   6.854   2.004  11.852  1.4973 -0.0365 -0.5489
 3218TIP3    H231146   6.907   2.131  11.789 -0.4436  0.9877 -0.1994
 3219TIP3   OH231147   5.118   1.173  14.106 -0.2726  0.0680 -0.7469
 3219TIP3    H131148   5.035   1.127  14.118  0.4709 -1.0329  0.4337
 3219TIP3    H231149   5.159   1.170  14.193 -0.0994  2.8129 -0.6605
 3220TIP3   OH231150   6.035   0.772   6.888 -0.1987  0.2816 -0.0386
 3220TIP3    H131151   5.992   0.757   6.972  0.0509  2.1689  0.4725
 3220TIP3    H231152   5.964   0.767   6.823 -0.3899 -1.1921  0.2561
 3221TIP3   OH231153   6.284   0.330   2.001  0.0898  0.5131  0.5849
 3221TIP3    H131154   6.374   0.357   1.981 -0.3668  0.8366 -1.2642
 3221TIP3    H231155   6.240   0.410   2.028  0.5938  0.1548  2.6505
 3222TIP3   OH231156   6.435   5.395  15.193  0.4136  0.2661 -0.2598
 3222TIP3    H131157   6.433   5.367  15.284  1.4708 -2.3306 -0.9479
 3222TIP3    H231158   6.393   5.324  15.144  0.7408  1.1299 -1.8911
 3223TIP3   OH231159   3.158   4.314  13.975  0.1820 -0.0891  0.6158
 3223TIP3    H131160   3.134   4.263  13.898  2.0668 -0.9984  0.5608
 3223TIP3    H231161   3.121   4.266  14.049 -0.5310  0.0779  0.3698
 3224TIP3   OH231162   4.094   2.746   5.615 -0.0535  0.2569  0.4588
 3224TIP3    H131163   4.085   2.831   5.571 -0.7501 -0.9878 -2.0208
 3224TIP3    H231164   4.017   2.697   5.587  0.4678 -1.2879  1.6174
 3225TIP3   OH231165   2.699   1.898  12.937 -0.8619 -0.3497 -0.4002
 3225TIP3    H131166   2.623   1.942  12.898 -1.2005 -0.8207 -0.2815
 3225TIP3    H231167   2.688   1.909  13.031 -1.5046 -1.5677 -0.3147
 3226TIP3   OH231168   1.979   6.825   0.987  0.5563 -0.6006  0.2962
 3226TIP3    H131169   2.005   6.781   1.069 -0.6156  0.2454  1.1520
 3226TIP3    H231170   1.886   6.805   0.978  0.0893  1.3204  0.4841
 3227TIP3   OH231171   0.921   3.009   0.328  0.2441  0.0955  0.4909
 3227TIP3    H131172   0.967   2.967   0.255  0.9959  0.8028  0.5396
 3227TIP3    H231173   0.943   3.102   0.319  0.7717  0.1301  1.9213
 3228TIP3   OH231174   1.630   1.219  14.459  0.0970 -0.3740 -0.4353
 3228TIP3    H131175   1.683   1.280  14.407  0.0007 -0.7726 -1.0105
 3228TIP3    H231176   1.566   1.184  14.397  1.2230 -2.3503 -0.5707
 3229TIP3   OH231177   6.621   4.447   1.551  0.4142  0.0915  0.6081
 3229TIP3    H131178   6.617   4.518   1.614  0.8938  0.4528  0.2439
 3229TIP3    H231179   6.697   4.467   1.497 -0.6379  0.4031 -0.8119
 3230TIP3   OH231180   3.900   2.517  13.793 -0.3069 -0.0379  0.0407
 3230TIP3    H131181   3.906   2.431  13.835 -0.0728  0.7103  1.6033
 3230TIP3    H231182   3.807   2.539  13.797 -0.4348 -0.4071 -0.7762
 3231TIP3   OH231183   3.867   3.478   4.325  0.1494  0.4771 -0.1040
 3231TIP3    H131184   3.810   3.442   4.394 -0.1387 -0.0751 -0.6147
 3231TIP3    H231185   3.882   3.568   4.351 -0.4207  0.4390  0.3929
 3232TIP3   OH231186   0.801   1.845   4.656  0.4148 -0.1263  0.2678
 3232TIP3    H131187   0.778   1.827   4.565  1.2321 -0.0301  0.0330
 3232TIP3    H231188   0.896   1.851   4.656  0.4697 -0.6709  1.2281
 3233TIP3   OH231189   5.419   3.069   0.539  0.5007 -0.4643 -0.3531
 3233TIP3    H131190   5.407   3.164   0.544 -3.4802 -0.8967  3.2158
 3233TIP3    H231191   5.368   3.043   0.462 -0.8643  0.1029  0.3259
 3234TIP3   OH231192   1.460   6.592   1.439 -0.0556  0.0733  0.5321
 3234TIP3    H131193   1.534   6.542   1.473  0.1790  1.0266  1.4908
 3234TIP3    H231194   1.490   6.625   1.354  0.0686 -0.7553  0.2486
 3235TIP3   OH231195   4.830   4.093  16.620  0.1713  0.0704 -0.2259
 3235TIP3    H131196   4.872   4.022  16.668 -0.0413 -0.0721 -0.2505
 3235TIP3    H231197   4.901   4.134  16.570  0.7909  1.4339  1.6364
 3236TIP3   OH231198   2.517   6.588   1.783  0.0639  0.2283 -0.3642
 3236TIP3    H131199   2.487   6.592   1.693 -0.4885 -1.5005 -0.2785
 3236TIP3    H231200   2.500   6.498   1.811  1.5936  0.3125  0.9932
 3237TIP3   OH231201   1.609   6.357   4.184  0.2629 -0.0956 -0.1575
 3237TIP3    H131202   1.671   6.421   4.149 -1.9062  2.7432  0.7416
 3237TIP3    H231203   1.538   6.354   4.120 -0.3290 -0.4448  0.4913
 3238TIP3   OH231204   0.616   4.376  13.934 -0.3063 -0.7589  0.2908
 3238TIP3    H131205   0.628   4.449  13.873  0.9886 -0.8512  0.3940
 3238TIP3    H231206   0.533   4.336  13.909 -1.4534  1.2075  0.7279
 3239TIP3   OH231207   0.121   1.612  16.166 -0.2948 -0.7041  0.0488
 3239TIP3    H131208   0.131   1.606  16.071  0.7529 -2.1023  0.2035
 3239TIP3    H231209   0.029   1.594  16.183 -0.9813  1.6781 -0.8073
 3240TIP3   OH231210   3.570   1.925  14.615 -0.2326  0.0663  0.4850
 3240TIP3    H131211   3.574   1.847  14.559  0.6627 -0.3111  1.0676
 3240TIP3    H231212   3.507   1.982  14.570  0.7810 -0.0360 -1.1579
 3241TIP3   OH231213   3.981   1.131   0.556  0.4617 -0.4026 -0.3905
 3241TIP3    H131214   4.017   1.121   0.644 -0.9367  2.0311  0.5286
 3241TIP3    H231215   4.056   1.114   0.498  2.5247  1.9309  1.3624
 3242TIP3   OH231216   2.937   3.567   2.372  0.0657 -0.2762 -0.5319
 3242TIP3    H131217   2.987   3.489   2.394  1.5695  0.7445 -0.2273
 3242TIP3    H231218   2.970   3.594   2.286 -0.7214 -0.1876 -0.8168
 3243TIP3   OH231219   1.952   2.659  12.826 -0.1868 -0.0036 -0.1309
 3243TIP3    H131220   1.998   2.575  12.834  0.2368  0.2733  0.4517
 3243TIP3    H231221   2.009   2.722  12.871 -0.5148  0.5920 -0.5381
 3244TIP3   OH231222   6.331   1.606  15.566  0.3174 -0.4168  0.1084
 3244TIP3    H131223   6.327   1.520  15.607  0.7338  0.3529  1.8680
 3244TIP3    H231224   6.342   1.667  15.639 -0.1613  1.1566 -1.0627
 3245TIP3   OH231225   3.143   6.739  13.102  0.5256  0.0625  0.0675
 3245TIP3    H131226   3.084   6.814  13.096  1.7191  1.0774  0.4584
 3245TIP3    H231227   3.213   6.758  13.039  0.0527 -1.5238 -1.0149
 3246TIP3   OH231228   2.102   1.388   0.640  0.1524  0.2432  0.3329
 3246TIP3    H131229   2.096   1.334   0.719 -1.2723 -1.9778 -1.1975
 3246TIP3    H231230   2.074   1.475   0.669 -0.8498 -0.6282  2.1798
 3247TIP3   OH231231   3.783   2.439   4.989 -0.2259 -0.2565 -0.1485
 3247TIP3    H131232   3.708   2.383   4.969 -1.4556  0.8466  1.1761
 3247TIP3    H231233   3.748   2.508   5.046  1.6685  0.6545  0.0090
 3248TIP3   OH231234   0.101   5.509   6.355  0.3930  0.3046  0.6579
 3248TIP3    H131235   0.176   5.507   6.295  0.7346 -1.5654  1.0864
 3248TIP3    H231236   0.135   5.548   6.435  0.8478 -0.2916  0.7598
 3249TIP3   OH231237   6.547   6.596  15.580 -0.4208  0.1864  0.1093
 3249TIP3    H131238   6.622   6.538  15.567  0.6769  1.5452  0.1018
 3249TIP3    H231239   6.477   6.538  15.610  0.7735 -1.0560  0.6347
 3250TIP3   OH231240   5.186   4.776   1.677  0.3226 -0.2402 -0.4883
 3250TIP3    H131241   5.171   4.706   1.740 -0.9757  0.7905  0.4189
 3250TIP3    H231242   5.120   4.761   1.609 -0.0006  0.1083 -0.2604
 3251TIP3   OH231243   3.360   0.916   2.288 -0.6648  0.3068  0.3044
 3251TIP3    H131244   3.328   0.888   2.373 -0.8642 -0.5988 -0.0616
 3251TIP3    H231245   3.292   0.973   2.253 -0.4556  0.9126  0.8594
 3252TIP3   OH231246   6.663   4.143   1.568  0.3247  0.0921 -0.1202
 3252TIP3    H131247   6.690   4.210   1.505  1.5318 -0.6713 -0.4434
 3252TIP3    H231248   6.643   4.192   1.648 -1.1603  1.0728 -1.0298
 3253TIP3   OH231249   4.384   5.455  13.877  0.1801 -0.5167 -0.1218
 3253TIP3    H131250   4.311   5.444  13.816 -0.8375 -1.7978  1.2648
 3253TIP3    H231251   4.354   5.415  13.958  1.6716  0.7400  1.1089
 3254TIP3   OH231252   0.366   6.750   0.253  1.3133 -0.2845 -0.2328
 3254TIP3    H131253   0.378   6.808   0.329 -2.7256  1.3811 -0.6390
 3254TIP3    H231254   0.309   6.680   0.285 -0.9290  0.7532 -1.7473
 3255TIP3   OH231255   1.268   4.353   0.315 -0.3967 -0.3041 -0.3099
 3255TIP3    H131256   1.229   4.415   0.254 -1.8869 -0.2212  0.6739
 3255TIP3    H231257   1.331   4.405   0.366 -1.2591  0.2976  0.1592
 3256TIP3   OH231258   0.656   5.543   2.722  0.2793  0.0542  0.2648
 3256TIP3    H131259   0.741   5.499   2.723  0.1005 -0.2831  0.6832
 3256TIP3    H231260   0.642   5.565   2.629  0.5733 -0.3718  0.1168
 3257TIP3   OH231261   3.203   5.016  16.112 -0.0922  0.0989 -0.2342
 3257TIP3    H131262   3.133   5.061  16.160 -0.7476  0.1503 -1.1954
 3257TIP3    H231263   3.267   4.992  16.179 -0.9485  0.2123  0.6507
 3258TIP3   OH231264   5.622   4.527  14.728  0.0801 -0.0667  0.5245
 3258TIP3    H131265   5.689   4.588  14.697  1.0371  0.1952  2.8967
 3258TIP3    H231266   5.575   4.575  14.797 -0.5272 -1.2813  0.9917
 3259TIP3   OH231267   4.306   3.427  16.612  0.2040 -0.0129 -0.2554
 3259TIP3    H131268   4.307   3.510  16.564  1.5370 -0.6907 -1.4962
 3259TIP3    H231269   4.399   3.405  16.624 -0.1235 -1.1537  0.3566
 3260TIP3   OH231270   2.276   4.417   1.973 -0.1445  0.2648 -0.1649
 3260TIP3    H131271   2.280   4.321   1.975 -1.8444  0.1561  2.9358
 3260TIP3    H231272   2.368   4.444   1.972  0.3970 -1.4208  0.6328
 3261TIP3   OH231273   5.953   2.808   0.116 -0.1989 -0.0963  0.0655
 3261TIP3    H131274   5.965   2.902   0.102  0.2763 -0.2486 -0.6271
 3261TIP3    H231275   6.000   2.767   0.043 -1.9046 -0.8253 -0.6666
 3262TIP3   OH231276   3.266   1.395  12.575 -0.2240  0.1997  0.1060
 3262TIP3    H131277   3.225   1.309  12.584 -0.0997 -0.0849 -1.7517
 3262TIP3    H231278   3.355   1.377  12.547 -0.1885  0.9224 -0.2669
 3263TIP3   OH231279   2.965   0.082   0.001 -0.2950  0.3488  0.0748
 3263TIP3    H131280   2.978  -0.010   0.025 -0.6474 -0.2107 -1.7190
 3263TIP3    H231281   2.908   0.116   0.070 -0.9762 -1.0548  0.2588
 3264TIP3   OH231282   2.755   0.158   3.930  0.0357  0.3637  0.4388
 3264TIP3    H131283   2.835   0.133   3.882  0.7259  1.5946  0.8938
 3264TIP3    H231284   2.787   0.207   4.005 -1.1595  0.6919  0.7510
 3265TIP3   OH231285   1.357   1.114  16.268 -0.0963 -0.8313  0.3027
 3265TIP3    H131286   1.281   1.170  16.287  0.3572  0.1068 -0.5611
 3265TIP3    H231287   1.321   1.025  16.268 -1.2250 -0.4049 -0.1893
 3266TIP3   OH231288   4.237   2.461  14.056 -0.4944  0.1986 -0.1160
 3266TIP3    H131289   4.276   2.516  14.124 -1.0280 -0.0707  0.4201
 3266TIP3    H231290   4.143   2.479  14.062 -0.4866  0.6222 -1.1953
 3267TIP3   OH231291   2.631   5.265   3.684 -0.4717  0.6578 -0.2969
 3267TIP3    H131292   2.559   5.291   3.627 -1.5846  0.2248  0.8669
 3267TIP3    H231293   2.590   5.244   3.768  1.1620  1.8189  0.8702
 3268TIP3   OH231294   2.421   5.769   0.477  0.2824 -0.2541  0.6922
 3268TIP3    H131295   2.469   5.716   0.413 -1.3582 -0.4489 -0.4367
 3268TIP3    H231296   2.470   5.851   0.481  1.4358 -0.9118  0.5690
 3269TIP3   OH231297   4.436   0.102   5.656  0.5237 -0.4718  0.3747
 3269TIP3    H131298   4.390   0.073   5.577  2.3355 -2.5130 -0.0392
 3269TIP3    H231299   4.421   0.032   5.720  0.7474  0.1740  1.1597
 3270TIP3   OH231300   2.864   3.598  16.431 -0.6594  0.0904  0.2523
 3270TIP3    H131301   2.888   3.535  16.363 -0.1218 -0.1130  0.6218
 3270TIP3    H231302   2.768   3.600  16.429 -0.6349  1.4504 -1.7421
 3271TIP3   OH231303   3.759   1.770   1.162  0.1447 -0.8085  0.1788
 3271TIP3    H131304   3.671   1.774   1.124 -0.0530 -0.5297  0.6678
 3271TIP3    H231305   3.772   1.678   1.184  1.1333 -1.4520 -2.6064
 3272TIP3   OH231306   3.340   5.761  14.139  0.0755 -0.5050  0.1893
 3272TIP3    H131307   3.383   5.777  14.223 -0.0129  0.1711  0.1174
 3272TIP3    H231308   3.412   5.739  14.079  0.4009  0.9558 -0.0103
 3273TIP3   OH231309   1.308   4.852   0.284 -0.2674  0.0103 -0.0769
 3273TIP3    H131310   1.356   4.774   0.259  0.8539  0.9754 -1.0522
 3273TIP3    H231311   1.274   4.887   0.202  0.4588  1.2991  0.1435
 3274TIP3   OH231312   1.626   1.938   2.977 -0.3838  0.6477 -0.0872
 3274TIP3    H131313   1.627   1.843   2.980  2.7764  0.4833  4.4151
 3274TIP3    H231314   1.703   1.962   2.926 -1.2834  0.8713 -1.3818
 3275TIP3   OH231315   2.342   2.121   2.177  0.3212 -0.0532 -0.6290
 3275TIP3    H131316   2.360   2.143   2.268  0.5336  1.8974 -1.1026
 3275TIP3    H231317   2.326   2.026   2.178  2.3241 -0.4411  1.0954
 3276TIP3   OH231318   3.842   5.763  15.274 -0.7077  0.1717  0.5414
 3276TIP3    H131319   3.849   5.670  15.297 -0.7662 -0.0535 -0.3188
 3276TIP3    H231320   3.861   5.809  15.355 -0.9775 -0.5988  1.0513
 3277TIP3   OH231321   6.607   3.864  16.131 -0.1631 -0.3511  0.0132
 3277TIP3    H131322   6.557   3.860  16.213  1.0647 -0.5494  0.7921
 3277TIP3    H231323   6.627   3.956  16.119  0.3413 -0.4011  0.3983
 3278TIP3   OH231324   2.745   2.872   3.300 -0.2672  0.1507 -0.3403
 3278TIP3    H131325   2.832   2.908   3.284  0.1574  0.7101  2.6859
 3278TIP3    H231326   2.702   2.937   3.356 -1.2941 -1.7292  1.1679
 3279TIP3   OH231327   5.131   5.558   4.322 -0.1962 -0.1581 -0.0021
 3279TIP3    H131328   5.138   5.465   4.302 -0.2568  0.1874 -1.7721
 3279TIP3    H231329   5.222   5.586   4.339 -0.1013 -0.4066 -0.0993
 3280TIP3   OH231330   3.066   0.398   0.232 -0.4861  0.2022 -0.4306
 3280TIP3    H131331   3.158   0.423   0.241 -0.5101 -0.2524  1.7133
 3280TIP3    H231332   3.019   0.481   0.222 -0.1760  0.8631  2.5966
 3281TIP3   OH231333   2.388   1.622  13.996  0.5504  0.5649 -0.4781
 3281TIP3    H131334   2.321   1.684  14.022  3.3895  3.0199  1.6372
 3281TIP3    H231335   2.409   1.646  13.906 -0.1572  0.9143 -0.5582
 3282TIP3   OH231336   0.048   5.848   1.391  0.2513 -0.1804  0.4087
 3282TIP3    H131337   0.042   5.879   1.301 -0.6559 -0.6934  0.2832
 3282TIP3    H231338   0.141   5.847   1.410  0.3895  4.7215  1.1593
 3283TIP3   OH231339   4.678   6.861  14.863 -0.0980  0.0161  0.6761
 3283TIP3    H131340   4.656   6.935  14.807  0.1548  0.3375  0.9942
 3283TIP3    H231341   4.631   6.787  14.825 -1.4298  0.6016  1.1271
 3284TIP3   OH231342   6.178   6.296   0.565 -0.7440  0.6275 -0.2592
 3284TIP3    H131343   6.214   6.213   0.533 -2.0483 -0.3837  0.7812
 3284TIP3    H231344   6.210   6.362   0.502 -0.0518 -0.7170 -1.3680
 3285TIP3   OH231345   4.671   4.689  10.541  0.5063  0.1387  0.4399
 3285TIP3    H131346   4.731   4.618  10.520  1.0844  0.5186  0.8039
 3285TIP3    H231347   4.716   4.768  10.510 -1.1520  0.1759 -2.2606
 3286TIP3   OH231348   3.457   0.314   0.508  0.0378  0.1466 -0.1996
 3286TIP3    H131349   3.519   0.242   0.502 -0.6385 -0.4301 -0.4587
 3286TIP3    H231350   3.395   0.287   0.576  0.6209  1.1604  0.7761
 3287TIP3   OH231351   5.012   4.811  11.923 -0.6833  0.1574 -0.6157
 3287TIP3    H131352   4.954   4.876  11.964 -1.4421 -0.8183 -0.1107
 3287TIP3    H231353   5.080   4.795  11.989 -0.2046  0.8031 -0.9421
 3288TIP3   OH231354   6.051   6.289   0.150  0.1433 -0.0695  0.0693
 3288TIP3    H131355   6.112   6.362   0.160  1.9048 -1.4259 -0.3660
 3288TIP3    H231356   5.967   6.324   0.183  1.2740  1.6331  1.3510
 3289TIP3   OH231357   5.382   1.689  12.880  0.1117 -0.3904  0.1795
 3289TIP3    H131358   5.291   1.687  12.909 -0.1163  0.5133 -0.4412
 3289TIP3    H231359   5.431   1.717  12.958  0.1289 -2.7080  1.0769
 3290TIP3   OH231360   5.550   5.780   3.332  0.8826  0.4068 -0.2267
 3290TIP3    H131361   5.597   5.859   3.307  0.8701  0.6158  0.4018
 3290TIP3    H231362   5.479   5.810   3.388  0.4224  0.0215 -0.5882
 3291TIP3   OH231363   2.329   2.206   3.204  0.8335 -0.1148  0.3735
 3291TIP3    H131364   2.278   2.234   3.129  2.5484 -1.7728 -1.5461
 3291TIP3    H231365   2.286   2.125   3.233  1.2870 -0.5297 -0.0913
 3292TIP3   OH231366   2.508   3.023  16.074  0.3941 -0.1830 -0.5248
 3292TIP3    H131367   2.543   2.942  16.038  0.0656 -0.4627 -0.2132
 3292TIP3    H231368   2.571   3.049  16.141  0.4509 -0.2273 -0.5622
 3293TIP3   OH231369   3.048   2.927  16.508  0.7039  0.6265 -0.0008
 3293TIP3    H131370   3.008   2.868  16.443  1.1466 -0.6217  0.8209
 3293TIP3    H231371   3.134   2.947  16.472 -0.9563  4.4816 -2.4935
 3294TIP3   OH231372   5.943   3.903   0.405 -0.1364 -0.0193 -0.0944
 3294TIP3    H131373   6.008   3.883   0.473  1.9628  0.3647 -1.8417
 3294TIP3    H231374   5.859   3.885   0.446  1.0747 -0.9695  2.1901
 3295TIP3   OH231375   5.115   3.513   2.626  0.1354 -0.2115 -0.2826
 3295TIP3    H131376   5.068   3.590   2.657 -0.9946 -0.5545 -1.0825
 3295TIP3    H231377   5.178   3.547   2.561 -0.1450  0.0664 -0.4083
 3296TIP3   OH231378   6.784   1.993   2.825 -0.4261  0.1463 -0.0969
 3296TIP3    H131379   6.739   1.922   2.870 -1.6651  0.4863 -0.7607
 3296TIP3    H231380   6.761   1.980   2.732 -0.1964  1.0750 -0.2891
 3297TIP3   OH231381   0.955   5.731  14.209  0.0689  0.9489 -0.3119
 3297TIP3    H131382   0.993   5.781  14.137  3.5521 -1.3206 -0.3192
 3297TIP3    H231383   1.013   5.749  14.283  0.4877 -1.6570  0.1004
 3298TIP3   OH231384   1.983   6.170  11.784 -0.1893  0.2555  0.2430
 3298TIP3    H131385   2.024   6.093  11.745 -3.2701 -0.5117 -1.8638
 3298TIP3    H231386   2.054   6.233  11.794  1.8076 -1.6144 -1.3136
 3299TIP3   OH231387   5.884   1.852   5.156  0.1492  0.0467  0.7414
 3299TIP3    H131388   5.876   1.758   5.139  2.2941 -0.1310  0.5016
 3299TIP3    H231389   5.854   1.894   5.076 -0.8241 -0.4080  0.8510
 3300TIP3   OH231390   0.890   4.849   5.858 -0.1416  0.2220 -0.1231
 3300TIP3    H131391   0.968   4.814   5.816  0.0058 -2.8594  2.3082
 3300TIP3    H231392   0.835   4.880   5.786  2.3493  0.4477 -2.0380
 3301TIP3   OH231393   5.883   1.200  11.698 -0.2742 -0.1670 -0.2844
 3301TIP3    H131394   5.811   1.136  11.698  0.4899 -1.1292 -2.6375
 3301TIP3    H231395   5.954   1.155  11.743 -0.7217  0.3181  0.9515
 3302TIP3   OH231396   1.119   6.789   1.106 -0.2164  0.2189  0.0298
 3302TIP3    H131397   1.115   6.704   1.064  0.6910  0.3812 -0.3889
 3302TIP3    H231398   1.059   6.844   1.055  0.3790  0.2410 -0.6506
 3303TIP3   OH231399   3.015   1.165   0.197  0.3185  0.2095 -0.6327
 3303TIP3    H131400   3.089   1.223   0.215  0.6816 -0.6646  0.7670
 3303TIP3    H231401   3.021   1.148   0.103  1.2308  1.0314 -0.7382
 3304TIP3   OH231402   5.766   3.089   0.370  0.1235 -0.5499  0.1843
 3304TIP3    H131403   5.712   3.165   0.349  0.5645 -0.0258  0.8916
 3304TIP3    H231404   5.709   3.034   0.425  0.2157 -0.1272  0.7081
 3305TIP3   OH231405   5.585   2.814  12.104  0.2263  0.3882 -0.3223
 3305TIP3    H131406   5.675   2.811  12.072  0.0335  1.3150 -0.9986
 3305TIP3    H231407   5.586   2.879  12.174  0.4369 -0.9220  0.9484
 3306TIP3   OH231408   4.347   2.915  12.693 -0.6303  0.0007 -0.3596
 3306TIP3    H131409   4.315   2.999  12.660  0.4043  0.7888  0.5747
 3306TIP3    H231410   4.419   2.938  12.751 -0.3347 -1.5445 -0.0755
 3307TIP3   OH231411   6.327   2.990   2.372 -0.0045  0.2335 -0.4206
 3307TIP3    H131412   6.263   2.955   2.434  0.6713  1.6218  1.1438
 3307TIP3    H231413   6.297   3.079   2.354  0.1850  0.0798 -1.5827
 3308TIP3   OH231414   3.687   2.013   4.013  0.6972 -0.1709 -1.1984
 3308TIP3    H131415   3.663   2.039   4.102 -1.0401  0.5169 -1.8387
 3308TIP3    H231416   3.742   1.936   4.025  3.4815  1.8562  0.6421
 3309TIP3   OH231417   4.910   2.884   2.782  0.3324  0.3652  0.0184
 3309TIP3    H131418   4.898   2.806   2.729 -0.1029 -0.3748  1.1692
 3309TIP3    H231419   4.861   2.952   2.736  1.6425  0.2664 -1.5877
 3310TIP3   OH231420   6.173   4.504   1.765 -0.5062 -0.0766  0.4507
 3310TIP3    H131421   6.237   4.496   1.836 -0.5117  1.7583  0.7091
 3310TIP3    H231422   6.175   4.596   1.741 -2.2436 -0.2018 -0.3188
 3311TIP3   OH231423   0.412   2.377   0.474 -0.2503 -0.4571 -0.2378
 3311TIP3    H131424   0.396   2.286   0.448 -1.3420 -0.7522  1.2952
 3311TIP3    H231425   0.325   2.410   0.498  0.1553  0.9593 -0.6672
 3312TIP3   OH231426   0.359   5.309  13.763 -0.2373  0.4929 -0.5673
 3312TIP3    H131427   0.295   5.361  13.714 -2.3411 -2.1976 -0.9399
 3312TIP3    H231428   0.325   5.308  13.853  1.2977  1.9490  0.0635
 3313TIP3   OH231429   1.831   5.452  14.528  0.5944  0.0040 -0.2501
 3313TIP3    H131430   1.846   5.394  14.603  0.9718 -1.6440 -1.5286
 3313TIP3    H231431   1.791   5.530  14.566  1.8446 -0.2548  1.8143
 3314TIP3   OH231432   1.627   2.926   2.527 -0.9473 -0.0761  0.3418
 3314TIP3    H131433   1.712   2.954   2.493 -0.8792 -1.5493 -0.8137
 3314TIP3    H231434   1.648   2.860   2.593 -1.1710  0.6549  1.1595
 3315TIP3   OH231435   0.419   1.359  11.292  0.2685  0.8179  0.0261
 3315TIP3    H131436   0.426   1.264  11.295  0.4082  0.8420  2.2126
 3315TIP3    H231437   0.454   1.384  11.207  1.8047 -0.9709  0.0818
 3316TIP3   OH231438   2.966   1.518  11.648 -0.1183  0.0918  0.0550
 3316TIP3    H131439   3.016   1.439  11.667  2.0464  0.5969 -2.8358
 3316TIP3    H231440   2.875   1.488  11.640  0.4613 -1.8611  0.3475
 3317TIP3   OH231441   0.080   6.151  12.911  0.4711 -0.1728  0.0455
 3317TIP3    H131442   0.063   6.231  12.959  0.6375 -0.9823  1.5090
 3317TIP3    H231443   0.108   6.088  12.977 -0.1624 -1.5982 -0.9693
 3318TIP3   OH231444   2.669   5.516  16.015 -0.0470 -0.3634  0.2006
 3318TIP3    H131445   2.707   5.470  15.940  0.0090 -2.2875  1.3345
 3318TIP3    H231446   2.709   5.475  16.091  0.7080  2.2584  1.3219
 3319TIP3   OH231447   1.775   6.560  16.065 -0.0626  0.0583  0.2035
 3319TIP3    H131448   1.852   6.611  16.091  0.4468  0.3938 -1.8078
 3319TIP3    H231449   1.810   6.474  16.042 -0.4555 -0.1401  0.3306
 3320TIP3   OH231450   3.215   3.436  11.448 -0.1044 -0.0122  0.7108
 3320TIP3    H131451   3.211   3.388  11.365  0.3516  0.6033  0.3241
 3320TIP3    H231452   3.135   3.489  11.449 -1.3213 -1.7662  1.7811
 3321TIP3   OH231453   5.057   2.160  11.032  0.2067 -0.6512 -0.0950
 3321TIP3    H131454   5.027   2.070  11.016  0.3072 -0.4429 -1.6927
 3321TIP3    H231455   5.127   2.173  10.968  1.3678  0.0195  1.2642
 3322TIP3   OH231456   0.190   6.005  15.826  0.3012 -0.3154  0.1059
 3322TIP3    H131457   0.163   5.936  15.765 -0.7793 -0.7024  0.9697
 3322TIP3    H231458   0.111   6.057  15.839  1.3086  1.6467 -1.1845
 3323TIP3   OH231459   0.003   1.541   4.020 -0.5339  0.4045 -0.5132
 3323TIP3    H131460  -0.058   1.484   3.973 -0.3811 -0.6133  0.4850
 3323TIP3    H231461  -0.036   1.553   4.106  0.6085 -0.2189  0.1287
 3324TIP3   OH231462   3.582   1.295  12.726  0.4631 -0.2279  0.0391
 3324TIP3    H131463   3.560   1.205  12.749 -0.8692  0.3154  0.9997
 3324TIP3    H231464   3.547   1.306  12.637  0.2078 -0.5117  0.1042
 3325TIP3   OH231465   5.684   6.383  13.006 -0.0857  0.2651  0.6558
 3325TIP3    H131466   5.703   6.290  13.022  0.3914 -0.0111 -1.1991
 3325TIP3    H231467   5.592   6.384  12.979  0.7944 -0.2935 -2.9129
 3326TIP3   OH231468   3.477   6.303   1.742  0.4389 -0.3194  0.6049
 3326TIP3    H131469   3.424   6.254   1.679  0.6551 -0.7633  0.7603
 3326TIP3    H231470   3.437   6.285   1.827  0.5946 -0.3358  0.6761
 3327TIP3   OH231471   3.792   5.543   5.182  0.0243  0.1217 -0.2741
 3327TIP3    H131472   3.723   5.496   5.229 -0.2310 -1.3867 -2.0833
 3327TIP3    H231473   3.746   5.604   5.125  0.0230 -1.8136 -2.4773
 3328TIP3   OH231474   0.781   2.464  11.816  0.1446 -0.1661 -0.3732
 3328TIP3    H131475   0.693   2.479  11.783  0.0613 -0.3746 -0.2489
 3328TIP3    H231476   0.833   2.537  11.781 -0.1387  0.1160 -0.2035
 3329TIP3   OH231477   1.101   5.725  14.430  0.2914  0.5480 -0.1397
 3329TIP3    H131478   1.158   5.656  14.464 -0.6346 -0.6448 -0.9297
 3329TIP3    H231479   1.029   5.731  14.493 -0.4646 -0.3655 -0.8917
 3330TIP3   OH231480   2.803   6.024  12.933  0.3883  0.3630  0.6522
 3330TIP3    H131481   2.876   5.964  12.948  1.0454  1.5153  2.3848
 3330TIP3    H231482   2.845   6.109  12.917 -0.5104  0.3838 -2.0355
 3331TIP3   OH231483   6.086   1.678  16.353  0.1825  0.3504  0.4619
 3331TIP3    H131484   6.091   1.728  16.271  0.5234 -0.4194 -0.0018
 3331TIP3    H231485   6.143   1.726  16.414 -1.3644  1.8583  0.7830
 3332TIP3   OH231486   5.560   1.239   4.585 -0.0689 -0.5210  0.4734
 3332TIP3    H131487   5.550   1.314   4.526  0.8970 -0.5823  0.2077
 3332TIP3    H231488   5.628   1.266   4.647 -1.3022 -0.3315  1.7881
 3333TIP3   OH231489   0.291   5.821  14.707  0.1120 -0.0754 -0.2057
 3333TIP3    H131490   0.373   5.790  14.746 -0.7667 -1.3443  0.7099
 3333TIP3    H231491   0.318   5.865  14.626  1.7656  0.3962  0.5572
 3334TIP3   OH231492   6.806   1.894  15.644 -0.2342  0.4039  0.1416
 3334TIP3    H131493   6.789   1.988  15.643  1.0225  0.6667 -1.7353
 3334TIP3    H231494   6.819   1.873  15.737 -2.7823  1.5865  0.8575
 3335TIP3   OH231495   2.025   5.843  11.527 -0.0116  0.0874  0.7103
 3335TIP3    H131496   2.033   5.931  11.492 -2.3500 -0.0206 -0.2639
 3335TIP3    H231497   2.097   5.835  11.589  1.5735  1.8843 -0.7859
 3336TIP3   OH231498   3.209   6.704  16.938 -0.5017 -0.2670 -0.5206
 3336TIP3    H131499   3.115   6.701  16.918 -0.6091 -3.6482 -0.1704
 3336TIP3    H231500   3.252   6.692  16.853 -0.3642  0.8188 -0.6182
 3337TIP3   OH231501   5.621   5.371  13.752  0.3077  0.1323  0.1076
 3337TIP3    H131502   5.610   5.450  13.804 -0.6099  0.8875 -1.1610
 3337TIP3    H231503   5.594   5.300  13.809  1.2335  0.7125  1.3025
 3338TIP3   OH231504   3.230   0.859  15.535 -0.3969  0.0713  0.1301
 3338TIP3    H131505   3.279   0.782  15.504  0.3695 -0.2846  2.0504
 3338TIP3    H231506   3.168   0.878  15.464 -0.9936 -2.6527 -0.2264
 3339TIP3   OH231507   4.233   5.601   5.356 -0.4850  0.4029  0.0969
 3339TIP3    H131508   4.256   5.572   5.445  0.6735  0.5653 -0.1401
 3339TIP3    H231509   4.277   5.685   5.346 -0.2346  0.1746 -0.7968
 3340TIP3   OH231510   5.260   2.210  10.828  0.3359 -0.7612  0.4863
 3340TIP3    H131511   5.283   2.123  10.794 -0.2050 -0.3244 -1.1000
 3340TIP3    H231512   5.341   2.260  10.824 -0.0556 -0.1784 -2.0201
 3341TIP3   OH231513   2.047   6.042  14.359 -0.0877  0.0584 -0.1807
 3341TIP3    H131514   1.968   6.049  14.306 -2.6082  0.2335  3.2931
 3341TIP3    H231515   2.090   5.962  14.327 -0.9307  0.6061 -2.9511
 3342TIP3   OH231516   3.415   3.319   0.176  0.1011 -0.1906 -0.6381
 3342TIP3    H131517   3.505   3.347   0.160  0.2117  1.3894  2.1919
 3342TIP3    H231518   3.362   3.370   0.114  0.8761  1.5432  0.0727
 3343TIP3   OH231519   3.044   0.255   0.979 -0.3370  0.1633  0.4167
 3343TIP3    H131520   3.128   0.301   0.987  1.1931 -2.5799  1.1003
 3343TIP3    H231521   2.994   0.285   1.055  0.6727  0.5605  0.9535
 3344TIP3   OH231522   3.350   1.677  11.829 -0.2140  0.6430 -0.5381
 3344TIP3    H131523   3.267   1.689  11.875  0.1154  0.4664  0.1085
 3344TIP3    H231524   3.417   1.696  11.894  0.2619 -0.1486 -0.7852
 3345TIP3   OH231525   3.263   1.875  13.469 -0.8108  0.6042 -0.3339
 3345TIP3    H131526   3.208   1.840  13.399 -0.0647 -1.2611 -0.0619
 3345TIP3    H231527   3.351   1.877  13.432 -0.6738  1.2231  0.0162
 3346TIP3   OH231528   3.557   4.780   4.583  0.1000  0.4132  0.1305
 3346TIP3    H131529   3.529   4.728   4.658 -0.6293  1.7221  0.8161
 3346TIP3    H231530   3.640   4.741   4.556 -0.9202 -1.7404 -0.0904
 3347TIP3   OH231531   1.470   1.520   2.941  0.3936 -0.2004 -0.1214
 3347TIP3    H131532   1.490   1.455   2.873 -0.5792 -0.2172 -0.4146
 3347TIP3    H231533   1.438   1.467   3.015 -0.9089 -0.0484 -0.5499
 3348TIP3   OH231534   0.668   1.064  16.590  0.0923  0.1964  0.1764
 3348TIP3    H131535   0.702   1.071  16.679 -0.8478 -0.1818  0.5829
 3348TIP3    H231536   0.660   1.154  16.560  0.4581  0.3255  0.4500
 3349TIP3   OH231537   6.300   2.676  11.794 -0.4634 -0.8739  0.6866
 3349TIP3    H131538   6.274   2.747  11.736 -1.4268  0.6437  2.8132
 3349TIP3    H231539   6.353   2.618  11.740  2.0447  2.4281 -0.7960
 3350TIP3   OH231540   0.472   3.971   5.453  0.1471  0.1974  0.2824
 3350TIP3    H131541   0.430   3.983   5.367  2.7829  0.6321 -1.0426
 3350TIP3    H231542   0.421   3.902   5.495  0.0412 -1.6435 -2.5702
 3351TIP3   OH231543   1.813   5.339   0.040  0.7407 -0.0407  0.7555
 3351TIP3    H131544   1.833   5.340   0.133  1.6225  0.1910  0.5661
 3351TIP3    H231545   1.823   5.247   0.014 -1.9727 -0.6156  1.3862
 3352TIP3   OH231546   6.853   1.632  12.028 -0.5161 -0.2656  0.2851
 3352TIP3    H131547   6.776   1.643  11.972 -1.0695 -1.1456  0.8341
 3352TIP3    H231548   6.866   1.717  12.069 -0.2949  0.2969 -0.9238
 3353TIP3   OH231549   6.558   5.366  11.894  0.0671 -0.3461  0.1425
 3353TIP3    H131550   6.491   5.371  11.826  0.9233  0.3621 -0.6839
 3353TIP3    H231551   6.569   5.456  11.924  0.7889 -0.4148  0.1086
 3354TIP3   OH231552   1.268   0.984   1.197 -0.2569  0.1030 -0.6550
 3354TIP3    H131553   1.327   0.920   1.238 -0.5597  0.2210 -0.0251
 3354TIP3    H231554   1.245   1.044   1.267 -0.2836  0.6844 -1.1573
 3355TIP3   OH231555   5.383   6.819   0.496  0.1066 -0.2393  0.9959
 3355TIP3    H131556   5.382   6.725   0.512 -1.7375 -0.4350  0.0621
 3355TIP3    H231557   5.445   6.831   0.424 -1.1707 -1.0695 -0.3089
 3356TIP3   OH231558   2.269   6.545  12.605 -0.8588  0.6253  0.3784
 3356TIP3    H131559   2.275   6.633  12.568  1.2078  0.3109 -0.1726
 3356TIP3    H231560   2.334   6.544  12.676 -0.7989 -0.4676  0.3336
 3357TIP3   OH231561   0.686   3.751  14.035  0.5450 -0.3996  0.4498
 3357TIP3    H131562   0.639   3.691  13.978  1.0600  1.4169 -2.0519
 3357TIP3    H231563   0.619   3.808  14.072  0.3421 -0.7897  0.6908
 3358TIP3   OH231564   6.660   1.317  12.007 -0.2623  0.1178  0.3026
 3358TIP3    H131565   6.616   1.262  11.943  1.2899  0.5411 -1.2175
 3358TIP3    H231566   6.746   1.334  11.969  1.3301 -0.8169  3.1860
 3359TIP3   OH231567   3.538   2.285   4.986  0.1935  0.3551 -0.3532
 3359TIP3    H131568   3.563   2.194   4.969  1.2224  0.7757 -1.2797
 3359TIP3    H231569   3.458   2.298   4.935  0.6095  0.2443 -1.0468
 3360TIP3   OH231570   1.258   1.837  16.235 -0.1993 -0.3051  0.2819
 3360TIP3    H131571   1.249   1.835  16.330 -1.9853  1.2218  0.1902
 3360TIP3    H231572   1.239   1.928  16.210  1.9919 -0.1999 -1.4111
 3361TIP3   OH231573   3.252   5.305   4.996 -0.2980  0.0849  0.2958
 3361TIP3    H131574   3.214   5.307   4.909 -1.1206 -0.5387  0.6279
 3361TIP3    H231575   3.187   5.348   5.052  0.4834  1.0168  0.5221
 3362TIP3   OH231576   4.355   1.599   5.185  0.5220 -1.0075  0.0767
 3362TIP3    H131577   4.327   1.690   5.194  3.7119  0.0109  0.8139
 3362TIP3    H231578   4.342   1.561   5.272  0.0184 -1.0295 -0.0026
 3363TIP3   OH231579   6.215   1.143   2.704 -0.4975 -0.2789 -0.3018
 3363TIP3    H131580   6.217   1.215   2.640 -1.1176  0.0589  0.0517
 3363TIP3    H231581   6.222   1.187   2.789  0.0539 -0.7076 -0.1191
 3364TIP3   OH231582   3.360   2.480  16.889  0.1137 -0.0572  0.5306
 3364TIP3    H131583   3.360   2.412  16.955  1.5624 -0.5951  0.0200
 3364TIP3    H231584   3.285   2.459  16.832  0.7209 -1.4066  0.2067
 3365TIP3   OH231585   5.967   0.993  14.952 -0.4388  0.1829  0.9791
 3365TIP3    H131586   6.012   0.914  14.980  0.0621  0.0810 -0.0514
 3365TIP3    H231587   5.875   0.967  14.943 -0.0102 -0.8370 -1.1632
 3366TIP3   OH231588   4.712   5.324   4.477 -0.6231  0.0044 -0.3732
 3366TIP3    H131589   4.735   5.409   4.514 -1.0178  0.3087 -0.8166
 3366TIP3    H231590   4.726   5.262   4.549 -1.1219  0.5551  0.2132
 3367TIP3   OH231591   0.700   0.360  15.929  0.3795  0.5313 -0.2897
 3367TIP3    H131592   0.629   0.422  15.941  0.0895 -0.0075  0.9656
 3367TIP3    H231593   0.717   0.326  16.017  0.2162 -1.5038 -1.0021
 3368TIP3   OH231594   1.572   5.298  10.780  0.0314 -0.0609 -0.7255
 3368TIP3    H131595   1.548   5.391  10.784 -1.6540 -0.4854 -0.1609
 3368TIP3    H231596   1.491   5.252  10.800  1.1292 -1.6466  0.2810
 3369TIP3   OH231597   2.152   0.575   5.648 -0.2034 -0.2837  0.7995
 3369TIP3    H131598   2.204   0.547   5.573 -0.9885  0.5652 -0.0942
 3369TIP3    H231599   2.188   0.527   5.722  1.1222 -0.5305  0.0207
 3370TIP3   OH231600   5.288   3.349   0.043 -0.0634  0.0864 -0.2341
 3370TIP3    H131601   5.231   3.421   0.015  0.7226  0.8118 -0.0255
 3370TIP3    H231602   5.251   3.271   0.001 -0.6527  0.6843 -0.8522
 3371TIP3   OH231603   2.230   2.399  16.007 -0.0659 -0.6592  0.0823
 3371TIP3    H131604   2.142   2.435  16.001 -0.2066 -1.0863 -0.4657
 3371TIP3    H231605   2.223   2.311  15.971  0.9255 -0.0902 -1.6359
 3372TIP3   OH231606   4.927   2.620  15.372  0.3966  0.2192  0.4979
 3372TIP3    H131607   4.871   2.679  15.424  1.4405  1.1889  0.5679
 3372TIP3    H231608   4.918   2.651  15.282  0.1530 -0.1817  0.3810
 3373TIP3   OH231609   5.136   5.454  13.734 -0.0192 -0.4737 -0.1191
 3373TIP3    H131610   5.073   5.382  13.739  1.0439 -1.5307 -1.2948
 3373TIP3    H231611   5.175   5.447  13.647 -0.0260  1.6838 -0.3683
 3374TIP3   OH231612   1.776   2.175  13.086 -0.2907  0.4485 -0.0319
 3374TIP3    H131613   1.785   2.270  13.091 -0.9750  0.7354 -2.7806
 3374TIP3    H231614   1.693   2.160  13.040 -0.0438 -1.4776  0.0423
 3375TIP3   OH231615   3.538   1.693  15.043  0.3375  0.1712  0.2673
 3375TIP3    H131616   3.447   1.663  15.052  0.3559  0.2067  0.5905
 3375TIP3    H231617   3.536   1.750  14.966  1.0419 -3.4265 -2.6593
 3376TIP3   OH231618   3.816   1.922   5.015 -0.0504  0.3262  0.4615
 3376TIP3    H131619   3.740   1.921   5.073  0.4247  1.5192  1.1433
 3376TIP3    H231620   3.890   1.942   5.072  0.7796 -0.7178 -0.2055
 3377TIP3   OH231621   6.522   1.649   5.958  0.5639 -0.4281 -0.3754
 3377TIP3    H131622   6.578   1.717   5.994 -0.6478 -0.5303  1.8412
 3377TIP3    H231623   6.505   1.589   6.031 -0.5861 -1.6378 -1.5645
 3378TIP3   OH231624   6.450   0.930  15.344  0.2253 -0.5883  0.4830
 3378TIP3    H131625   6.477   0.839  15.331  2.9756  0.5261 -2.8383
 3378TIP3    H231626   6.529   0.975  15.374 -0.6977  1.0088  0.6290
 3379TIP3   OH231627   3.504   0.780  11.375 -0.0756  0.2634  0.9698
 3379TIP3    H131628   3.599   0.770  11.372  0.2378  2.9059  0.1573
 3379TIP3    H231629   3.472   0.730  11.299  0.6266 -0.5496  1.1904
 3380TIP3   OH231630   3.612   5.765  11.323  0.8622  0.4438 -0.3068
 3380TIP3    H131631   3.601   5.777  11.417 -0.9995  1.9950 -0.6448
 3380TIP3    H231632   3.536   5.809  11.285 -0.0212 -2.5747 -2.4285
 3381TIP3   OH231633   4.985   3.097  13.528 -0.0666  0.1490  0.3395
 3381TIP3    H131634   4.999   3.061  13.440  1.6831  1.9067 -0.1700
 3381TIP3    H231635   4.903   3.056  13.557 -0.4387 -0.8795 -1.8866
 3382TIP3   OH231636   3.618   1.148   6.245 -0.0108  1.1412  0.6448
 3382TIP3    H131637   3.579   1.232   6.270 -1.6791  1.5680 -2.8652
 3382TIP3    H231638   3.554   1.107   6.187  3.1343  0.1793 -2.5471
 3383TIP3   OH231639   0.502   3.864  12.557  0.3043  0.4639  0.7808
 3383TIP3    H131640   0.509   3.957  12.534 -2.1532  0.4703 -0.2301
 3383TIP3    H231641   0.433   3.861  12.623 -0.4115 -0.7100  0.0260
 3384TIP3   OH231642   4.928   4.739   5.566  0.1170  0.8523 -0.0271
 3384TIP3    H131643   4.921   4.772   5.656  3.0429 -1.7554  1.3444
 3384TIP3    H231644   4.908   4.646   5.573  1.3767  0.4008 -1.8631
 3385TIP3   OH231645   4.460   3.027   4.943  0.2493  0.2081  0.0856
 3385TIP3    H131646   4.481   3.096   4.881 -0.6069 -0.1240 -0.6035
 3385TIP3    H231647   4.477   3.065   5.029  0.8569  0.8860 -0.3260
 3386TIP3   OH231648   5.690   1.220  13.247 -1.0262 -0.3924 -0.6110
 3386TIP3    H131649   5.630   1.292  13.227 -1.0266 -0.1270  0.3067
 3386TIP3    H231650   5.755   1.259  13.306 -1.8031 -1.4464  1.0085
 3387TIP3   OH231651   2.767   3.636   0.623 -0.3302  0.4464 -0.2442
 3387TIP3    H131652   2.825   3.608   0.694  1.0261  1.3083 -0.9588
 3387TIP3    H231653   2.813   3.710   0.584 -2.1098  1.3994 -0.6231
 3388TIP3   OH231654   0.440   6.174  10.494 -0.3559  0.3639 -0.4324
 3388TIP3    H131655   0.464   6.247  10.551 -1.0003 -0.0770  0.4369
 3388TIP3    H231656   0.397   6.215  10.419 -1.7965  0.8444  0.5999
 3389TIP3   OH231657   5.787   5.111   3.747  0.2623  0.8119  0.0237
 3389TIP3    H131658   5.747   5.160   3.819  0.1069 -0.5909  0.9378
 3389TIP3    H231659   5.880   5.107   3.771  0.1280 -0.0924  0.4317
 3390TIP3   OH231660   1.399   5.088   3.015  0.0948 -0.0669  0.4968
 3390TIP3    H131661   1.486   5.095   3.055  0.2322  0.4338  0.1158
 3390TIP3    H231662   1.406   5.013   2.956  0.0375 -0.5020  1.0282
 3391TIP3   OH231663   1.650   1.926  14.688  0.1959 -0.7622 -0.0382
 3391TIP3    H131664   1.633   1.962  14.775  1.2478  0.0506 -0.1392
 3391TIP3    H231665   1.565   1.895  14.657 -0.1640 -1.1887  1.3226
 3392TIP3   OH231666   6.307   1.900  11.620  0.5805  0.1799  0.7316
 3392TIP3    H131667   6.221   1.869  11.649  0.4672 -0.2725 -0.0642
 3392TIP3    H231668   6.356   1.821  11.600  0.8792  0.4600  0.3360
 3393TIP3   OH231669   3.486   0.763  15.787  0.2421 -0.2840 -0.1143
 3393TIP3    H131670   3.577   0.785  15.765  0.1504  0.1100 -0.1123
 3393TIP3    H231671   3.434   0.827  15.738 -0.0930 -1.2187 -1.0068
 3394TIP3   OH231672   3.823   5.324   1.441 -0.5268 -0.3032 -0.0394
 3394TIP3    H131673   3.841   5.404   1.491  1.1229 -0.5475 -0.1861
 3394TIP3    H231674   3.839   5.253   1.504  0.8482 -0.5843 -0.6640
 3395TIP3   OH231675   1.184   1.001   1.613 -0.0612 -0.6115 -0.9705
 3395TIP3    H131676   1.191   0.989   1.708  0.0134  0.1461 -0.8772
 3395TIP3    H231677   1.120   1.071   1.603  1.8948  1.2117 -1.3677
 3396TIP3   OH231678   6.669   3.876   0.805 -0.1198 -0.6842  0.4149
 3396TIP3    H131679   6.730   3.895   0.735 -0.7338  0.8616  0.2685
 3396TIP3    H231680   6.723   3.842   0.876  1.0279  1.2322  0.5205
 3397TIP3   OH231681   0.468   4.546  14.542 -0.2785  0.2595  0.2004
 3397TIP3    H131682   0.376   4.524  14.523 -0.5297  1.4464 -0.0701
 3397TIP3    H231683   0.517   4.468  14.517 -1.2135 -0.3928  0.3453
 3398TIP3   OH231684   2.813   1.521   3.263 -0.2252 -0.1552  0.0796
 3398TIP3    H131685   2.844   1.445   3.213 -2.2653 -0.0800 -1.4030
 3398TIP3    H231686   2.804   1.489   3.353 -0.5682 -1.5380 -0.4260
 3399TIP3   OH231687   4.043   3.366   1.786  0.3510  0.4908 -0.0630
 3399TIP3    H131688   4.037   3.350   1.692  0.0283 -1.4860  0.2407
 3399TIP3    H231689   3.965   3.418   1.806 -0.4982 -0.5137 -0.6514
 3400TIP3   OH231690   2.908   1.121  16.802  0.1975 -0.3463  0.7523
 3400TIP3    H131691   2.988   1.168  16.777  0.2734 -1.2593 -0.8385
 3400TIP3    H231692   2.845   1.191  16.823  0.8936  0.4260  0.3536
 3401TIP3   OH231693   6.156   0.778  16.457  0.3275 -0.0233  0.2225
 3401TIP3    H131694   6.108   0.701  16.427  1.0034 -0.7904  1.0748
 3401TIP3    H231695   6.248   0.756  16.446  0.5319  0.6756  0.4354
 3402TIP3   OH231696   5.266   4.394  11.585  0.2487  0.2736 -0.1258
 3402TIP3    H131697   5.328   4.458  11.620  0.4737  0.3748 -0.6987
 3402TIP3    H231698   5.206   4.446  11.531  0.6703 -0.0435 -0.9157
 3403TIP3   OH231699   6.358   1.672   0.563 -0.4323 -0.2968 -0.6633
 3403TIP3    H131700   6.424   1.603   0.561 -0.9661 -0.8097 -1.3211
 3403TIP3    H231701   6.290   1.642   0.502 -1.5228 -0.0359  0.3855
 3404TIP3   OH231702   4.061   4.960   3.342 -0.5088  0.2057 -0.0138
 3404TIP3    H131703   4.088   5.006   3.422  0.4429  0.1754 -0.3114
 3404TIP3    H231704   4.096   5.013   3.271 -1.8805  0.5684 -0.4494
 3405TIP3   OH231705   6.033   6.712   0.871 -0.8014 -0.2203 -0.2625
 3405TIP3    H131706   6.058   6.621   0.857  0.7190  0.3447 -1.6694
 3405TIP3    H231707   5.973   6.710   0.945 -2.7366 -2.6202 -1.7472
 3406TIP3   OH231708   6.524   1.479   0.438  0.7974 -0.0024 -0.5908
 3406TIP3    H131709   6.600   1.429   0.409 -0.4539 -1.8664 -0.8180
 3406TIP3    H231710   6.452   1.417   0.436 -0.5795  1.4702  0.4837
 3407TIP3   OH231711   5.994   2.990   2.257  0.5229  0.0460  0.2722
 3407TIP3    H131712   6.004   2.912   2.202  0.4517  0.5148 -0.4281
 3407TIP3    H231713   5.963   2.957   2.341 -0.7180 -0.5732 -0.3983
 3408TIP3   OH231714   3.157   0.153  13.195 -0.4829 -0.0768  0.4402
 3408TIP3    H131715   3.196   0.215  13.257  0.6493 -1.1335  0.8315
 3408TIP3    H231716   3.217   0.078  13.195  0.2616  0.3750 -2.9097
 3409TIP3   OH231717   0.626   4.567   0.147 -0.0289 -0.0757 -0.6066
 3409TIP3    H131718   0.685   4.638   0.121  0.5990 -1.0339 -1.9561
 3409TIP3    H231719   0.625   4.508   0.071  0.3517 -2.0796  0.8624
 3410TIP3   OH231720   5.274   3.057   3.360  0.2406  0.8489 -0.3784
 3410TIP3    H131721   5.270   3.093   3.271  1.1422 -1.5210 -1.4569
 3410TIP3    H231722   5.316   2.972   3.350  3.3312  1.7896  2.7814
 3411TIP3   OH231723   3.785   1.282  15.224 -0.0691 -0.3361  0.0127
 3411TIP3    H131724   3.716   1.287  15.158  0.0101  0.6742 -0.0001
 3411TIP3    H231725   3.864   1.312  15.180  0.0869 -0.1308  0.4196
 3412TIP3   OH231726   5.482   0.517  16.483 -0.1386 -0.5859 -0.1842
 3412TIP3    H131727   5.485   0.610  16.503 -3.2710 -0.3284 -0.5064
 3412TIP3    H231728   5.522   0.510  16.396 -0.9328  0.6524 -0.6637
 3413TIP3   OH231729   4.843   6.302  17.060  0.1733  0.2856  0.0554
 3413TIP3    H131730   4.839   6.351  16.978 -1.3535  1.6094  0.8578
 3413TIP3    H231731   4.924   6.331  17.102 -0.2533  1.4443  0.0938
 3414TIP3   OH231732   6.418   2.263   1.044  0.1797 -0.0507 -0.3851
 3414TIP3    H131733   6.323   2.268   1.048  0.1044 -1.2984 -0.2024
 3414TIP3    H231734   6.436   2.203   0.972  0.8390  0.4130 -0.6165
 3415TIP3   OH231735   3.802   3.772   2.517 -0.0242 -0.5603 -0.2747
 3415TIP3    H131736   3.760   3.857   2.522  1.4744  0.1444  2.2320
 3415TIP3    H231737   3.882   3.786   2.466  0.9083 -0.0609  1.2419
 3416TIP3   OH231738   4.916   6.615  16.139 -0.5036  0.0772 -0.0473
 3416TIP3    H131739   4.886   6.699  16.105  0.0579  0.1110 -0.4633
 3416TIP3    H231740   5.009   6.628  16.158  0.0181 -0.9465 -1.7245
 3417TIP3   OH231741   4.374   6.373   1.532  0.0385 -0.3757 -0.0162
 3417TIP3    H131742   4.428   6.321   1.592 -0.6175 -0.4978  0.4795
 3417TIP3    H231743   4.285   6.343   1.548 -0.3868  1.0178  0.4124
 3418TIP3   OH231744   5.171   1.336   5.814  0.0179  0.0138  0.1748
 3418TIP3    H131745   5.133   1.371   5.734  0.0388  3.0892  1.3683
 3418TIP3    H231746   5.119   1.375   5.885  2.4202  0.6780  1.7155
 3419TIP3   OH231747   4.566   2.774   3.880 -0.6033  0.3670  0.7699
 3419TIP3    H131748   4.480   2.742   3.908 -0.2166 -0.1271  1.4154
 3419TIP3    H231749   4.548   2.859   3.841 -1.2879  0.6340  1.6327
 3420TIP3   OH231750   3.406   1.495   1.717 -0.3138 -0.1838 -0.3931
 3420TIP3    H131751   3.487   1.484   1.668 -0.2808  0.6506 -0.5568
 3420TIP3    H231752   3.427   1.468   1.806  0.5067  1.1645 -0.1490
 3421TIP3   OH231753   2.221   4.022   0.587  0.2755  0.4226 -0.4971
 3421TIP3    H131754   2.303   4.059   0.618 -0.4471  1.7854 -0.1490
 3421TIP3    H231755   2.179   3.985   0.665 -0.3177  1.4694 -0.3032
 3422TIP3   OH231756   2.389   2.139   0.014 -0.3990 -0.1607  0.3926
 3422TIP3    H131757   2.345   2.224   0.008 -0.2223  0.1465  2.7273
 3422TIP3    H231758   2.461   2.145  -0.049 -0.6963  1.2253  0.1599
 3423TIP3   OH231759   0.505   5.098   0.420  0.2474 -0.2580  0.5964
 3423TIP3    H131760   0.433   5.158   0.438 -1.2648 -1.1130 -2.0646
 3423TIP3    H231761   0.555   5.140   0.350 -0.7924 -1.9079 -1.2581
 3424TIP3   OH231762   2.001   4.461   5.818 -0.1182 -1.1798 -0.7879
 3424TIP3    H131763   2.058   4.388   5.841  0.8726 -0.1509  0.1528
 3424TIP3    H231764   2.057   4.539   5.826 -2.2020  0.1783  2.6683
 3425TIP3   OH231765   0.824   1.366  15.409 -0.4341 -0.2535  0.4681
 3425TIP3    H131766   0.748   1.424  15.406 -0.2964 -0.0907 -2.0108
 3425TIP3    H231767   0.896   1.418  15.373  0.6218 -0.7993  1.6708
 3426TIP3   OH231768   2.636   2.317  10.398  0.3975  0.3396  0.1196
 3426TIP3    H131769   2.683   2.233  10.398  0.2661  0.2257 -1.5065
 3426TIP3    H231770   2.705   2.383  10.390  0.3752  0.2071 -1.5453
 3427TIP3   OH231771   0.223   1.799   4.708  0.2454 -0.1794 -0.2045
 3427TIP3    H131772   0.316   1.817   4.726  0.3685 -1.9924  1.2308
 3427TIP3    H231773   0.176   1.855   4.769  0.4657 -0.8010  0.5447
 3428TIP3   OH231774   4.613   3.602  13.358  0.0120 -0.2072  0.0043
 3428TIP3    H131775   4.546   3.634  13.298  0.1809 -0.0929 -0.1220
 3428TIP3    H231776   4.617   3.508  13.341 -2.3979 -0.8600  2.2231
 3429TIP3   OH231777   4.159   2.459   4.264  0.0394 -0.6405 -0.0332
 3429TIP3    H131778   4.172   2.395   4.195 -0.9984 -1.2619  0.3193
 3429TIP3    H231779   4.129   2.408   4.339  0.3166  0.1224  0.6158
 3430TIP3   OH231780   3.160   6.404   3.427 -0.1864 -1.0489  0.1783
 3430TIP3    H131781   3.249   6.410   3.391  0.3851  2.9027  1.7714
 3430TIP3    H231782   3.104   6.433   3.355 -0.0538 -1.7119 -0.2130
 3431TIP3   OH231783   6.034   5.579  11.055 -0.5583 -0.0394 -0.4578
 3431TIP3    H131784   5.961   5.588  11.117  1.0024  2.7709  1.2026
 3431TIP3    H231785   6.110   5.564  11.111  0.4199 -1.2581 -2.0445
 3432TIP3   OH231786   3.470   5.285   1.446  0.0845  0.1670  0.0666
 3432TIP3    H131787   3.528   5.298   1.371  0.6669 -0.7866  0.3334
 3432TIP3    H231788   3.527   5.290   1.522 -0.1658 -0.7720  0.3343
 3433TIP3   OH231789   0.726   3.404   5.497 -0.3156  0.4621 -0.3522
 3433TIP3    H131790   0.637   3.437   5.509  0.2509  1.2919  2.4449
 3433TIP3    H231791   0.782   3.482   5.506  0.7437 -0.2340 -0.7123
 3434TIP3   OH231792   3.362   4.624   6.295  0.5221 -0.0878  0.1863
 3434TIP3    H131793   3.452   4.654   6.282  0.3681  0.4509  0.3417
 3434TIP3    H231794   3.312   4.670   6.228  0.7190 -2.2403 -1.5363
 3435TIP3   OH231795   4.386   5.454   1.878  0.6116  0.3801  0.0979
 3435TIP3    H131796   4.320   5.500   1.827 -0.3032  0.1416  1.0317
 3435TIP3    H231797   4.463   5.511   1.874  0.9130 -0.1054 -2.3520
 3436TIP3   OH231798   4.633   5.606   3.694 -0.5046 -0.3053  0.1170
 3436TIP3    H131799   4.687   5.619   3.616  1.7317  0.1914  1.6438
 3436TIP3    H231800   4.552   5.654   3.675  0.0368 -0.0402 -1.7960
 3437TIP3   OH231801   6.118   6.413   6.103  0.0021 -0.0703  0.1642
 3437TIP3    H131802   6.098   6.363   6.182  2.0272  0.6743  1.2106
 3437TIP3    H231803   6.213   6.404   6.093 -0.1641  0.1115 -2.0315
 3438TIP3   OH231804   2.255   4.825  13.562 -0.6473 -0.2868  0.3748
 3438TIP3    H131805   2.343   4.860  13.575 -0.8371  0.4698 -0.2754
 3438TIP3    H231806   2.215   4.885  13.499 -1.3984 -1.0060  0.1556
 3439TIP3   OH231807   5.916   0.345  14.804 -0.1848 -0.2737 -0.0853
 3439TIP3    H131808   5.866   0.413  14.759  0.2899  2.0576  2.6446
 3439TIP3    H231809   5.851   0.280  14.830 -1.5080  1.5053  1.2849
 3440TIP3   OH231810   6.366   0.389   5.021  0.4424 -0.2266 -0.2532
 3440TIP3    H131811   6.358   0.293   5.016 -0.2239 -0.2631  1.1328
 3440TIP3    H231812   6.362   0.417   4.930 -2.1644 -1.3255 -0.5804
 3441TIP3   OH231813   4.166   5.277   4.553 -0.2382 -0.5479 -0.1804
 3441TIP3    H131814   4.155   5.236   4.639  1.6884  0.4104  0.5901
 3441TIP3    H231815   4.233   5.223   4.510 -1.3765 -1.1773 -1.2156
 3442TIP3   OH231816   6.542   5.593   0.796  0.5458 -0.1489  0.3771
 3442TIP3    H131817   6.538   5.499   0.778 -4.6132  0.1173 -1.5148
 3442TIP3    H231818   6.561   5.632   0.711  3.7260  0.6868  1.3406
 3443TIP3   OH231819   2.182   2.052   1.028  0.4108  0.1211  0.2889
 3443TIP3    H131820   2.191   2.125   0.967  1.2382 -0.5906 -0.4637
 3443TIP3    H231821   2.089   2.028   1.024  0.6728 -0.7411 -1.6996
 3444TIP3   OH231822   1.453   0.446   0.099  0.3270 -0.0392 -0.4236
 3444TIP3    H131823   1.498   0.484   0.175 -0.1932  1.7646 -0.9706
 3444TIP3    H231824   1.441   0.354   0.123 -0.9933  0.7159  2.2866
 3445TIP3   OH231825   3.142   1.195   0.563  0.5075 -0.1458  0.1416
 3445TIP3    H131826   3.236   1.181   0.548  0.4159 -0.9165  0.2446
 3445TIP3    H231827   3.099   1.126   0.513 -0.0132  0.1865  0.1164
 3446TIP3   OH231828   4.068   5.232   2.773  0.7108  0.4739  0.1810
 3446TIP3    H131829   4.088   5.275   2.690  1.4414  0.0667  0.1339
 3446TIP3    H231830   4.145   5.179   2.791  0.0688 -0.3718  0.5177
 3447TIP3   OH231831   4.142   0.274  14.746 -0.3914  0.7318 -0.0160
 3447TIP3    H131832   4.186   0.251  14.827  0.0251  0.6332 -0.2644
 3447TIP3    H231833   4.158   0.198  14.688 -2.6695 -0.2659  0.5637
 3448TIP3   OH231834   3.638   3.920  15.991 -0.4835 -0.1639 -0.5398
 3448TIP3    H131835   3.545   3.901  15.977 -0.4686 -0.8348  0.2123
 3448TIP3    H231836   3.667   3.962  15.910 -1.0505 -1.4185 -1.4105
 3449TIP3   OH231837   3.756   6.572  17.004  0.2278 -0.0378  1.0067
 3449TIP3    H131838   3.784   6.642  16.944 -1.5044 -0.4547 -0.3662
 3449TIP3    H231839   3.752   6.614  17.089 -0.7090  1.5446  0.2225
 3450TIP3   OH231840   3.780   0.262  14.162  1.0356 -0.1817 -0.1520
 3450TIP3    H131841   3.698   0.311  14.167  1.4433  0.3333  2.4756
 3450TIP3    H231842   3.759   0.176  14.200  1.1761 -0.9241 -1.6521
 3451TIP3   OH231843   6.051   5.687   3.868 -0.5955  0.2933  0.1696
 3451TIP3    H131844   5.970   5.652   3.831 -0.8286  0.5761  0.4072
 3451TIP3    H231845   6.095   5.728   3.794 -0.1506 -0.7970 -0.1916
 3452TIP3   OH231846   1.807   0.730  11.388 -0.3357 -0.7236  0.4651
 3452TIP3    H131847   1.797   0.682  11.305 -0.0094  1.2696 -0.7868
 3452TIP3    H231848   1.901   0.741  11.398 -0.4067 -0.3215  0.7154
 3453TIP3   OH231849   4.796   3.964   5.525  0.0782  0.5473 -0.2837
 3453TIP3    H131850   4.765   4.033   5.585  0.3020  1.2225 -0.9293
 3453TIP3    H231851   4.793   4.005   5.439  1.1925  0.0748 -0.5552
 3454TIP3   OH231852   2.085   3.512   0.671 -0.6302 -0.5850  0.4420
 3454TIP3    H131853   2.051   3.439   0.619 -0.1861 -0.4956  0.0160
 3454TIP3    H231854   2.099   3.582   0.607 -1.6553  0.0972  0.9412
 3455TIP3   OH231855   5.338   5.215  14.663  0.5261 -0.4178  0.1520
 3455TIP3    H131856   5.264   5.239  14.718  2.6491  1.6982  2.3524
 3455TIP3    H231857   5.353   5.123  14.681  0.6215  0.0044  2.6347
 3456TIP3   OH231858   4.657   3.117  12.277 -0.4979  0.4725 -0.0553
 3456TIP3    H131859   4.593   3.094  12.210 -0.4347  0.8281 -0.2356
 3456TIP3    H231860   4.679   3.033  12.319  0.3699  0.0718 -1.2619
 3457TIP3   OH231861   3.676   2.182   3.039  0.1294  0.2102  0.0150
 3457TIP3    H131862   3.750   2.154   2.984  0.3158  1.5834 -0.4902
 3457TIP3    H231863   3.599   2.157   2.989  0.2975  1.7057 -1.0863
 3458TIP3   OH231864   2.226   6.310  16.184 -0.2117  0.8645 -0.4517
 3458TIP3    H131865   2.155   6.355  16.230 -1.2067  0.0245 -1.1176
 3458TIP3    H231866   2.264   6.377  16.127 -1.0112  1.1380 -0.6871
 3459TIP3   OH231867   5.519   4.542   0.361 -0.2122 -0.3290  0.7684
 3459TIP3    H131868   5.454   4.611   0.377 -0.6356 -0.9002  1.5759
 3459TIP3    H231869   5.588   4.585   0.310 -0.6579  0.5954  0.9297
 3460TIP3   OH231870   6.258   5.139  10.827  0.1650 -0.6333 -0.6294
 3460TIP3    H131871   6.179   5.164  10.779 -1.0686 -0.7196  1.2551
 3460TIP3    H231872   6.295   5.222  10.858 -1.1569 -0.7402  1.4000
 3461TIP3   OH231873   6.419   3.296  13.647 -0.2982 -0.1570 -0.3122
 3461TIP3    H131874   6.415   3.386  13.615 -2.4664 -0.8249 -2.2109
 3461TIP3    H231875   6.464   3.249  13.577  0.4072 -0.6489  0.4557
 3462TIP3   OH231876   1.202   3.581   2.725  0.1209  0.3313  0.5536
 3462TIP3    H131877   1.288   3.539   2.728  0.4142  0.9011  0.1005
 3462TIP3    H231878   1.203   3.633   2.645 -0.3892  0.8886  0.9074
 3463TIP3   OH231879   4.220   2.953  14.961  0.1509 -0.3880 -0.5437
 3463TIP3    H131880   4.283   2.884  14.941 -0.5630 -1.1455 -0.2310
 3463TIP3    H231881   4.271   3.018  15.009  1.2545  0.1790 -2.3526
 3464TIP3   OH231882   3.693   6.657   4.876 -0.3570 -0.1622  0.2443
 3464TIP3    H131883   3.700   6.567   4.843 -1.7112 -0.8090  1.5866
 3464TIP3    H231884   3.721   6.712   4.803  0.0437 -1.6519 -0.7684
 3465TIP3   OH231885   5.996   3.129   0.498 -0.3197 -0.6710 -0.3341
 3465TIP3    H131886   5.914   3.099   0.458 -0.6363 -1.9012  1.1328
 3465TIP3    H231887   5.996   3.224   0.484 -1.4462 -0.7863 -1.3132
 3466TIP3   OH231888   0.069   5.391   0.572  0.1848  0.1922  0.0463
 3466TIP3    H131889   0.041   5.371   0.483  0.7259 -0.6381  0.0517
 3466TIP3    H231890   0.161   5.418   0.563  0.4536 -0.5793  0.4230
 3467TIP3   OH231891   0.550   5.980  16.429  0.5696  0.1337 -0.1236
 3467TIP3    H131892   0.520   5.939  16.348 -1.3361  2.2284 -0.5925
 3467TIP3    H231893   0.500   5.936  16.498 -0.1517  0.4328 -0.4418
 3468TIP3   OH231894   5.811   3.353   0.559 -0.0292 -0.1260 -0.0868
 3468TIP3    H131895   5.881   3.419   0.560 -0.5758  0.4746 -0.3919
 3468TIP3    H231896   5.742   3.390   0.615 -0.3733 -0.4003 -0.3221
 3469TIP3   OH231897   0.959   2.153  12.339 -0.0983 -0.1877  0.7232
 3469TIP3    H131898   0.965   2.233  12.392 -0.2782 -0.9430  1.9405
 3469TIP3    H231899   0.966   2.183  12.249  1.7631  1.0043  1.2142
 3470TIP3   OH231900   2.999   0.368  16.173  0.3201 -0.1647 -0.1545
 3470TIP3    H131901   2.982   0.274  16.163  0.2031  0.0918 -3.1971
 3470TIP3    H231902   2.942   0.395  16.246 -0.1198 -2.3037  0.3572
 3471TIP3   OH231903   4.869   0.431   1.315 -0.0063  0.4644 -0.0031
 3471TIP3    H131904   4.786   0.469   1.343 -1.5374 -1.4433 -1.6837
 3471TIP3    H231905   4.887   0.362   1.378  0.9082  1.5331  0.9594
 3472TIP3   OH231906   6.415   1.241  14.219  0.1454 -0.3149  0.6492
 3472TIP3    H131907   6.367   1.261  14.299 -0.2322  1.4675  0.0340
 3472TIP3    H231908   6.432   1.327  14.180 -0.7335 -1.1557 -1.7814
 3473TIP3   OH231909   3.633   3.103  15.070 -0.4231  0.1492 -0.1595
 3473TIP3    H131910   3.710   3.117  15.016  0.8340 -2.4943  0.7962
 3473TIP3    H231911   3.633   3.178  15.131 -1.6083  2.9175 -3.2673
 3474TIP3   OH231912   4.506   3.493  15.605  0.4171  0.1659 -0.3957
 3474TIP3    H131913   4.593   3.453  15.608  0.1033 -0.5122 -0.3971
 3474TIP3    H231914   4.520   3.582  15.639  1.2356  0.2913 -1.0132
 3475TIP3   OH231915   0.741   5.785   1.242  0.5510  0.5037  0.0008
 3475TIP3    H131916   0.756   5.769   1.335  0.3008  0.4907  0.0393
 3475TIP3    H231917   0.786   5.713   1.198 -0.3637 -0.1956  0.1643
 3476TIP3   OH231918   6.113   0.049  11.987  0.8083  0.0375 -0.6143
 3476TIP3    H131919   6.150   0.018  12.069  0.6341 -1.1413 -0.9664
 3476TIP3    H231920   6.018   0.042  11.998  0.7677  0.3566 -0.7357
 3477TIP3   OH231921   3.421   4.897  11.674  0.2598 -0.0393 -0.0815
 3477TIP3    H131922   3.380   4.947  11.744 -0.5091 -0.0658 -0.5037
 3477TIP3    H231923   3.419   4.806  11.705  0.0006 -0.0385 -0.0918
 3478TIP3   OH231924   4.367   5.206  13.706  0.4602 -0.2056 -0.6535
 3478TIP3    H131925   4.462   5.218  13.708  0.2998  1.2756  1.4412
 3478TIP3    H231926   4.344   5.183  13.796 -1.0796 -1.6432 -1.3579
 3479TIP3   OH231927   4.112   6.245   4.083 -0.2447 -0.0447 -1.1184
 3479TIP3    H131928   4.091   6.152   4.086 -0.6476  0.0703 -0.1728
 3479TIP3    H231929   4.147   6.265   4.170 -0.1155  0.6792 -1.3294
 3480TIP3   OH231930   1.470   3.878  11.854 -0.0695 -0.5595 -0.1477
 3480TIP3    H131931   1.555   3.909  11.823 -1.2304  0.6007 -2.5059
 3480TIP3    H231932   1.477   3.782  11.851  0.3821 -0.5260 -2.9305
 3481TIP3   OH231933   0.558   2.800   1.168 -0.3620  0.2669 -0.0668
 3481TIP3    H131934   0.577   2.708   1.153  1.7872  0.6165  0.2591
 3481TIP3    H231935   0.625   2.830   1.229 -1.2644  1.9639  0.1787
 3482TIP3   OH231936   5.892   6.682  15.569  0.1173 -0.2934  0.1064
 3482TIP3    H131937   5.887   6.603  15.624 -1.6004  0.7874  1.6093
 3482TIP3    H231938   5.827   6.668  15.501  0.6745 -0.6706 -0.3614
 3483TIP3   OH231939   1.689   6.703  15.814  0.5530  0.0046 -0.2094
 3483TIP3    H131940   1.693   6.630  15.752 -0.5224 -0.1016 -0.1817
 3483TIP3    H231941   1.734   6.671  15.892  1.8788  0.1246 -0.9059
 3484TIP3   OH231942   4.037   1.702  13.304  0.2099 -0.2800 -0.2736
 3484TIP3    H131943   4.055   1.733  13.392 -1.6760 -1.2608  0.4970
 3484TIP3    H231944   4.123   1.681  13.268  0.9069 -1.5051  1.9574
 3485TIP3   OH231945   3.090   4.061   5.597 -1.0262 -0.1159 -0.4614
 3485TIP3    H131946   3.161   4.113   5.634 -1.5310 -0.2718  0.7678
 3485TIP3    H231947   3.133   3.999   5.538 -0.4120  1.6072 -1.9061
 3486TIP3   OH231948   2.285   3.082  12.141 -0.2207 -0.4622  0.0974
 3486TIP3    H131949   2.233   3.125  12.209  0.5046  2.0385 -0.8217
 3486TIP3    H231950   2.308   2.997  12.179  0.3213  0.8856  3.0961
 3487TIP3   OH231951   4.418   0.718  12.366 -0.3086 -0.0398  0.2043
 3487TIP3    H131952   4.354   0.659  12.407 -1.1611 -0.5226 -1.7043
 3487TIP3    H231953   4.392   0.720  12.274  0.4967  2.3282 -0.0150
 3488TIP3   OH231954   2.829   5.429  15.732  0.1457 -0.2283 -0.0538
 3488TIP3    H131955   2.917   5.407  15.702  0.1075 -1.5729  0.7759
 3488TIP3    H231956   2.772   5.403  15.659  0.3884  0.3726 -0.4716
 3489TIP3   OH231957   4.213   4.693   1.402  0.1589  0.4776 -0.0731
 3489TIP3    H131958   4.151   4.747   1.351 -1.8643 -0.2444  1.4576
 3489TIP3    H231959   4.279   4.666   1.339  0.2173  3.1867 -1.3140
 3490TIP3   OH231960   2.972   4.295  14.481  0.2995  0.0659 -0.4188
 3490TIP3    H131961   2.882   4.300  14.449  0.6357  2.1383 -1.2003
 3490TIP3    H231962   2.986   4.202  14.498 -1.3106 -0.5830 -2.2138
 3491TIP3   OH231963   5.991   4.678  12.344 -0.0158 -0.4011  0.0964
 3491TIP3    H131964   5.935   4.722  12.281 -0.0879  0.2346  0.5931
 3491TIP3    H231965   6.061   4.741  12.362 -0.3081 -0.3463  1.0718
 3492TIP3   OH231966   3.814   2.253   2.622  0.0546  0.1254  0.4018
 3492TIP3    H131967   3.896   2.232   2.666  0.7671  2.3485  0.2225
 3492TIP3    H231968   3.839   2.276   2.533 -0.9783 -0.7797 -0.1491
 3493TIP3   OH231969   1.759   5.237  10.584 -0.7473  0.6647  0.4604
 3493TIP3    H131970   1.713   5.178  10.524 -1.1391  0.6506  0.7711
 3493TIP3    H231971   1.692   5.266  10.646 -0.3439  0.6619  0.9082
 3494TIP3   OH231972   5.393   2.133  17.048 -0.0605  0.2639  0.8963
 3494TIP3    H131973   5.369   2.040  17.051  1.9861 -0.3116  0.5516
 3494TIP3    H231974   5.487   2.134  17.066  0.6035  1.9713 -1.9854
 3495TIP3   OH231975   2.088   0.971  14.516 -0.1422  0.0638  0.3543
 3495TIP3    H131976   2.089   1.050  14.461 -1.4881  0.0632  0.2910
 3495TIP3    H231977   2.148   0.991  14.587  0.2734  0.7678 -0.1750
 3496TIP3   OH231978   3.587   6.517   5.286  0.1588 -0.0909 -0.0462
 3496TIP3    H131979   3.534   6.583   5.240  1.2977  0.8017 -0.1096
 3496TIP3    H231980   3.597   6.447   5.222 -4.3126 -2.2961  1.2000
 3497TIP3   OH231981   0.153   2.770  16.634 -0.5423  0.0949  0.4160
 3497TIP3    H131982   0.159   2.860  16.667 -0.5858  0.3076 -0.1521
 3497TIP3    H231983   0.182   2.716  16.707 -0.6442  0.5632  0.8073
 3498TIP3   OH231984   3.025   1.150  12.321  0.0079  0.5506 -0.1182
 3498TIP3    H131985   2.943   1.108  12.348  0.2348  0.9637  1.3152
 3498TIP3    H231986   2.998   1.220  12.262 -0.8540  1.6225  1.4638
 3499TIP3   OH231987   2.028   0.888  12.203  0.1198 -0.5125  0.0118
 3499TIP3    H131988   1.943   0.850  12.182  0.2749 -0.4822 -0.7055
 3499TIP3    H231989   2.012   0.942  12.280 -0.7150  0.2339 -0.6698
 3500TIP3   OH231990   4.023   5.625  16.424 -0.2663 -0.3567  0.2694
 3500TIP3    H131991   4.106   5.662  16.454 -1.0093  0.8599  0.9306
 3500TIP3    H231992   3.957   5.677  16.470 -1.3923 -0.9522 -0.6513
 3501TIP3   OH231993   0.692   4.829  12.556  0.0757  1.0024 -0.6165
 3501TIP3    H131994   0.618   4.863  12.607 -0.4666 -0.3031 -0.4698
 3501TIP3    H231995   0.669   4.737  12.541  2.0607  0.3350  0.1325
 3502TIP3   OH231996   0.049   4.811   1.215  0.4160  0.1215 -0.2207
 3502TIP3    H131997   0.045   4.904   1.190  0.9230  0.0398 -0.6366
 3502TIP3    H231998   0.142   4.789   1.206  0.0897 -0.8240 -1.5901
 3503TIP3   OH231999   6.286   0.804   1.902 -0.3437 -0.0389  0.4508
 3503TIP3    H132000   6.306   0.756   1.821 -0.0470 -0.9548  1.0441
 3503TIP3    H232001   6.216   0.864   1.878 -0.5386 -0.5829 -0.3980
 3504TIP3   OH232002   1.836   2.018   0.585  0.8952 -0.2691 -0.4579
 3504TIP3    H132003   1.828   2.110   0.562  1.5480 -0.8052 -3.1028
 3504TIP3    H232004   1.752   1.979   0.560  0.9412 -0.5559 -0.1721
 3505TIP3   OH232005   4.739   4.773   5.888  0.2921 -0.2082 -0.5159
 3505TIP3    H132006   4.724   4.758   5.981  0.4523 -0.1904 -0.4879
 3505TIP3    H232007   4.825   4.815   5.883  0.2478 -0.1317 -0.6646
 3506TIP3   OH232008   6.043   4.453   1.505 -0.2760 -0.5020 -0.3804
 3506TIP3    H132009   6.079   4.402   1.432  0.9715 -1.2188  0.6759
 3506TIP3    H232010   6.108   4.442   1.575  1.0502  4.0119 -0.6106
 3507TIP3   OH232011   5.058   6.853  16.941 -0.2940 -0.4362 -0.4985
 3507TIP3    H132012   5.127   6.830  17.003  0.4662  0.1699 -1.1033
 3507TIP3    H232013   4.988   6.889  16.995 -0.6419 -2.1278  0.2466
 3508TIP3   OH232014   4.653   0.162  14.223 -0.8485 -0.2609  0.4577
 3508TIP3    H132015   4.689   0.082  14.184 -0.9032  0.8149 -1.9331
 3508TIP3    H232016   4.578   0.184  14.168  0.8649  3.0054 -0.8173
 3509TIP3   OH232017   5.549   5.265   1.791 -0.6100 -0.3105 -0.4056
 3509TIP3    H132018   5.481   5.274   1.724 -0.3939  2.3350 -0.3627
 3509TIP3    H232019   5.617   5.326   1.764  0.4217 -0.7296  1.1516
 3510TIP3   OH232020   5.148   2.571   0.664  0.1989  0.1307 -0.2765
 3510TIP3    H132021   5.126   2.478   0.654  0.1897  0.1129 -0.0966
 3510TIP3    H232022   5.210   2.572   0.737  0.9936  0.1499 -0.9388
 3511TIP3   OH232023   4.380   3.366   2.414  0.2620  0.4916 -0.6951
 3511TIP3    H132024   4.442   3.304   2.376  1.0464  0.0455  1.2387
 3511TIP3    H232025   4.350   3.324   2.495 -1.4747  1.3445 -0.8521
 3512TIP3   OH232026   0.954   4.436   6.570  0.0972  0.1953 -0.3114
 3512TIP3    H132027   0.937   4.520   6.613  2.0348 -0.4151  1.7886
 3512TIP3    H232028   1.043   4.445   6.535  0.4444 -1.0600  0.2069
 3513TIP3   OH232029   2.280   6.598  15.236  0.0734  0.1896 -0.2932
 3513TIP3    H132030   2.303   6.685  15.269 -1.8485  0.2670  1.0310
 3513TIP3    H232031   2.184   6.599  15.232  0.0571 -1.6058 -1.0040
 3514TIP3   OH232032   3.445   3.836  11.089  0.4713 -0.5627  0.1088
 3514TIP3    H132033   3.398   3.874  11.014 -0.4555  0.2288  1.0625
 3514TIP3    H232034   3.384   3.772  11.125  1.2150 -1.4886 -0.2385
 3515TIP3   OH232035   6.210   1.812   3.203 -0.2381  0.6341  0.4686
 3515TIP3    H132036   6.265   1.868   3.148  0.1928  0.4817  0.7399
 3515TIP3    H232037   6.269   1.779   3.270 -0.0000 -1.6760 -0.7596
 3516TIP3   OH232038   4.435   4.331  12.846  0.0069 -0.4309  0.1432
 3516TIP3    H132039   4.373   4.269  12.809 -1.5335  0.8296  0.4991
 3516TIP3    H232040   4.391   4.416  12.838  0.9291  0.2808  2.0449
 3517TIP3   OH232041   5.362   5.913   3.534 -0.0457 -0.1755 -0.0773
 3517TIP3    H132042   5.278   5.868   3.530  0.7005 -1.5940 -0.4359
 3517TIP3    H232043   5.340   6.006   3.528 -1.8096 -0.2886  2.9422
 3518TIP3   OH232044   5.943   4.990   2.887  0.5071  0.2260 -0.4970
 3518TIP3    H132045   5.856   4.987   2.849  0.2170 -1.4742  0.2001
 3518TIP3    H232046   5.928   4.988   2.981  1.2841  1.3631 -0.3296
 3519TIP3   OH232047   0.462   0.483  15.412  0.5630 -0.6016 -0.2793
 3519TIP3    H132048   0.540   0.538  15.400  1.1908 -1.6368 -1.1423
 3519TIP3    H232049   0.484   0.400  15.369 -1.0274 -0.9182 -0.5441
 3520TIP3   OH232050   4.663   1.609  11.177  0.0482 -0.2018 -0.3848
 3520TIP3    H132051   4.613   1.547  11.124  1.5494 -1.3007 -0.5677
 3520TIP3    H232052   4.726   1.648  11.115  0.9179 -0.5024  0.2911
 3521TIP3   OH232053   6.360   5.192   0.966  0.5189  0.0127  0.3920
 3521TIP3    H132054   6.280   5.168   1.013 -0.4388  1.7322 -0.2736
 3521TIP3    H232055   6.400   5.109   0.942 -1.6070 -0.9127 -0.1575
 3522TIP3   OH232056   1.677   4.494  16.499 -0.2205 -0.0243  0.2134
 3522TIP3    H132057   1.710   4.496  16.589  0.0581  0.8909  0.0992
 3522TIP3    H232058   1.724   4.565  16.455  0.9174 -1.5526 -1.1231
 3523TIP3   OH232059   4.031   4.662  12.236  0.2753  0.0236 -0.1031
 3523TIP3    H132060   4.030   4.732  12.171 -1.5730  0.5677  0.4481
 3523TIP3    H232061   4.031   4.707  12.321  0.8333 -0.6660  0.2757
 3524TIP3   OH232062   3.482   0.420  15.919 -0.2029  0.5338  0.7813
 3524TIP3    H132063   3.515   0.349  15.974 -1.8079 -0.1709  0.8821
 3524TIP3    H232064   3.530   0.498  15.948  0.3592 -0.1824  1.8347
 3525TIP3   OH232065   6.850   4.079  11.280  0.0305  0.1467 -0.1519
 3525TIP3    H132066   6.919   4.122  11.229  0.7385  1.3182  1.6579
 3525TIP3    H232067   6.770   4.126  11.257  0.0324 -0.4059 -1.3493
 3526TIP3   OH232068   5.262   3.645  12.507  0.2609 -0.0224 -0.2780
 3526TIP3    H132069   5.249   3.563  12.460  1.6734  1.0899 -2.8356
 3526TIP3    H232070   5.279   3.619  12.597 -0.8630 -2.4008 -0.6832
 3527TIP3   OH232071   0.513   0.746  16.158  0.0662  0.3119 -0.1710
 3527TIP3    H132072   0.549   0.830  16.186  0.2589 -0.0732  0.7989
 3527TIP3    H232073   0.483   0.761  16.069 -1.8303  2.0058  0.6854
 3528TIP3   OH232074   5.411   6.689  12.549 -0.0389 -0.2976  0.2877
 3528TIP3    H132075   5.345   6.744  12.591  1.4986  0.5881  1.6836
 3528TIP3    H232076   5.467   6.659  12.621  2.1361  0.4905 -0.9682
 3529TIP3   OH232077   5.933   4.470  15.794 -0.6657 -0.6731  0.1455
 3529TIP3    H132078   5.988   4.396  15.765 -1.2538 -1.9812  2.1872
 3529TIP3    H232079   5.991   4.523  15.848 -0.1950  0.5233 -1.4610
 3530TIP3   OH232080   5.943   3.287   2.995  0.0077  0.1003  0.1680
 3530TIP3    H132081   5.913   3.371   2.961 -0.2929  1.0451  2.5869
 3530TIP3    H232082   5.867   3.230   2.987  0.1057  0.1231 -1.1665
 3531TIP3   OH232083   6.458   2.887  12.635  0.3401 -0.6649 -0.5755
 3531TIP3    H132084   6.494   2.930  12.713 -0.3740  2.5578 -1.8677
 3531TIP3    H232085   6.393   2.825  12.670  1.1159 -0.4393  1.4176
 3532TIP3   OH232086   3.495   4.089  10.678  0.4838 -0.0669 -0.2739
 3532TIP3    H132087   3.553   4.161  10.653  0.6036 -0.4213 -1.0402
 3532TIP3    H232088   3.411   4.110  10.636  0.3626 -0.1095 -0.0585
 3533TIP3   OH232089   3.023   6.846  16.393  0.3778  0.5848 -0.6306
 3533TIP3    H132090   2.982   6.760  16.393 -1.4071  1.3859 -1.5605
 3533TIP3    H232091   3.103   6.835  16.341  0.5478 -0.6523 -0.1353
 3534TIP3   OH232092   1.210   1.849   1.357 -0.3215  0.2456 -0.0288
 3534TIP3    H132093   1.294   1.895   1.356 -0.6255  0.8074  0.0241
 3534TIP3    H232094   1.150   1.909   1.401 -0.3638 -0.8395  1.4887
 3535TIP3   OH232095   0.382   5.559  12.518  0.8553  0.3173 -0.6934
 3535TIP3    H132096   0.305   5.514  12.484  0.2650 -0.9485  2.0558
 3535TIP3    H232097   0.390   5.637  12.463 -2.7190  0.8011 -0.7821
 3536TIP3   OH232098   1.052   6.329  12.645  0.0784  0.1736  0.0966
 3536TIP3    H132099   0.981   6.269  12.666 -0.2341 -0.2813 -1.9946
 3536TIP3    H232100   1.130   6.289  12.682  0.1084 -2.3300 -2.3598
 3537TIP3   OH232101   5.814   4.810  12.197 -0.0707  0.1656 -0.1169
 3537TIP3    H132102   5.765   4.876  12.247  1.1991  0.6851  0.4664
 3537TIP3    H232103   5.813   4.843  12.107 -1.2471 -0.1190 -0.2364
 3538TIP3   OH232104   4.459   2.936  11.751  0.1862  0.0248 -0.1474
 3538TIP3    H132105   4.404   2.884  11.811  1.2646 -2.3036 -1.0758
 3538TIP3    H232106   4.402   2.956  11.677  0.3573 -1.8502 -0.8246
 3539TIP3   OH232107   1.513   6.604   4.335  0.0580 -0.1645  0.4053
 3539TIP3    H132108   1.601   6.606   4.297  1.2840 -2.8414  2.7728
 3539TIP3    H232109   1.495   6.511   4.349 -1.6012  0.4608  3.2657
 3540TIP3   OH232110   0.708   4.710   5.435  0.2839  0.7459 -0.2884
 3540TIP3    H132111   0.675   4.689   5.348  0.9623 -1.0392 -0.1563
 3540TIP3    H232112   0.778   4.646   5.450 -0.6737  0.1416  2.0791
 3541TIP3   OH232113   2.700   1.867  14.999  0.2981  0.1141  0.7865
 3541TIP3    H132114   2.657   1.815  15.066 -0.6809 -1.0212 -0.6391
 3541TIP3    H232115   2.714   1.806  14.926 -2.5265  2.0966 -1.6986
 3542TIP3   OH232116   5.240   5.312  13.492 -0.2581 -0.3777  0.0430
 3542TIP3    H132117   5.183   5.256  13.439 -0.1212 -1.5752  1.1065
 3542TIP3    H232118   5.269   5.381  13.432  0.6184 -2.1690 -1.6731
 3543TIP3   OH232119   4.236   3.651  13.729  0.1244 -0.0286  0.1401
 3543TIP3    H132120   4.179   3.711  13.680  1.4235  0.6944 -0.5261
 3543TIP3    H232121   4.268   3.702  13.803  1.1580  0.0857 -0.3744
 3544TIP3   OH232122   5.950   6.273  14.203 -0.4575 -0.0888  0.3890
 3544TIP3    H132123   5.855   6.267  14.215 -0.4316 -0.7078  0.3222
 3544TIP3    H232124   5.978   6.183  14.191  0.0809  0.1296 -0.0416
 3545TIP3   OH232125   1.124   3.118   3.875  0.3913  0.0740  0.4100
 3545TIP3    H132126   1.072   3.171   3.814 -2.5863 -1.0295  1.7924
 3545TIP3    H232127   1.178   3.181   3.921 -1.6256  1.7473  0.6574
 3546TIP3   OH232128   4.084   3.273  16.537 -0.1963  0.1862  0.3482
 3546TIP3    H132129   4.118   3.213  16.471 -0.2730 -1.0127  1.3524
 3546TIP3    H232130   4.159   3.326  16.563  0.0745 -0.0428  0.0389
 3547TIP3   OH232131   3.784   6.418   5.447  0.4470 -0.7742  0.4824
 3547TIP3    H132132   3.753   6.339   5.402  0.5980 -0.9959  0.7662
 3547TIP3    H232133   3.726   6.487   5.416 -0.1071 -1.1214  0.7248
 3548TIP3   OH232134   6.201   1.219   4.228  0.1842 -0.4680  0.0181
 3548TIP3    H132135   6.119   1.269   4.226 -1.3046 -2.6736  1.2182
 3548TIP3    H232136   6.238   1.230   4.140 -1.8828 -0.0935 -0.8726
 3549TIP3   OH232137   4.334   2.225   5.343 -0.0447 -0.4917 -1.0233
 3549TIP3    H132138   4.278   2.302   5.333  0.2371  0.0211  0.9139
 3549TIP3    H232139   4.275   2.151   5.335 -0.7900  0.0076 -0.2732
 3550TIP3   OH232140   4.665   5.117  12.433 -0.0076 -0.3445 -0.5646
 3550TIP3    H132141   4.613   5.071  12.499 -0.2384 -1.6861 -1.6554
 3550TIP3    H232142   4.710   5.186  12.483  0.8327 -2.0917  1.2580
 3551TIP3   OH232143   2.132   2.291  14.671 -0.1166  0.2585 -0.5450
 3551TIP3    H132144   2.074   2.221  14.700  0.0573  0.6389  0.7780
 3551TIP3    H232145   2.126   2.289  14.575 -1.4572 -0.4101 -0.4681
 3552TIP3   OH232146   5.432   1.847   2.051 -0.0988  0.6140 -0.5021
 3552TIP3    H132147   5.461   1.815   2.136 -0.3101  2.3497  0.2593
 3552TIP3    H232148   5.437   1.770   1.994 -2.2798 -1.2468  1.5940
 3553TIP3   OH232149   3.867   3.672  11.451  0.2315 -0.2494  0.5736
 3553TIP3    H132150   3.805   3.690  11.522 -2.1431 -1.4477 -1.0745
 3553TIP3    H232151   3.951   3.704  11.484 -1.3559  2.1843  2.6378
 3554TIP3   OH232152   6.786   6.131   1.245  0.0212  0.0495  0.1592
 3554TIP3    H132153   6.793   6.036   1.232  1.0767 -0.0545  1.3401
 3554TIP3    H232154   6.857   6.168   1.192 -1.1832  0.3251 -1.3567
 3555TIP3   OH232155   0.031   3.763   5.211 -0.2296 -0.0581  0.6258
 3555TIP3    H132156   0.079   3.681   5.206 -0.2419  0.0119 -1.1165
 3555TIP3    H232157   0.011   3.786   5.120 -0.0166  2.0017  1.0320
 3556TIP3   OH232158   0.033   5.329  11.636  0.4283 -0.0328 -0.7520
 3556TIP3    H132159   0.110   5.384  11.621  0.7733 -0.6218 -1.1708
 3556TIP3    H232160  -0.036   5.391  11.659  1.3960  0.4107  1.2451
 3557TIP3   OH232161   5.627   3.134   2.463 -0.1204  0.5796  0.2533
 3557TIP3    H132162   5.550   3.110   2.411  0.3735 -0.1288 -0.1603
 3557TIP3    H232163   5.698   3.140   2.399  0.7320 -1.3567  0.9435
 3558TIP3   OH232164   4.757   4.552   2.835 -0.0836 -0.7045 -0.1835
 3558TIP3    H132165   4.801   4.594   2.762 -2.0661  0.9155 -0.5425
 3558TIP3    H232166   4.797   4.591   2.913  2.6206 -3.0374 -0.2351
 3559TIP3   OH232167   0.043   0.107   5.410 -0.0459 -0.3254 -0.4050
 3559TIP3    H132168  -0.035   0.084   5.461 -0.1066  1.9857  0.6885
 3559TIP3    H232169   0.115   0.096   5.472  0.2607 -0.6040 -0.8150
 3560TIP3   OH232170   0.273   2.918  14.460 -0.2560  0.8059 -0.5185
 3560TIP3    H132171   0.241   2.998  14.500 -3.2930  0.0148 -1.1147
 3560TIP3    H232172   0.306   2.946  14.374  2.1069  1.8516  0.6630
 3561TIP3   OH232173   5.693   3.981   5.717 -0.4205 -0.8063  0.2693
 3561TIP3    H132174   5.782   3.976   5.751 -0.0931  0.5473 -0.3489
 3561TIP3    H232175   5.640   4.010   5.791  0.2874  2.1340 -0.2814
 3562TIP3   OH232176   1.307   5.174   1.156 -0.8538 -0.1851 -0.1160
 3562TIP3    H132177   1.252   5.171   1.077 -0.3449  0.2370 -0.4939
 3562TIP3    H232178   1.354   5.091   1.155 -0.5993 -0.0407 -0.4439
 3563TIP3   OH232179   6.719   0.405   0.090  0.0360 -0.4035  0.2803
 3563TIP3    H132180   6.682   0.493   0.087  0.9363  0.0024  0.7040
 3563TIP3    H232181   6.798   0.411   0.037 -0.7764 -1.4118 -1.1331
 3564TIP3   OH232182   4.784   5.133  16.920  0.2766  0.3555 -0.7680
 3564TIP3    H132183   4.848   5.152  16.988 -1.8985  1.0899  1.1776
 3564TIP3    H232184   4.739   5.054  16.951  0.1418 -0.0800 -2.0268
 3565TIP3   OH232185   2.558   2.717  16.101  0.5296  0.3180  0.2675
 3565TIP3    H132186   2.651   2.742  16.102  1.9615 -4.1155  0.6214
 3565TIP3    H232187   2.539   2.693  16.192  0.7562 -3.5596 -0.5422
 3566TIP3   OH232188   0.937   4.486   4.563 -0.1009  0.4145  0.1922
 3566TIP3    H132189   1.012   4.527   4.605 -0.1913  0.6761  0.1023
 3566TIP3    H232190   0.974   4.436   4.490 -0.1851  2.3496 -1.2691
 3567TIP3   OH232191   2.303   2.933   3.725 -0.3983 -0.2199 -0.1342
 3567TIP3    H132192   2.271   3.023   3.735 -1.3289 -0.5079 -0.4324
 3567TIP3    H232193   2.380   2.929   3.781  0.5011  1.1789 -1.2028
 3568TIP3   OH232194   0.883   3.481   1.630  0.9546  0.2233  0.3964
 3568TIP3    H132195   0.873   3.457   1.538  1.4672  0.4970  0.2643
 3568TIP3    H232196   0.855   3.404   1.678  1.4698 -0.2210 -0.0025
 3569TIP3   OH232197   4.331   3.935   0.489  0.6385 -0.1089  0.0155
 3569TIP3    H132198   4.419   3.921   0.455  0.8544  0.5975  0.2717
 3569TIP3    H232199   4.276   3.947   0.412  1.1827  1.8507 -0.1321
 3570TIP3   OH232200   2.636   6.440   0.026 -0.6550 -0.0897  0.0328
 3570TIP3    H132201   2.572   6.496  -0.018 -0.5221 -0.6733 -0.9464
 3570TIP3    H232202   2.607   6.350   0.007 -0.0697 -0.3576  0.3619
 3571TIP3   OH232203   3.676   3.257   4.754  0.1789 -0.0183  0.3291
 3571TIP3    H132204   3.665   3.317   4.827  0.4085  0.3796  0.0408
 3571TIP3    H232205   3.753   3.204   4.777 -0.7011 -0.9956  1.1146
 3572TIP3   OH232206   1.060   1.435  13.108 -0.0473  0.0871 -0.2606
 3572TIP3    H132207   1.082   1.384  13.186 -0.0017  0.5921  0.0620
 3572TIP3    H232208   1.136   1.426  13.051 -0.4563 -1.0547 -0.6629
 3573TIP3   OH232209   2.900   5.355   4.761 -0.0307  0.5094  0.0633
 3573TIP3    H132210   2.888   5.446   4.790 -0.3692 -0.3631  2.9396
 3573TIP3    H232211   2.818   5.312   4.783  0.9610 -0.9956  0.9768
 3574TIP3   OH232212   3.976   1.717  12.438 -0.0867 -0.7907 -0.1706
 3574TIP3    H132213   4.015   1.689  12.520  0.6647 -0.4859 -0.4098
 3574TIP3    H232214   4.020   1.665  12.371 -0.7653 -1.1119 -0.3804
 3575TIP3   OH232215   5.980   6.830   6.230  0.4222  0.0411 -0.2433
 3575TIP3    H132216   6.024   6.846   6.313  0.2997 -0.9718  0.0245
 3575TIP3    H232217   5.888   6.853   6.246  0.3541 -0.3767 -0.0262
 3576TIP3   OH232218   4.870   2.374  14.807 -0.2935  0.1224  0.0067
 3576TIP3    H132219   4.881   2.458  14.851 -1.7872 -0.1140  0.9091
 3576TIP3    H232220   4.818   2.394  14.729  0.8624  0.2710 -0.7595
 3577TIP3   OH232221   0.314   4.043  13.416 -0.7099 -0.4521 -0.2060
 3577TIP3    H132222   0.323   4.123  13.469 -0.9658  0.6869 -1.8216
 3577TIP3    H232223   0.377   3.982  13.455  0.3356  0.9256  0.3499
 3578TIP3   OH232224   6.556   2.566  12.105 -0.4256  0.2638 -0.4567
 3578TIP3    H132225   6.494   2.629  12.068 -0.3336 -0.2524 -1.5188
 3578TIP3    H232226   6.584   2.606  12.187 -3.7080 -0.3837  1.1569
 3579TIP3   OH232227   0.073   2.917   4.470  0.8052 -0.0072  0.1650
 3579TIP3    H132228   0.068   2.823   4.491  1.5541 -0.6664 -2.2699
 3579TIP3    H232229  -0.017   2.947   4.472  0.6359 -0.5055  1.9431
 3580TIP3   OH232230   0.432   2.850   0.635  0.5007 -0.3912 -0.1261
 3580TIP3    H132231   0.439   2.841   0.730  1.6388 -1.0510 -0.2546
 3580TIP3    H232232   0.523   2.855   0.605  0.1792 -1.1133 -1.2668
 3581TIP3   OH232233   1.404   0.335  16.145  0.3419  0.2196  0.2757
 3581TIP3    H132234   1.499   0.345  16.157  0.2726 -0.0725  1.1307
 3581TIP3    H232235   1.366   0.398  16.206 -0.0295  1.1634 -0.8751
 3582TIP3   OH232236   4.811   3.658  14.047  0.6298  0.2701 -0.8124
 3582TIP3    H132237   4.872   3.621  14.111  0.8525  1.1902 -0.4693
 3582TIP3    H232238   4.868   3.705  13.985  0.4649 -1.0649 -2.0260
 3583TIP3   OH232239   4.553   6.385  12.898 -0.2439 -0.2918  0.1368
 3583TIP3    H132240   4.512   6.382  12.985  0.1069  0.2293  0.3253
 3583TIP3    H232241   4.581   6.476  12.888  0.0978 -0.4460 -0.3461
 3584TIP3   OH232242   5.525   2.563   1.508 -0.1567 -0.5299  0.4076
 3584TIP3    H132243   5.474   2.482   1.517 -1.2102 -0.2637 -2.3034
 3584TIP3    H232244   5.461   2.633   1.520 -0.0338 -0.1736 -0.8592
 3585TIP3   OH232245   1.260   4.272  14.593  0.1675  0.1078 -0.3596
 3585TIP3    H132246   1.201   4.347  14.590  0.4542  0.3361 -0.2940
 3585TIP3    H232247   1.213   4.206  14.644  0.2593  0.5382  0.2903
 3586TIP3   OH232248   3.149   6.484  10.421 -0.4508 -0.3488  0.0254
 3586TIP3    H132249   3.179   6.405  10.376  0.5960  0.3853 -0.6341
 3586TIP3    H232250   3.096   6.530  10.356 -1.3555 -0.6698  0.5262
 3587TIP3   OH232251   4.814   0.607   3.919  0.0592 -0.1092 -0.3071
 3587TIP3    H132252   4.880   0.621   3.986 -0.6798 -0.3670  0.4921
 3587TIP3    H232253   4.828   0.517   3.890 -0.6469 -0.5516  0.6739
 3588TIP3   OH232254   6.860   4.769   1.888  0.2003  0.2007 -0.0374
 3588TIP3    H132255   6.876   4.863   1.879 -1.1834  0.3297 -1.4769
 3588TIP3    H232256   6.822   4.759   1.976 -1.2919  1.2506 -0.5306
 3589TIP3   OH232257   2.546   1.615  14.240 -0.0384  0.1991  0.0206
 3589TIP3    H132258   2.503   1.627  14.155  2.8438  1.3854 -1.4104
 3589TIP3    H232259   2.475   1.596  14.301 -2.4014  1.0041 -2.3227
 3590TIP3   OH232260   3.726   6.696  13.677  0.2596 -0.4775  0.5553
 3590TIP3    H132261   3.792   6.655  13.622  1.3603 -1.0396  2.2108
 3590TIP3    H232262   3.688   6.624  13.727  0.7329  0.2178  1.9749
 3591TIP3   OH232263   0.489   6.178   6.407 -0.4726  0.0365  0.6547
 3591TIP3    H132264   0.543   6.248   6.371 -1.1279  1.5228  2.3682
 3591TIP3    H232265   0.551   6.111   6.435  0.1780 -0.0358 -0.8672
 3592TIP3   OH232266   4.360   0.774  16.433 -0.6652 -0.5419  0.6421
 3592TIP3    H132267   4.440   0.814  16.468 -1.2616  1.5228 -0.1722
 3592TIP3    H232268   4.385   0.741  16.347 -1.1632  2.4324 -0.7717
 3593TIP3   OH232269   2.026   4.656   0.889  0.2566  0.2637  0.5694
 3593TIP3    H132270   2.044   4.728   0.829 -0.8629  2.4982  2.7334
 3593TIP3    H232271   2.109   4.641   0.934  1.0359 -1.2637 -1.2525
 3594TIP3   OH232272   5.829   2.052   0.699  0.0722 -0.2052  0.5749
 3594TIP3    H132273   5.795   2.039   0.787  0.4253  0.5008  0.8226
 3594TIP3    H232274   5.921   2.025   0.704  1.1547  3.1122  1.3816
 3595TIP3   OH232275   5.317   4.844   2.480  0.4666  0.1719 -0.8518
 3595TIP3    H132276   5.346   4.850   2.389  0.4463 -1.8333 -1.0391
 3595TIP3    H232277   5.222   4.860   2.476  0.5370  0.5185 -1.1305
 3596TIP3   OH232278   5.392   3.407   3.345  0.3408  0.0316  0.1368
 3596TIP3    H132279   5.343   3.358   3.279  0.7212 -0.1465 -0.0173
 3596TIP3    H232280   5.354   3.495   3.342  2.3544  0.9672 -2.5589
 3597TIP3   OH232281   5.068   6.178   4.564  0.2768 -0.0829  0.1564
 3597TIP3    H132282   5.136   6.170   4.631 -0.0494 -2.2362  0.2992
 3597TIP3    H232283   4.986   6.177   4.613  0.0044 -2.4311 -0.2391
 3598TIP3   OH232284   2.303   1.511   2.034  0.1680  0.1622  0.2853
 3598TIP3    H132285   2.256   1.561   2.101 -0.7425 -0.8940  0.4889
 3598TIP3    H232286   2.236   1.453   1.997  1.4315 -1.9144  1.0732
 3599TIP3   OH232287   3.310   2.665  14.866  0.4740  0.1982  0.2197
 3599TIP3    H132288   3.329   2.659  14.773 -1.4150 -0.1406 -0.1840
 3599TIP3    H232289   3.383   2.716  14.902  2.0616 -0.9795 -1.1406
 3600TIP3   OH232290   2.764   3.918   1.522  0.1734 -0.2392 -0.1359
 3600TIP3    H132291   2.721   3.839   1.555 -0.7894 -0.4260 -1.7557
 3600TIP3    H232292   2.807   3.890   1.441  2.0242  0.3281  0.5961
 3601TIP3   OH232293   2.312   3.435   3.930  0.2171 -0.2767  0.4441
 3601TIP3    H132294   2.381   3.497   3.951  0.3002  0.0911 -0.8276
 3601TIP3    H232295   2.231   3.479   3.958  0.4066 -0.2845  1.0135
 3602TIP3   OH232296   1.324   6.073   4.575  0.6568  0.4089  0.2704
 3602TIP3    H132297   1.396   6.015   4.600  0.8891  0.2017 -0.8381
 3602TIP3    H232298   1.260   6.016   4.533  0.8031  0.9057 -0.6577
 3603TIP3   OH232299   4.092   4.717  16.883 -0.6921  0.4354 -1.0201
 3603TIP3    H132300   4.073   4.727  16.977  0.3818 -1.6442 -0.5166
 3603TIP3    H232301   4.032   4.777  16.840 -1.2485  1.4238  0.9952
 3604TIP3   OH232302   4.409   0.431   5.449 -0.3599 -0.0777 -0.1836
 3604TIP3    H132303   4.453   0.366   5.394 -0.8101 -0.6702  0.1486
 3604TIP3    H232304   4.479   0.466   5.504  0.0141  0.2151 -0.8270
 3605TIP3   OH232305   2.128   4.753  12.889  0.0697 -0.0643 -0.9308
 3605TIP3    H132306   2.170   4.814  12.828  1.4680 -1.8309 -1.8406
 3605TIP3    H232307   2.180   4.673  12.882 -1.9656 -1.5352 -0.1509
 3606TIP3   OH232308   4.451   3.377  11.891  0.0883 -0.5691 -0.3156
 3606TIP3    H132309   4.370   3.352  11.937  0.2405 -1.8927 -0.7190
 3606TIP3    H232310   4.510   3.406  11.961 -0.8632  0.8237 -0.0571
 3607TIP3   OH232311   3.498   5.186  15.724 -0.1906 -0.4210 -0.0275
 3607TIP3    H132312   3.418   5.138  15.748 -0.6271  0.3434  0.0750
 3607TIP3    H232313   3.546   5.126  15.667  0.4895 -1.9879  2.0574
 3608TIP3   OH232314   0.247   4.357  14.431  0.9248  0.1778 -0.9191
 3608TIP3    H132315   0.166   4.382  14.386  0.1215  0.6881  0.7295
 3608TIP3    H232316   0.218   4.327  14.517  2.3954 -0.9242 -0.7776
 3609TIP3   OH232317   5.497   4.037  16.358  0.1261  0.3097  0.1991
 3609TIP3    H132318   5.520   4.113  16.411  0.6073  0.4446 -0.1998
 3609TIP3    H232319   5.439   3.985  16.414  1.9268 -0.3930  1.4892
 3610TIP3   OH232320   6.473   6.667  16.349  0.3397  0.2182 -0.2135
 3610TIP3    H132321   6.522   6.590  16.379 -0.4659 -1.2940 -2.4819
 3610TIP3    H232322   6.477   6.728  16.422  0.3132 -2.2894  2.0381
 3611TIP3   OH232323   4.833   0.694   4.326 -0.3036  0.2667 -0.5488
 3611TIP3    H132324   4.843   0.773   4.380  0.5006 -0.6878  0.7417
 3611TIP3    H232325   4.905   0.698   4.263  0.9188 -0.3807  0.7648
 3612TIP3   OH232326   2.474   3.578  11.176 -0.3960 -0.5842  0.3397
 3612TIP3    H132327   2.533   3.653  11.168  1.0658 -1.8673 -2.0824
 3612TIP3    H232328   2.392   3.607  11.138 -0.3218  0.2285  0.7846
 3613TIP3   OH232329   5.718   5.070   3.497 -0.0111  0.0234 -0.1214
 3613TIP3    H132330   5.729   5.160   3.466 -0.2837  1.1131  2.6353
 3613TIP3    H232331   5.756   5.070   3.585 -3.0240 -1.5836  1.3477
 3614TIP3   OH232332   3.553   1.920   0.062 -0.0884  0.5647 -0.1874
 3614TIP3    H132333   3.588   1.891  -0.022  0.0170  1.4918 -0.4701
 3614TIP3    H232334   3.617   1.983   0.095  0.1865 -0.2546  0.8920
 3615TIP3   OH232335   1.772   1.894   8.464  0.2126  0.4841  0.3931
 3615TIP3    H132336   1.753   1.981   8.498  1.4859  1.1281 -0.4403
 3615TIP3    H232337   1.763   1.902   8.369  1.4678  0.0406  0.2126
 3616TIP3   OH232338   6.153   4.392  11.097  0.0989 -0.0718  1.0410
 3616TIP3    H132339   6.185   4.464  11.042  0.7754 -0.5254  0.8311
 3616TIP3    H232340   6.061   4.415  11.115 -0.0748  0.1944 -0.0973
 3617TIP3   OH232341   6.865   6.286   1.473 -0.5644  0.2733 -0.0940
 3617TIP3    H132342   6.833   6.250   1.390 -0.1565 -1.7085  0.5626
 3617TIP3    H232343   6.815   6.239   1.540 -0.4736  1.4350  0.8105
 3618TIP3   OH232344   5.762   5.136   5.867  0.1257  0.3314 -0.7675
 3618TIP3    H132345   5.744   5.052   5.911 -0.9335  0.8053 -0.2645
 3618TIP3    H232346   5.848   5.163   5.901 -0.1675  0.1381  0.1650
 3619TIP3   OH232347   5.985   5.483  17.075  0.3691  0.0054  0.2713
 3619TIP3    H132348   5.982   5.579  17.074  0.0711  0.0556  2.1497
 3619TIP3    H232349   5.965   5.457  16.986 -1.1387  1.6704  0.0787
 3620TIP3   OH232350   4.969   3.681   2.279 -0.5966 -0.6729 -0.0809
 3620TIP3    H132351   4.921   3.598   2.286  0.0379 -1.2037 -1.7238
 3620TIP3    H232352   4.942   3.730   2.357 -2.9268 -1.3889 -0.3588
 3621TIP3   OH232353   5.914   5.873  10.472 -0.0090  0.0223 -0.6637
 3621TIP3    H132354   5.839   5.931  10.459  0.2657  0.3362 -0.8444
 3621TIP3    H232355   5.910   5.812  10.399  0.9124  1.1167 -1.6702
 3622TIP3   OH232356   1.303   5.071   5.146  0.8920 -0.1393  0.6806
 3622TIP3    H132357   1.311   4.991   5.094 -0.3638 -1.1552  1.9589
 3622TIP3    H232358   1.392   5.106   5.151  1.5561 -1.7216  0.4984
 3623TIP3   OH232359   2.536   4.831   5.657  0.4761  0.0006 -0.2497
 3623TIP3    H132360   2.498   4.757   5.704  0.6737  0.1229  0.1143
 3623TIP3    H232361   2.512   4.907   5.710 -0.6337  0.3198 -1.1855
 3624TIP3   OH232362   0.575   2.239  13.940 -0.0626  0.4138  0.0733
 3624TIP3    H132363   0.492   2.286  13.956  0.1859  0.3232  1.9112
 3624TIP3    H232364   0.622   2.247  14.023  1.9639  0.7943 -1.0652
 3625TIP3   OH232365   2.891   1.783  11.275 -0.0459 -0.3889 -0.3989
 3625TIP3    H132366   2.795   1.775  11.274 -0.1393 -0.5616  2.3004
 3625TIP3    H232367   2.922   1.694  11.291  0.4925 -0.1202  0.0583
 3626TIP3   OH232368   6.402   0.273   1.200 -0.8966  0.4350 -0.2445
 3626TIP3    H132369   6.402   0.365   1.226 -0.0806  0.4631 -0.3195
 3626TIP3    H232370   6.375   0.226   1.279  2.1221  0.4677  0.9634
 3627TIP3   OH232371   3.855   6.625   6.282  0.7165 -0.0710  0.5646
 3627TIP3    H132372   3.853   6.543   6.232  0.9816  1.5668 -2.3035
 3627TIP3    H232373   3.781   6.618   6.342 -0.7524 -1.4266 -1.3003
 3628TIP3   OH232374   5.270   1.905  15.172  0.0380 -0.3471  0.1459
 3628TIP3    H132375   5.266   2.000  15.170 -0.6989 -0.3774  0.0702
 3628TIP3    H232376   5.272   1.882  15.265 -0.7410 -0.2934  0.1780
 3629TIP3   OH232377   6.567   1.520  13.851 -0.7903 -0.3010 -1.1297
 3629TIP3    H132378   6.552   1.595  13.908 -0.1904 -1.6609  0.9040
 3629TIP3    H232379   6.500   1.528  13.783 -1.2832  1.5784 -0.4861
 3630TIP3   OH232380   6.048   5.614   6.615  0.1558  0.2281 -0.5554
 3630TIP3    H132381   6.122   5.661   6.652 -1.3317  1.2609  1.3263
 3630TIP3    H232382   6.026   5.663   6.535  0.7612  0.6481 -0.4676
 3631TIP3   OH232383   4.432   1.757  15.403 -0.3447 -0.0780 -0.7314
 3631TIP3    H132384   4.413   1.663  15.402 -2.3857  0.2665  0.4901
 3631TIP3    H232385   4.500   1.768  15.336  1.5907 -2.7098  0.6007
 3632TIP3   OH232386   2.436   3.829   1.112 -0.1545  0.4736 -0.2181
 3632TIP3    H132387   2.405   3.857   1.027 -0.1668  1.8303  0.2105
 3632TIP3    H232388   2.486   3.903   1.146  1.0208 -0.5375  0.3840
 3633TIP3   OH232389   1.479   2.991   0.438 -0.2186  0.3561  0.2239
 3633TIP3    H132390   1.512   2.970   0.525  0.1612 -0.1941 -0.0476
 3633TIP3    H232391   1.518   3.076   0.417 -2.1838  1.6578  1.5486
 3634TIP3   OH232392   2.364   4.530  16.428  0.5061 -0.2834  0.4707
 3634TIP3    H132393   2.296   4.472  16.462  1.5874 -1.0147  1.4279
 3634TIP3    H232394   2.384   4.495  16.341 -0.9333  0.4752 -0.2166
 3635TIP3   OH232395   0.725   1.392   4.451  0.3055  0.4021 -0.6643
 3635TIP3    H132396   0.723   1.446   4.530  0.5426 -0.1590 -0.2642
 3635TIP3    H232397   0.722   1.454   4.379  0.8603  0.9621 -0.2177
 3636TIP3   OH232398   3.184   0.506  13.041 -0.0031 -0.4029 -0.4410
 3636TIP3    H132399   3.123   0.580  13.046 -0.7615 -0.9845 -0.9160
 3636TIP3    H232400   3.261   0.535  13.091 -0.7974  0.2125  0.4531
 3637TIP3   OH232401   0.870   3.731   3.075  0.1766 -0.0243 -0.0039
 3637TIP3    H132402   0.903   3.750   2.988 -0.6401  1.2214 -0.0648
 3637TIP3    H232403   0.775   3.720   3.063  0.0976 -0.1415  0.6786
 3638TIP3   OH232404   5.620   0.101   3.697 -0.4798  0.0733 -0.5330
 3638TIP3    H132405   5.702   0.114   3.745 -0.1451 -0.2016 -1.0108
 3638TIP3    H232406   5.584   0.189   3.685  0.4503  0.3447 -1.5087
 3639TIP3   OH232407   2.233   0.545   1.967 -0.2701  0.1775 -0.1109
 3639TIP3    H132408   2.233   0.454   1.996 -1.0578 -0.3171 -1.5739
 3639TIP3    H232409   2.187   0.544   1.883  1.0093  1.6949 -0.8797
 3640TIP3   OH232410   3.846   2.181   6.600 -0.0147 -0.0278 -0.1950
 3640TIP3    H132411   3.885   2.169   6.514  0.1728  0.7508 -0.2311
 3640TIP3    H232412   3.833   2.276   6.607  0.7741  0.0160  0.9783
 3641TIP3   OH232413   3.915   2.777   5.337  0.1419  0.6173 -0.3256
 3641TIP3    H132414   3.900   2.870   5.352  1.1278  0.7944 -0.3765
 3641TIP3    H232415   3.830   2.736   5.356  0.4407  1.1572  2.7454
 3642TIP3   OH232416   4.733   3.925  10.965  0.3589 -0.0003 -0.2341
 3642TIP3    H132417   4.819   3.886  10.981 -0.4474 -1.2803  1.1970
 3642TIP3    H232418   4.681   3.853  10.929 -1.3835 -0.6693  3.1807
 3643TIP3   OH232419   1.023   6.405   6.028  0.1777  0.0040  0.5302
 3643TIP3    H132420   1.014   6.310   6.030 -2.3563  0.1818  1.3886
 3643TIP3    H232421   1.071   6.423   5.947 -2.8893 -1.8296 -1.9080
 3644TIP3   OH232422   4.703   0.806  16.797 -0.1889 -0.4223 -0.0531
 3644TIP3    H132423   4.632   0.769  16.849  0.4601 -0.2880  0.9413
 3644TIP3    H232424   4.676   0.792  16.706 -0.8581 -1.5952  0.3102
 3645TIP3   OH232425   4.467   1.038   2.006  0.2799  0.1065  0.4052
 3645TIP3    H132426   4.474   1.124   2.048  0.0924  0.0559  0.5430
 3645TIP3    H232427   4.488   1.055   1.914 -0.5760  0.4581  0.2590
 3646TIP3   OH232428   3.844   5.432   0.410  0.2231 -0.0082  0.1023
 3646TIP3    H132429   3.759   5.449   0.368 -0.1221 -1.0042  0.3730
 3646TIP3    H232430   3.826   5.446   0.503  0.4336  0.0749  0.1295
 3647TIP3   OH232431   4.802   3.723   3.774  0.1224  0.2175  0.6797
 3647TIP3    H132432   4.774   3.661   3.706  0.9247 -0.9632  1.3927
 3647TIP3    H232433   4.725   3.778   3.789  0.0412  0.7782 -1.4326
 3648TIP3   OH232434   0.088   2.382  16.590 -0.1739 -0.0092 -0.2411
 3648TIP3    H132435   0.082   2.462  16.538  2.0695 -0.5565 -1.5036
 3648TIP3    H232436   0.040   2.401  16.670 -1.7017  1.7461 -1.4947
 3649TIP3   OH232437   3.672   2.702   0.590  0.1448  0.1913 -0.0497
 3649TIP3    H132438   3.614   2.776   0.573 -1.0227 -0.6743  0.0030
 3649TIP3    H232439   3.650   2.638   0.522  2.2040  0.4592 -1.0312
 3650TIP3   OH232440   6.271   3.454  11.955 -0.1063 -0.5262 -0.6208
 3650TIP3    H132441   6.303   3.441  11.866 -1.8699  0.3289 -1.4459
 3650TIP3    H232442   6.313   3.385  12.007  3.2769  0.7211 -1.4337
 3651TIP3   OH232443   1.527   5.411   1.778  0.5084  0.0004  0.2685
 3651TIP3    H132444   1.505   5.490   1.728  3.1830  1.3829  1.0580
 3651TIP3    H232445   1.452   5.398   1.836 -0.5966  1.1529 -0.8301
 3652TIP3   OH232446   0.590   0.424   0.890  0.3138  0.3139 -0.2062
 3652TIP3    H132447   0.531   0.499   0.880 -0.9499 -0.4506  1.0902
 3652TIP3    H232448   0.675   0.462   0.911 -0.2260  1.4047  0.0502
 3653TIP3   OH232449   4.319   1.859   0.973  0.0203  0.3073  0.7562
 3653TIP3    H132450   4.298   1.889   0.884  2.6257  0.5947  0.1696
 3653TIP3    H232451   4.312   1.763   0.968  1.6200  0.2147 -0.2178
 3654TIP3   OH232452   5.913   5.888   5.199  0.3217 -0.4115 -0.3674
 3654TIP3    H132453   5.835   5.846   5.233  1.0474 -0.7726  0.9150
 3654TIP3    H232454   5.901   5.981   5.218 -1.1314  0.0255 -2.9096
 3655TIP3   OH232455   3.898   2.552   1.106 -0.1293  0.8994  0.3152
 3655TIP3    H132456   3.992   2.565   1.113  0.1397 -1.5427  4.0899
 3655TIP3    H232457   3.889   2.470   1.058 -0.1102 -0.2358  2.1795
 3656TIP3   OH232458   5.930   4.200  13.273 -0.2714  0.0427  0.2046
 3656TIP3    H132459   5.891   4.283  13.244 -0.5041  0.3296  1.2936
 3656TIP3    H232460   5.920   4.201  13.368 -1.2490 -1.7276  0.1610
 3657TIP3   OH232461   1.833   2.937   4.465 -0.4387  0.3611  0.1903
 3657TIP3    H132462   1.894   3.011   4.468 -1.6318  1.4751 -1.1364
 3657TIP3    H232463   1.839   2.897   4.551  1.4114  1.0320  0.4182
 3658TIP3   OH232464   3.011   6.303  11.143 -0.0541  0.5513 -0.3137
 3658TIP3    H132465   3.022   6.249  11.221 -1.7145  0.3073 -0.2215
 3658TIP3    H232466   3.015   6.242  11.070  1.6480  0.7978 -0.4732
 3659TIP3   OH232467   6.414   2.776  16.552  0.0915  0.8118  0.1028
 3659TIP3    H132468   6.437   2.868  16.538  1.0049  0.7927  1.2959
 3659TIP3    H232469   6.490   2.728  16.519 -0.3156  0.4804 -0.3650
 3660TIP3   OH232470   1.143   5.279  15.579 -0.2351  0.4266 -0.2885
 3660TIP3    H132471   1.230   5.253  15.548 -0.2933  0.0404 -0.1328
 3660TIP3    H232472   1.082   5.237  15.518 -0.2822  2.4532 -1.7262
 3661TIP3   OH232473   5.992   4.600  11.969 -0.2381  0.3741 -0.2844
 3661TIP3    H132474   6.053   4.673  11.980 -1.1333  0.9845  0.9203
 3661TIP3    H232475   5.913   4.641  11.933 -1.2475  0.2899  1.7076
 3662TIP3   OH232476   5.316   1.194   3.008 -0.1675  0.0634 -0.1677
 3662TIP3    H132477   5.316   1.139   3.086  0.9176 -0.9387 -0.8379
 3662TIP3    H232478   5.325   1.132   2.935  1.1414  1.1246 -0.9484
 3663TIP3   OH232479   5.015   3.529  15.141 -0.4396  0.0343 -0.2775
 3663TIP3    H132480   4.966   3.603  15.175 -0.0300 -0.3832  1.3411
 3663TIP3    H232481   4.949   3.461  15.127 -0.4357 -0.3491  1.3750
 3664TIP3   OH232482   3.131   5.820   1.231  0.0182 -0.1195 -0.4461
 3664TIP3    H132483   3.163   5.908   1.247 -0.1061 -0.1254 -0.1551
 3664TIP3    H232484   3.075   5.828   1.154 -0.1308  0.0897 -0.3186
 3665TIP3   OH232485   2.743   0.208  12.405 -0.5267  0.1965  0.9379
 3665TIP3    H132486   2.726   0.122  12.365 -1.1958  0.6263  0.2696
 3665TIP3    H232487   2.825   0.237  12.364  0.1122 -0.4378  1.7245
 3666TIP3   OH232488   1.989   1.241   0.131  0.5831 -0.1187  0.1089
 3666TIP3    H132489   1.975   1.291   0.212  4.2534 -1.1123  1.5774
 3666TIP3    H232490   2.002   1.307   0.063 -0.9669  0.7491  0.6051
 3667TIP3   OH232491   6.078   1.409  13.478 -0.1497  0.2280  0.4943
 3667TIP3    H132492   6.048   1.500  13.476  1.0041  0.6558  1.3001
 3667TIP3    H232493   5.998   1.358  13.485 -0.9008  1.0907 -1.2749
 3668TIP3   OH232494   3.756   0.336   0.540  0.0795 -0.0281 -0.1552
 3668TIP3    H132495   3.716   0.323   0.626 -1.4436 -0.2879 -0.8512
 3668TIP3    H232496   3.845   0.365   0.558 -0.7011  1.5194  1.5197
 3669TIP3   OH232497   4.590   4.053   4.049 -0.2110 -0.6339  0.1877
 3669TIP3    H132498   4.685   4.051   4.054 -0.1287 -0.3444 -0.9469
 3669TIP3    H232499   4.567   3.978   3.994 -0.7176 -1.2602  1.2193
 3670TIP3   OH232500   0.208   5.042  11.401  0.6750  0.7030 -0.2145
 3670TIP3    H132501   0.257   5.079  11.328  2.1263  0.9653  0.8536
 3670TIP3    H232502   0.196   4.950  11.378  2.5815  0.3814 -0.0574
 3671TIP3   OH232503   3.259   3.317  11.692 -0.2823  0.2140  0.3164
 3671TIP3    H132504   3.256   3.396  11.745 -0.1150  0.5271 -0.1352
 3671TIP3    H232505   3.225   3.344  11.607  1.1221  0.1713 -0.2899
 3672TIP3   OH232506   6.505   4.754  16.174  0.1927  0.4156  0.8368
 3672TIP3    H132507   6.421   4.780  16.210 -0.9169 -0.4190 -0.9983
 3672TIP3    H232508   6.563   4.827  16.193 -1.0143  1.1424  1.8676
 3673TIP3   OH232509   2.597   4.249  10.648  0.4870 -0.4078  0.5455
 3673TIP3    H132510   2.661   4.266  10.717 -0.8132  2.3497  1.2509
 3673TIP3    H232511   2.516   4.228  10.696  0.2094 -1.1824 -0.2444
 3674TIP3   OH232512   2.044   2.387  12.884  0.4854  0.2471  0.2269
 3674TIP3    H132513   2.116   2.355  12.829  0.6723  0.3190  0.4298
 3674TIP3    H232514   2.065   2.356  12.972  1.6465  2.4577  0.7948
 3675TIP3   OH232515   2.948   3.869  12.770 -0.3596  0.3277 -0.4916
 3675TIP3    H132516   3.022   3.927  12.749  0.5452 -0.4641  0.4342
 3675TIP3    H232517   2.972   3.785  12.732 -0.7675  0.0548 -0.1550
 3676TIP3   OH232518   2.312   2.612   0.087 -0.1715  0.4579  0.4686
 3676TIP3    H132519   2.243   2.658   0.039 -0.5891 -0.4849  0.1260
 3676TIP3    H232520   2.367   2.681   0.123 -0.2723  1.2171 -0.7574
 3677TIP3   OH232521   2.097   0.765   4.374  0.1450  0.0551  0.4220
 3677TIP3    H132522   2.016   0.803   4.409 -0.0379 -0.4672  0.5800
 3677TIP3    H232523   2.072   0.676   4.347  0.0856  0.7079 -1.8309
 3678TIP3   OH232524   4.691   2.177  10.826  0.0734  0.0595  0.1955
 3678TIP3    H132525   4.723   2.259  10.791 -0.7092 -0.3891 -1.6928
 3678TIP3    H232526   4.640   2.202  10.903 -0.5333  1.4164 -0.6085
 3679TIP3   OH232527   1.919   2.395  14.061  0.2291  0.1511  0.6808
 3679TIP3    H132528   1.854   2.441  14.008 -0.2561 -1.2182  0.0686
 3679TIP3    H232529   1.869   2.355  14.132  0.1218 -2.2243 -0.6611
 3680TIP3   OH232530   3.190   2.816  15.838 -0.0201  0.2806  0.5214
 3680TIP3    H132531   3.133   2.888  15.812 -0.3827 -0.1091  0.2118
 3680TIP3    H232532   3.225   2.842  15.924 -0.9725  0.3515  0.8978
 3681TIP3   OH232533   4.912   2.459  13.848  0.1693  0.4294  1.3513
 3681TIP3    H132534   4.844   2.403  13.811  2.1655 -0.0243 -2.0942
 3681TIP3    H232535   4.966   2.399  13.900  0.1719 -0.0901  0.7663
 3682TIP3   OH232536   1.314   4.545  14.866 -0.5469 -0.0689  0.2753
 3682TIP3    H132537   1.394   4.517  14.910  0.5838  1.0003 -1.0086
 3682TIP3    H232538   1.257   4.468  14.867  0.7148 -1.0184  0.7343
 3683TIP3   OH232539   4.155   1.739   2.183  0.1472  0.2391 -0.0023
 3683TIP3    H132540   4.063   1.723   2.164  0.1392  1.9392 -1.7509
 3683TIP3    H232541   4.199   1.736   2.097  1.3734  1.3135  0.5372
 3684TIP3   OH232542   2.517   0.969  13.495  0.0169  0.4085  0.0904
 3684TIP3    H132543   2.544   1.013  13.414 -0.4678 -0.0306 -0.3198
 3684TIP3    H232544   2.505   0.877  13.469  0.9251  0.0422  0.9087
 3685TIP3   OH232545   2.474   5.219  15.395  0.1513  0.5275  0.3286
 3685TIP3    H132546   2.440   5.283  15.332 -1.8511  0.3552  1.1542
 3685TIP3    H232547   2.425   5.139  15.376  0.3822  0.1379  1.3188
 3686TIP3   OH232548   4.904   4.249  11.732  0.0017  0.0717  0.6410
 3686TIP3    H132549   4.826   4.208  11.769 -0.7703  0.4638 -0.5040
 3686TIP3    H232550   4.958   4.272  11.808 -1.1120  0.0280  1.4596
 3687TIP3   OH232551   3.246   0.900  16.038 -0.3686  0.0267  0.2904
 3687TIP3    H132552   3.196   0.982  16.038 -0.5082 -0.0550  0.7036
 3687TIP3    H232553   3.220   0.856  15.957  0.5863  0.9121 -0.5311
 3688TIP3   OH232554   3.658   4.474  12.252  0.0184 -0.2113  0.1048
 3688TIP3    H132555   3.684   4.549  12.198 -0.8417 -0.8383 -1.2490
 3688TIP3    H232556   3.739   4.443  12.291  1.0546 -0.8640 -2.3539
 3689TIP3   OH232557   0.159   6.144  11.655  0.6641  0.2790 -0.0162
 3689TIP3    H132558   0.234   6.085  11.654  0.9579  0.5769  1.4362
 3689TIP3    H232559   0.153   6.177  11.566  0.8853 -1.4344 -0.7030
 3690TIP3   OH232560   5.428   4.770  10.992 -0.6211  0.5678 -0.2637
 3690TIP3    H132561   5.461   4.747  10.905  0.2008 -0.5845  0.3283
 3690TIP3    H232562   5.505   4.768  11.049 -1.4802 -1.0400  0.9383
 3691TIP3   OH232563   0.751   6.268   5.126 -0.0534  0.0359  0.1077
 3691TIP3    H132564   0.782   6.196   5.180  0.6808  0.8164  0.7528
 3691TIP3    H232565   0.666   6.239   5.093 -0.2575 -0.6831  1.2382
 3692TIP3   OH232566   6.588   2.112  11.288 -0.6344 -0.2481 -0.2717
 3692TIP3    H132567   6.500   2.101  11.252 -1.4416  2.8807  0.4711
 3692TIP3    H232568   6.576   2.105  11.383  0.6043 -3.1462 -0.2089
 3693TIP3   OH232569   5.022   0.002  11.597  0.1596  0.2407  0.2318
 3693TIP3    H132570   4.970  -0.021  11.674  0.7595  0.1452  0.6131
 3693TIP3    H232571   5.059  -0.081  11.567  1.8922  0.5833  1.2895
 3694TIP3   OH232572   2.179   0.187  11.719 -0.1004 -0.3552  0.0632
 3694TIP3    H132573   2.227   0.117  11.675 -1.4429 -0.1697 -1.7796
 3694TIP3    H232574   2.089   0.179  11.688 -0.9368  0.3866  2.0894
 3695TIP3   OH232575   3.701   5.453   2.020  0.0712  0.4979  0.3891
 3695TIP3    H132576   3.760   5.402   2.075 -0.7436  0.7088  1.4996
 3695TIP3    H232577   3.657   5.388   1.965 -0.1942  0.1114  1.0503
 3696TIP3   OH232578   0.901   1.549  13.967 -0.3085 -0.1961 -0.0484
 3696TIP3    H132579   0.928   1.628  14.014 -2.8431  0.6206  0.1973
 3696TIP3    H232580   0.959   1.545  13.891  1.3676  0.5907  1.1240
 3697TIP3   OH232581   5.605   5.713  15.219 -0.1723  0.5356  0.3923
 3697TIP3    H132582   5.539   5.779  15.242 -1.1952 -0.5460  0.6674
 3697TIP3    H232583   5.660   5.706  15.296 -0.7338  0.3010  0.7817
 3698TIP3   OH232584   0.519   0.338  16.595  0.1083  0.2521 -0.0287
 3698TIP3    H132585   0.426   0.312  16.595  0.1110  0.1327  1.7662
 3698TIP3    H232586   0.531   0.381  16.511 -1.8242  1.1176  0.0723
 3699TIP3   OH232587   6.317   5.255  13.019  0.0163  0.1391 -0.8922
 3699TIP3    H132588   6.297   5.280  13.110 -0.4402 -1.4900 -0.5077
 3699TIP3    H232589   6.231   5.238  12.980 -0.0099  3.1838 -2.4262
 3700TIP3   OH232590   1.945   6.442   1.508 -0.0894 -0.3821 -0.3276
 3700TIP3    H132591   2.017   6.439   1.572  1.1205 -0.2784 -1.6457
 3700TIP3    H232592   1.926   6.535   1.498 -3.1007 -0.4401  2.8344
 3701TIP3   OH232593   3.865   4.734  12.999 -0.1558  0.3672  0.1398
 3701TIP3    H132594   3.880   4.760  12.908  1.0867  0.8229  0.4609
 3701TIP3    H232595   3.950   4.743  13.041 -0.0571 -2.5298  0.7082
 3702TIP3   OH232596   0.558   3.480  15.548 -0.4464 -0.4493 -0.1823
 3702TIP3    H132597   0.526   3.399  15.509 -0.6186 -0.3763 -0.1949
 3702TIP3    H232598   0.646   3.492  15.511 -1.0330  0.2009 -1.4132
 3703TIP3   OH232599   1.407   6.041  11.676 -0.4599 -0.2852  0.5192
 3703TIP3    H132600   1.354   5.962  11.680  0.6249 -1.2340 -2.0338
 3703TIP3    H232601   1.491   6.016  11.714 -0.6380  0.1374  1.2026
 3704TIP3   OH232602   3.609   6.853  12.909 -0.3714  0.3177 -0.5460
 3704TIP3    H132603   3.661   6.910  12.966  0.4073 -1.2392  0.3773
 3704TIP3    H232604   3.612   6.896  12.823  1.1064  1.1132 -0.1412
 3705TIP3   OH232605   2.432   5.764  11.351 -0.5931  0.4293  0.3959
 3705TIP3    H132606   2.421   5.822  11.275  0.5853  0.2876  0.0871
 3705TIP3    H232607   2.352   5.711  11.353 -0.7208  0.5538 -0.6454
 3706TIP3   OH232608   1.319   2.090   1.092  0.6404  0.3119 -0.0576
 3706TIP3    H132609   1.345   2.111   1.002 -1.0374  1.2387 -0.3664
 3706TIP3    H232610   1.266   2.010   1.084  1.7796 -0.5056  0.3299
 3707TIP3   OH232611   2.313   3.726  12.649 -0.2860 -0.1917 -0.2270
 3707TIP3    H132612   2.232   3.676  12.661  0.3817 -0.8701  1.8446
 3707TIP3    H232613   2.382   3.659  12.646  0.3844  0.4757 -0.0331
 3708TIP3   OH232614   2.051   3.702   4.285 -0.3063 -0.1070 -0.0586
 3708TIP3    H132615   1.970   3.746   4.260  0.3365  0.0797 -1.9995
 3708TIP3    H232616   2.084   3.754   4.359 -1.2148  0.6888 -0.1856
 3709TIP3   OH232617   5.138   2.340  16.545 -0.1279  0.0176 -0.0270
 3709TIP3    H132618   5.129   2.250  16.576  0.7241 -0.1103 -0.1159
 3709TIP3    H232619   5.233   2.354  16.540 -0.2132  0.0030 -2.6661
 3710TIP3   OH232620   1.137   5.235  11.276 -0.5390  0.0035  0.3297
 3710TIP3    H132621   1.099   5.266  11.358 -0.0463  0.6670  0.3121
 3710TIP3    H232622   1.159   5.315  11.228  0.0796 -0.3795 -0.0301
 3711TIP3   OH232623   2.310   3.851  16.545  0.1763 -0.2281  0.8218
 3711TIP3    H132624   2.241   3.800  16.503 -1.2504  2.3800 -0.2474
 3711TIP3    H232625   2.374   3.867  16.475  1.4151 -1.7828  1.5525
 3712TIP3   OH232626   6.014   1.776   1.672 -0.3974  0.2508 -0.3774
 3712TIP3    H132627   6.105   1.747   1.668  0.0720  1.7157 -1.2489
 3712TIP3    H232628   5.986   1.758   1.761  1.0105  0.4985  0.1305
 3713TIP3   OH232629   1.554   3.667   2.265  0.6121 -0.2084 -0.3406
 3713TIP3    H132630   1.522   3.705   2.348 -0.4718 -0.8804 -0.4243
 3713TIP3    H232631   1.625   3.725   2.238 -0.7066  1.5585 -0.2553
 3714TIP3   OH232632   5.030   3.933  16.712 -0.7877  0.0119 -0.2317
 3714TIP3    H132633   5.026   3.908  16.620 -0.0802 -0.6602 -0.0888
 3714TIP3    H232634   5.069   3.858  16.756 -0.4176  0.6228  0.5092
 3715TIP3   OH232635   6.551   6.222  12.133 -0.3259  0.1680 -0.1562
 3715TIP3    H132636   6.471   6.274  12.137 -0.4195 -0.0285  0.6391
 3715TIP3    H232637   6.603   6.263  12.064 -0.4681  1.2161  0.3514
 3716TIP3   OH232638   6.200   5.433  14.861 -0.3779 -0.8714  0.0574
 3716TIP3    H132639   6.270   5.369  14.874  1.0664  1.0513  2.5935
 3716TIP3    H232640   6.215   5.468  14.774  1.2788 -1.1484  0.2072
 3717TIP3   OH232641   4.577   6.251   4.839  0.1730 -0.4571  0.0555
 3717TIP3    H132642   4.542   6.304   4.767 -1.3978  0.7068  1.5906
 3717TIP3    H232643   4.656   6.299   4.867 -0.3128  0.1859  0.3572
 3718TIP3   OH232644   5.091   1.971   0.567 -0.0391 -0.1167  0.6088
 3718TIP3    H132645   5.023   2.032   0.538 -0.2383 -0.7517 -0.2704
 3718TIP3    H232646   5.052   1.884   0.558  0.6869 -0.4541  0.6389
 3719TIP3   OH232647   2.362   4.594  16.868  0.3646 -0.6268 -0.0450
 3719TIP3    H132648   2.329   4.683  16.873 -0.3784 -0.9226  0.6226
 3719TIP3    H232649   2.314   4.555  16.795  0.8801 -0.4160 -0.5059
 3720TIP3   OH232650   6.599   2.822  11.610 -0.0993 -0.1345  0.1298
 3720TIP3    H132651   6.647   2.773  11.544  2.2209  1.0147  0.8565
 3720TIP3    H232652   6.554   2.891  11.561  0.9764  0.2373 -0.3619
 3721TIP3   OH232653   4.511   3.966  16.728  0.9420  0.0425 -0.6401
 3721TIP3    H132654   4.514   4.061  16.730 -0.7524  0.1048  1.2143
 3721TIP3    H232655   4.597   3.938  16.762 -0.0407  1.0148  3.0521
 3722TIP3   OH232656   5.421   0.294  16.630 -0.5365  0.3382 -0.8637
 3722TIP3    H132657   5.449   0.384  16.611  2.1976 -0.5137 -1.3049
 3722TIP3    H232658   5.397   0.296  16.723 -0.9183  1.5949 -0.9625
 3723TIP3   OH232659   4.591   5.255   3.166  0.4272  0.1032  0.3806
 3723TIP3    H132660   4.514   5.309   3.148  0.8476  1.4477  2.2922
 3723TIP3    H232661   4.580   5.228   3.257  1.9533 -0.1285  0.5236
 3724TIP3   OH232662   2.585   5.829   5.379 -0.5855 -0.2652 -0.1850
 3724TIP3    H132663   2.543   5.774   5.444 -2.5507 -0.6580 -1.6998
 3724TIP3    H232664   2.515   5.885   5.345  0.7907  1.3039 -0.6073
 3725TIP3   OH232665   3.262   0.261  15.246 -0.5498 -0.2834 -0.2708
 3725TIP3    H132666   3.327   0.315  15.292  0.8511 -1.5398 -0.6922
 3725TIP3    H232667   3.273   0.286  15.154  1.7120 -2.7426 -0.7938
 3726TIP3   OH232668   3.613   6.582  16.672  0.0350  0.2746 -0.2293
 3726TIP3    H132669   3.695   6.570  16.720 -0.5846  0.9717  1.0431
 3726TIP3    H232670   3.574   6.495  16.670 -0.0609  0.2816  0.8009
 3727TIP3   OH232671   0.676   6.807  16.037 -0.3744  0.6305 -0.5012
 3727TIP3    H132672   0.682   6.742  16.107  2.8896  0.6738 -0.6039
 3727TIP3    H232673   0.642   6.886  16.080 -1.7233 -0.2963  0.2175
 3728TIP3   OH232674   2.673   5.167   4.041  0.0918 -0.1642 -0.6207
 3728TIP3    H132675   2.614   5.121   4.100 -1.2621  0.2899 -1.5650
 3728TIP3    H232676   2.759   5.127   4.056 -0.4236 -0.7877  0.8462
 3729TIP3   OH232677   4.132   4.545   2.826 -0.4196  0.4169  0.5031
 3729TIP3    H132678   4.109   4.513   2.913  0.5591 -3.4990 -0.4512
 3729TIP3    H232679   4.048   4.548   2.779 -1.0423  3.1549  1.6103
 3730TIP3   OH232680   0.567   1.130  13.994  0.1801  0.2859 -0.5438
 3730TIP3    H132681   0.489   1.178  14.021  1.9241  2.1785  1.5989
 3730TIP3    H232682   0.605   1.184  13.924  0.3761  0.2396 -0.4736
 3731TIP3   OH232683   6.427   3.633  13.024 -0.4160  0.5944  0.0437
 3731TIP3    H132684   6.437   3.540  13.044  1.6678  0.7583 -0.0623
 3731TIP3    H232685   6.484   3.648  12.948 -1.7768  1.6969 -0.8256
 3732TIP3   OH232686   5.879   0.890   5.774 -0.3096  0.5396  0.0820
 3732TIP3    H132687   5.940   0.963   5.786 -2.3370  2.3858 -0.1496
 3732TIP3    H232688   5.850   0.869   5.863  1.1077 -0.8112  0.2625
 3733TIP3   OH232689   3.588   2.690   0.965 -0.7083 -0.4448 -0.2088
 3733TIP3    H132690   3.531   2.764   0.946 -1.0457 -0.6284  0.0878
 3733TIP3    H232691   3.564   2.662   1.053  0.9305  0.4709  0.5648
 3734TIP3   OH232692   2.036   3.949   6.539 -0.2297 -0.3548 -0.0114
 3734TIP3    H132693   2.035   4.029   6.486  0.0849  0.2228  0.8286
 3734TIP3    H232694   2.036   3.981   6.629  1.6774 -1.2636  0.3440
 3735TIP3   OH232695   2.893   0.040  13.194  0.3676  0.1186 -0.0721
 3735TIP3    H132696   2.885   0.023  13.101 -0.0329 -0.1362  0.0087
 3735TIP3    H232697   2.966   0.101  13.201  0.7573 -0.2924 -0.5038
 3736TIP3   OH232698   2.265   5.037   4.285 -0.2074  0.2019 -0.1442
 3736TIP3    H132699   2.214   5.065   4.209 -0.9181  1.3907  0.7351
 3736TIP3    H232700   2.347   5.086   4.278 -0.0048 -0.1676 -0.4576
 3737TIP3   OH232701   3.564   0.278   2.803 -0.4897  0.2655  0.4136
 3737TIP3    H132702   3.527   0.360   2.833 -2.8037 -0.2048 -0.8754
 3737TIP3    H232703   3.533   0.269   2.713  0.9947 -1.2933 -0.0109
 3738TIP3   OH232704   3.961   3.674   3.529 -0.5886 -0.1637  0.4259
 3738TIP3    H132705   3.982   3.661   3.622  0.9841  0.0454  0.1174
 3738TIP3    H232706   3.885   3.732   3.530 -0.9816 -0.6674  1.5908
 3739TIP3   OH232707   1.720   6.371   5.237 -0.5352  0.3204  0.0481
 3739TIP3    H132708   1.651   6.412   5.289 -0.2106  2.0931 -0.8410
 3739TIP3    H232709   1.731   6.429   5.162  1.1013 -0.5574 -0.4352
 3740TIP3   OH232710   6.649   6.139   2.483  0.2594  0.0039  0.0306
 3740TIP3    H132711   6.721   6.158   2.423  2.1075  1.4336  2.5517
 3740TIP3    H232712   6.639   6.044   2.479  1.5487 -0.1085 -1.1436
 3741TIP3   OH232713   1.333   6.647   5.906 -0.0486 -0.0470 -0.1902
 3741TIP3    H132714   1.363   6.716   5.965 -0.8096 -2.2751  3.0854
 3741TIP3    H232715   1.246   6.675   5.879  0.1844  0.8989  0.0133
 3742TIP3   OH232716   0.481   6.221  12.288  0.1918  0.0937  0.3502
 3742TIP3    H132717   0.570   6.190  12.272  0.0316  0.0176 -0.4673
 3742TIP3    H232718   0.435   6.203  12.206 -0.5623  0.1791  0.7468
 3743TIP3   OH232719   5.332   4.766  14.529  0.3161 -0.1709 -0.2914
 3743TIP3    H132720   5.333   4.856  14.561 -2.0046  1.0563 -3.2449
 3743TIP3    H232721   5.424   4.748  14.507  0.9917  1.0252  1.3339
 3744TIP3   OH232722   3.695   5.025   3.704  0.6541  0.6687  0.1886
 3744TIP3    H132723   3.642   5.105   3.701  0.9152  0.8127 -1.0638
 3744TIP3    H232724   3.683   4.992   3.793 -2.0640  0.3546 -0.2173
 3745TIP3   OH232725   1.668   0.462   6.141 -0.0145 -0.3287  0.0788
 3745TIP3    H132726   1.615   0.409   6.082  1.4493 -0.8861 -0.8115
 3745TIP3    H232727   1.745   0.486   6.088  0.2052  1.1841  1.0225
 3746TIP3   OH232728   4.953   1.067   3.037 -0.2283  0.1604 -0.3315
 3746TIP3    H132729   4.875   1.120   3.056 -0.4984 -0.7054  1.0631
 3746TIP3    H232730   4.945   0.991   3.094  1.7218  0.1065 -0.0843
 3747TIP3   OH232731   0.926   3.721   0.594 -0.3517 -0.4175  0.1473
 3747TIP3    H132732   0.957   3.680   0.675 -2.2804  0.8624  1.6187
 3747TIP3    H232733   0.850   3.670   0.568  0.2012 -0.7665 -0.8636
 3748TIP3   OH232734   6.515   5.859   3.218 -0.0942  0.0764 -0.0922
 3748TIP3    H132735   6.549   5.805   3.147 -1.3717  0.6940 -1.2211
 3748TIP3    H232736   6.582   5.927   3.231  1.1848 -1.2992  0.8585
 3749TIP3   OH232737   6.585   3.491  12.296  0.3393 -0.2230 -0.4484
 3749TIP3    H132738   6.496   3.468  12.320  0.8223 -2.6468 -0.7857
 3749TIP3    H232739   6.577   3.530  12.208 -0.5333  1.2983  0.2630
 3750TIP3   OH232740   0.624   0.320  11.774 -0.6025  0.0440 -0.2340
 3750TIP3    H132741   0.662   0.233  11.765  0.2899  0.5055 -1.0007
 3750TIP3    H232742   0.569   0.314  11.852 -0.0129 -1.0138  0.1132
 3751TIP3   OH232743   2.570   0.207   4.637  0.4696 -0.0575  0.4866
 3751TIP3    H132744   2.505   0.248   4.694  1.1371  1.3034  0.2961
 3751TIP3    H232745   2.525   0.131   4.600 -0.7594  0.4290  0.9403
 3752TIP3   OH232746   3.706   0.208  11.194 -0.5281 -0.5203  0.2704
 3752TIP3    H132747   3.659   0.290  11.177  0.3784 -0.1240 -0.4449
 3752TIP3    H232748   3.681   0.152  11.121 -1.3883 -1.0111  0.9216
 3753TIP3   OH232749   1.909   6.422   6.098  0.6379  0.1093 -0.3700
 3753TIP3    H132750   1.925   6.386   6.186 -0.2387  0.3548 -0.1006
 3753TIP3    H232751   1.839   6.486   6.111  0.2436 -0.1222 -1.3162
 3754TIP3   OH232752   1.113   4.977  11.162 -0.0627  0.1260 -0.6262
 3754TIP3    H132753   1.133   4.988  11.069  1.5821 -0.1910 -0.3498
 3754TIP3    H232754   1.110   5.067  11.197  0.3187  0.2114 -0.8057
 3755TIP3   OH232755   0.323   4.144  10.748  0.4125 -0.3569 -0.1574
 3755TIP3    H132756   0.259   4.151  10.677 -0.5151 -1.8018  0.4848
 3755TIP3    H232757   0.391   4.086  10.713  1.0436  0.5955 -0.5736
 3756TIP3   OH232758   3.190   3.046   5.209 -0.2714  0.5234  0.0270
 3756TIP3    H132759   3.100   3.013   5.213 -0.8559  2.0019 -0.2870
 3756TIP3    H232760   3.181   3.137   5.182  1.3272  0.7332  0.1010
 3757TIP3   OH232761   5.813   6.819   2.688  0.4865 -0.1228  0.5524
 3757TIP3    H132762   5.817   6.753   2.758 -0.1561  1.1578  1.8419
 3757TIP3    H232763   5.756   6.781   2.622  2.0034 -1.8489  0.1358
 3758TIP3   OH232764   5.311   0.723  16.695  0.3621 -0.8350  0.3275
 3758TIP3    H132765   5.240   0.690  16.640  0.3383 -1.2853  0.6157
 3758TIP3    H232766   5.366   0.646  16.710  1.4852 -0.2613 -0.7429
 3759TIP3   OH232767   6.012   2.814   5.626 -0.6296 -0.0091  0.1917
 3759TIP3    H132768   6.069   2.737   5.625 -1.1657 -0.4141  0.1577
 3759TIP3    H232769   5.925   2.780   5.605 -0.9740  0.5267  0.7078
 3760TIP3   OH232770   3.414   2.778   1.815  0.0100 -0.8473 -0.4655
 3760TIP3    H132771   3.448   2.867   1.823  0.4751 -0.9956 -0.7434
 3760TIP3    H232772   3.441   2.750   1.727  1.7529 -2.0424  0.4003
 3761TIP3   OH232773   3.489   4.302   4.077  0.3068  0.3808 -0.2996
 3761TIP3    H132774   3.522   4.387   4.049  1.2315 -0.4994 -2.0349
 3761TIP3    H232775   3.493   4.305   4.173  2.2048  1.5878 -0.3662
 3762TIP3   OH232776   1.215   0.787   4.605  0.3631 -0.1185 -0.1696
 3762TIP3    H132777   1.138   0.773   4.551  0.0699  1.5208 -0.2189
 3762TIP3    H232778   1.215   0.714   4.667 -1.0441 -0.3146 -0.3801
 3763TIP3   OH232779   0.941   0.928  13.357  0.2506  0.3961  0.2496
 3763TIP3    H132780   0.883   0.940  13.433  1.4772  1.1870  1.0880
 3763TIP3    H232781   1.026   0.960  13.386  0.8495  0.3364 -1.3456
 3764TIP3   OH232782   4.125   6.462  14.847  0.2535  0.1076 -0.6602
 3764TIP3    H132783   4.079   6.378  14.847  0.2790  0.0925 -0.5173
 3764TIP3    H232784   4.193   6.452  14.913 -0.4569  0.6123  0.1842
 3765TIP3   OH232785   5.251   3.179  11.200  0.8571 -0.2955 -0.0412
 3765TIP3    H132786   5.209   3.263  11.220  1.1579 -0.1172 -0.1428
 3765TIP3    H232787   5.221   3.158  11.111  0.4455 -0.5066  0.1489
 3766TIP3   OH232788   0.356   2.090   0.508 -0.1485  0.3612  0.3736
 3766TIP3    H132789   0.437   2.044   0.531 -0.3233  0.0865  0.4456
 3766TIP3    H232790   0.325   2.046   0.430 -0.8605 -0.3315  1.0287
 3767TIP3   OH232791   2.772   6.687   6.112  0.2939  0.2375  0.1067
 3767TIP3    H132792   2.857   6.716   6.078 -0.6498  0.7536 -2.0158
 3767TIP3    H232793   2.718   6.766   6.112 -0.9305 -0.5609 -1.1449
 3768TIP3   OH232794   5.644   5.241  12.936  0.3872 -0.5064 -0.3263
 3768TIP3    H132795   5.550   5.231  12.922  0.3988  0.9460 -1.6279
 3768TIP3    H232796   5.651   5.281  13.022 -0.0570 -2.2940  0.6093
 3769TIP3   OH232797   1.943   3.640   5.976  0.0150  0.2389  0.2705
 3769TIP3    H132798   1.980   3.720   6.014  0.8948  0.7058 -1.4663
 3769TIP3    H232799   1.989   3.569   6.019  0.4015  0.7152  0.6530
 3770TIP3   OH232800   0.039   5.169  12.131  0.2572  0.8382  0.4074
 3770TIP3    H132801   0.043   5.138  12.221  0.4916 -0.3023  0.0262
 3770TIP3    H232802   0.081   5.099  12.080  0.0051  1.4004 -0.5934
 3771TIP3   OH232803   6.712   5.865   6.024  0.0987  0.2445 -0.6328
 3771TIP3    H132804   6.662   5.811   5.963  1.1273  0.9106 -2.1049
 3771TIP3    H232805   6.787   5.811   6.047  0.1849  0.3463 -0.6764
 3772TIP3   OH232806   2.652   2.282   4.535  0.0935  0.1665  0.1195
 3772TIP3    H132807   2.595   2.272   4.458 -0.0143  0.7569  0.1199
 3772TIP3    H232808   2.741   2.288   4.498  0.2898 -1.7632  0.1717
 3773TIP3   OH232809   2.520   0.755  13.049 -0.1898 -0.1298  0.4848
 3773TIP3    H132810   2.498   0.666  13.075  1.0751 -0.5582  0.1604
 3773TIP3    H232811   2.560   0.746  12.963 -0.8606  0.8626  0.0419
 3774TIP3   OH232812   2.215   2.768   4.012  0.5765 -0.1743 -0.0818
 3774TIP3    H132813   2.218   2.675   4.036  0.2371 -0.1406  0.0913
 3774TIP3    H232814   2.168   2.769   3.928  0.7419 -0.1760 -0.1754
 3775TIP3   OH232815   2.453   1.114   2.218  0.3168 -0.4480 -0.0972
 3775TIP3    H132816   2.390   1.160   2.274  1.3509 -0.0112  0.7401
 3775TIP3    H232817   2.411   1.111   2.132 -0.1709  1.2704  0.0534
 3776TIP3   OH232818   2.328   6.747   5.418 -0.2751 -0.1257  0.1744
 3776TIP3    H132819   2.289   6.673   5.466 -1.1690  1.3153  1.7556
 3776TIP3    H232820   2.283   6.746   5.333  1.2280 -2.6263 -0.6988
 3777TIP3   OH232821   1.333   2.125  12.657 -0.1798 -0.1253 -0.0030
 3777TIP3    H132822   1.252   2.171  12.633  0.2609  0.0571 -1.2118
 3777TIP3    H232823   1.306   2.035  12.672 -0.7364  0.1068  0.4222
 3778TIP3   OH232824   2.403   0.578  14.700 -0.2492  0.1869 -0.2704
 3778TIP3    H132825   2.340   0.508  14.689 -0.2185  0.0560  0.3655
 3778TIP3    H232826   2.417   0.612  14.611 -1.5328  0.5046 -0.3728
 3779TIP3   OH232827   0.195   2.741   4.858 -0.6329 -0.4145 -0.4517
 3779TIP3    H132828   0.106   2.752   4.825 -0.8870 -0.0782  0.3191
 3779TIP3    H232829   0.191   2.774   4.948  0.9802  2.6657 -1.3549
 3780TIP3   OH232830   3.734   3.704   3.780 -0.4300 -0.1862 -0.1688
 3780TIP3    H132831   3.657   3.755   3.806  0.6652  0.7057  1.5091
 3780TIP3    H232832   3.807   3.764   3.793  0.8945 -2.0734  1.6167
 3781TIP3   OH232833   3.365   4.285  11.582  0.2128  0.0263 -0.5838
 3781TIP3    H132834   3.429   4.217  11.565  0.5080  0.3539 -0.7943
 3781TIP3    H232835   3.337   4.270  11.672  2.6853  1.5861  0.5443
 3782TIP3   OH232836   1.391   4.142  14.374 -0.0856  0.1580 -0.1562
 3782TIP3    H132837   1.360   4.057  14.404 -1.9740  0.6547 -0.5987
 3782TIP3    H232838   1.378   4.201  14.448  0.7495  0.1912 -0.0207
 3783TIP3   OH232839   0.238   4.611   4.751  0.0601 -0.1917 -0.1667
 3783TIP3    H132840   0.310   4.674   4.744 -2.6090  2.9447 -1.7641
 3783TIP3    H232841   0.193   4.634   4.832 -0.7024 -0.3536 -0.5415
 3784TIP3   OH232842   3.083   2.848   4.893  0.1110  0.5177  0.0191
 3784TIP3    H132843   3.135   2.914   4.848 -0.0381  0.5771 -0.0668
 3784TIP3    H232844   3.021   2.897   4.947  0.1511  0.4477  0.1282
 3785TIP3   OH232845   2.045   2.370  11.745  0.2899  0.2415  0.3216
 3785TIP3    H132846   2.043   2.443  11.684  0.5160  0.0190  0.0463
 3785TIP3    H232847   2.119   2.390  11.803  0.6388  0.0081 -0.0365
 3786TIP3   OH232848   4.478   6.149   0.260  0.2643  0.0880 -0.2040
 3786TIP3    H132849   4.514   6.207   0.193 -0.6132 -1.7701 -2.4097
 3786TIP3    H232850   4.389   6.180   0.273  0.1220 -0.1400 -0.6271
 3787TIP3   OH232851   5.907   4.405   1.751  0.2008  0.4949 -0.6917
 3787TIP3    H132852   5.913   4.310   1.742  0.0309  0.3994  0.1408
 3787TIP3    H232853   5.993   4.437   1.725  1.0577 -0.0805  1.2489
 3788TIP3   OH232854   5.768   2.324   2.052  0.1920 -0.0542 -0.2751
 3788TIP3    H132855   5.741   2.329   1.960  0.4405  2.4120 -0.2883
 3788TIP3    H232856   5.843   2.382   2.058 -1.2617  1.7923  1.9221
 3789TIP3   OH232857   5.431   2.741  13.552  0.0308 -0.0875  0.4587
 3789TIP3    H132858   5.510   2.779  13.590 -0.6852  1.8103  0.1914
 3789TIP3    H232859   5.359   2.790  13.592 -1.0847 -2.1114  1.0923
 3790TIP3   OH232860   0.965   3.905  14.757 -0.4973  0.8837  0.7659
 3790TIP3    H132861   0.994   3.829  14.808 -1.9573 -0.0761  0.2057
 3790TIP3    H232862   0.909   3.954  14.818 -2.7652 -0.5989 -0.0237
 3791TIP3   OH232863   2.125   0.204  15.408 -0.2115 -0.1849 -0.0881
 3791TIP3    H132864   2.206   0.224  15.455  0.0082 -1.4178  0.0935
 3791TIP3    H232865   2.068   0.279  15.425  0.2096 -0.1639  1.3307
 3792TIP3   OH232866   6.570   5.575  17.071 -0.1915 -0.5917 -0.3385
 3792TIP3    H132867   6.624   5.547  16.998 -1.0445 -0.4198 -1.0528
 3792TIP3    H232868   6.556   5.669  17.056 -0.5242 -0.5946 -0.0598
 3793TIP3   OH232869   3.639   6.843  10.087 -0.0957  0.0709  0.2672
 3793TIP3    H132870   3.577   6.891  10.032 -0.9370 -0.3644  0.8072
 3793TIP3    H232871   3.602   6.848  10.175 -0.1380 -1.4352  0.3639
 3794TIP3   OH232872   4.432   1.564   3.927 -0.2015  0.4089  0.0112
 3794TIP3    H132873   4.396   1.512   3.999 -0.7751  1.9220  0.8609
 3794TIP3    H232874   4.356   1.609   3.890  0.2351  0.3715 -0.9465
 3795TIP3   OH232875   5.367   5.915  15.355  0.5693 -0.3444  0.1059
 3795TIP3    H132876   5.376   5.868  15.437  0.8482 -0.7185 -0.1407
 3795TIP3    H232877   5.285   5.882  15.317  0.0523  0.3633  0.5776
 3796TIP3   OH232878   2.456   6.275   3.997  0.2546 -0.1004  0.0321
 3796TIP3    H132879   2.445   6.211   4.067 -1.8818  0.6463  0.4499
 3796TIP3    H232880   2.439   6.226   3.917 -1.5335 -0.0654  0.3570
 3797TIP3   OH232881   1.771   2.429   4.171  0.4240 -0.1195  0.8189
 3797TIP3    H132882   1.687   2.475   4.175  1.6628  2.3673  0.1797
 3797TIP3    H232883   1.817   2.457   4.249  0.6863 -1.4900  1.1754
 3798TIP3   OH232884   2.689   2.194   2.648  0.0252 -0.1203  0.2715
 3798TIP3    H132885   2.701   2.227   2.559  1.4561 -2.3651 -0.4563
 3798TIP3    H232886   2.618   2.130   2.639 -1.1423  1.0072  1.1777
 3799TIP3   OH232887   0.391   0.759   1.609 -0.3889  0.3771  0.0307
 3799TIP3    H132888   0.377   0.853   1.617 -2.0802  0.1253  0.4005
 3799TIP3    H232889   0.405   0.728   1.698 -0.5459  0.1900 -0.0069
 3800TIP3   OH232890   6.635   2.469   2.014  0.0031 -0.5458  0.1556
 3800TIP3    H132891   6.702   2.403   2.035 -0.6176 -1.4410 -0.6114
 3800TIP3    H232892   6.591   2.486   2.097  0.8467 -0.3108  0.5704
 3801TIP3   OH232893   6.395   6.757  12.483  0.2015 -0.0454  0.5022
 3801TIP3    H132894   6.318   6.719  12.524  0.1084  0.5124  0.8446
 3801TIP3    H232895   6.381   6.851  12.486 -0.0173  0.0193 -1.2026
 3802TIP3   OH232896   0.115   4.358   1.329 -0.2876  0.0331  0.1931
 3802TIP3    H132897   0.153   4.444   1.347 -0.9417  0.9494 -2.3330
 3802TIP3    H232898   0.020   4.373   1.333 -0.4128 -0.9080  1.0191
 3803TIP3   OH232899   0.446   3.087  14.797  0.1964  0.3963  0.2285
 3803TIP3    H132900   0.515   3.055  14.739  1.6114  0.8323  1.5912
 3803TIP3    H232901   0.422   3.172  14.761 -0.3539 -0.1975 -0.8308
 3804TIP3   OH232902   6.479   6.471   4.498 -0.0484  0.7914  0.5994
 3804TIP3    H132903   6.529   6.531   4.443  3.3457 -0.7630  1.7057
 3804TIP3    H232904   6.451   6.401   4.439 -1.0230  1.6766 -0.0296
 3805TIP3   OH232905   4.735   0.481  13.665  0.0714  0.5118 -0.0157
 3805TIP3    H132906   4.688   0.519  13.738 -0.8852 -0.8224  0.1003
 3805TIP3    H232907   4.788   0.553  13.630 -1.3865  1.8473  0.3903
 3806TIP3   OH232908   5.574   4.594   1.363 -0.0383  0.2153 -0.8040
 3806TIP3    H132909   5.547   4.678   1.401 -0.9865  0.3147 -1.6592
 3806TIP3    H232910   5.618   4.548   1.435 -0.5285  0.9799  0.0010
 3807TIP3   OH232911   5.381   1.339   3.412 -0.1438  0.1026 -0.4358
 3807TIP3    H132912   5.292   1.305   3.398 -0.5492  1.0268 -0.1550
 3807TIP3    H232913   5.421   1.336   3.325 -0.2985 -0.7208 -0.4877
 3808TIP3   OH232914   5.266   1.339  15.459 -0.3700 -0.0434  0.3424
 3808TIP3    H132915   5.221   1.257  15.436  1.8976 -1.3120  0.1991
 3808TIP3    H232916   5.296   1.374  15.375 -0.9260  0.7393  0.4532
 3809TIP3   OH232917   5.934   1.642  14.056 -0.6259 -0.0476 -0.4430
 3809TIP3    H132918   5.958   1.718  14.109  0.1149  0.0063 -0.8391
 3809TIP3    H232919   6.017   1.598  14.038 -0.8780 -0.1683 -1.3963
 3810TIP3   OH232920   2.329   0.859  13.965  0.1359 -0.2569 -0.1740
 3810TIP3    H132921   2.310   0.915  13.890  2.3416 -1.0387 -1.3711
 3810TIP3    H232922   2.301   0.772  13.938 -1.1813 -0.1825  0.8291
 3811TIP3   OH232923   4.625   4.899  13.302  0.0738  0.7028 -0.3237
 3811TIP3    H132924   4.615   4.806  13.283 -1.6874  0.3833  1.7379
 3811TIP3    H232925   4.707   4.924  13.260  0.3530 -1.6691 -1.3029
 3812TIP3   OH232926   5.003   1.792   2.369 -0.5200 -0.5844 -0.0942
 3812TIP3    H132927   5.074   1.728   2.359 -0.3532 -0.6602  1.3251
 3812TIP3    H232928   5.032   1.849   2.440 -1.2740  0.2359 -0.4262
 3813TIP3   OH232929   4.181   0.290   5.415  0.2052 -0.0680 -0.6037
 3813TIP3    H132930   4.244   0.357   5.440 -0.6005  0.4896 -0.0394
 3813TIP3    H232931   4.233   0.210   5.408  1.3003  0.7299 -1.9632
 3814TIP3   OH232932   0.843   0.604  15.254 -0.1353 -0.1137  0.5973
 3814TIP3    H132933   0.832   0.576  15.345 -0.9619 -0.9170  0.2678
 3814TIP3    H232934   0.827   0.698  15.256 -0.3176 -0.1487  1.2627
 3815TIP3   OH232935   6.405   3.507  16.862 -0.1099 -0.7485  0.2883
 3815TIP3    H132936   6.310   3.500  16.871 -0.2137  0.5515  0.3181
 3815TIP3    H232937   6.433   3.557  16.939  0.5741 -0.9012  0.1488
 3816TIP3   OH232938   4.217   4.022  13.356  0.0452  0.3713  0.5535
 3816TIP3    H132939   4.258   4.015  13.270 -1.1275 -0.8681  0.0644
 3816TIP3    H232940   4.159   4.099  13.349 -1.2126 -0.6196 -0.3055
 3817TIP3   OH232941   5.786   4.115   2.459 -0.1966 -0.1404  0.3240
 3817TIP3    H132942   5.819   4.096   2.371 -0.5594 -1.3931  0.4396
 3817TIP3    H232943   5.738   4.197   2.449 -0.9920 -0.7167 -0.8572
 3818TIP3   OH232944   5.698   2.919  14.039 -0.4080 -0.5801 -0.3481
 3818TIP3    H132945   5.645   2.847  14.073 -1.4511 -0.8113 -2.3422
 3818TIP3    H232946   5.687   2.915  13.944  0.2666  1.6296 -0.5803
 3819TIP3   OH232947   6.355   0.262  15.953  0.3297  0.0180 -0.0937
 3819TIP3    H132948   6.433   0.209  15.966 -0.8142 -1.8933 -0.7001
 3819TIP3    H232949   6.329   0.246  15.862 -0.9264  0.3929  0.1757
 3820TIP3   OH232950   1.299   5.626   1.192 -0.5235 -0.2106 -0.3326
 3820TIP3    H132951   1.278   5.571   1.116  2.0496 -0.6798 -0.7711
 3820TIP3    H232952   1.339   5.704   1.154  0.7705 -0.4344  0.5120
 3821TIP3   OH232953   3.501   0.603   2.452  0.2416  0.2098 -0.2300
 3821TIP3    H132954   3.432   0.602   2.385 -1.1482 -2.1603  1.0897
 3821TIP3    H232955   3.522   0.511   2.465  0.8377  0.6300  2.1981
 3822TIP3   OH232956   4.975   3.032  11.816 -0.2232 -0.2007  0.1277
 3822TIP3    H132957   4.908   3.090  11.779  0.6003 -0.1619 -1.3623
 3822TIP3    H232958   5.033   3.012  11.742  1.1807 -0.5628  1.2914
 3823TIP3   OH232959   4.683   5.603   0.819 -0.4004  0.2705 -0.4240
 3823TIP3    H132960   4.624   5.560   0.880 -0.6682  1.7452  0.3895
 3823TIP3    H232961   4.634   5.677   0.785  0.0125 -0.0839 -1.8850
 3824TIP3   OH232962   3.902   1.811   2.904  0.1416 -0.0125 -0.1343
 3824TIP3    H132963   3.926   1.739   2.846 -0.8479 -1.3748  1.0795
 3824TIP3    H232964   3.809   1.798   2.922 -0.8155  3.2004 -2.0649
 3825TIP3   OH232965   3.630   0.972  13.418  0.0712 -0.2675 -0.1125
 3825TIP3    H132966   3.671   0.986  13.332  2.6446 -3.4117  0.4028
 3825TIP3    H232967   3.591   0.885  13.411 -1.5737  0.3205  1.2755
 3826TIP3   OH232968   5.307   2.921   4.219 -0.0677 -0.3921 -0.0074
 3826TIP3    H132969   5.230   2.928   4.164  1.1238  2.5224 -1.5001
 3826TIP3    H232970   5.356   3.002   4.203  3.2461 -2.0274  0.9608
 3827TIP3   OH232971   4.071   1.430   0.427  0.8965 -0.2279  0.7542
 3827TIP3    H132972   4.112   1.391   0.505  0.9599 -0.3679  0.6516
 3827TIP3    H232973   3.985   1.460   0.457  0.2194 -1.7975  0.4920
 3828TIP3   OH232974   1.937   2.399  13.397  0.0720  0.4836 -0.6724
 3828TIP3    H132975   1.929   2.306  13.376 -2.7350  0.2863  0.8055
 3828TIP3    H232976   1.980   2.401  13.482 -0.5462  0.4797 -0.3569
 3829TIP3   OH232977   2.739   0.342  11.463 -0.2048  0.3353 -0.3107
 3829TIP3    H132978   2.746   0.260  11.415 -0.7589  0.3706 -0.4635
 3829TIP3    H232979   2.702   0.404  11.400  0.1296  0.6782 -0.1720
 3830TIP3   OH232980   4.062   0.673   5.477  0.1241  0.1274  0.4647
 3830TIP3    H132981   4.053   0.612   5.550  1.4417  0.4258  0.9013
 3830TIP3    H232982   3.999   0.642   5.411 -0.5545 -0.5758  1.4226
 3831TIP3   OH232983   5.143   2.499   2.385  0.2790  0.9256 -0.0598
 3831TIP3    H132984   5.058   2.544   2.390  0.7097  1.7689 -0.1490
 3831TIP3    H232985   5.143   2.456   2.299  0.8344  2.7859 -1.0337
 3832TIP3   OH232986   4.165   1.216  14.879  0.5052 -0.5426  0.2952
 3832TIP3    H132987   4.110   1.140  14.898 -0.4568 -0.1332 -0.7610
 3832TIP3    H232988   4.245   1.201  14.929  0.1254 -1.9985  0.4983
 3833TIP3   OH232989   4.796   4.684  11.550 -0.1055  1.0629 -0.3114
 3833TIP3    H132990   4.866   4.647  11.603 -2.2511  0.5098  2.3372
 3833TIP3    H232991   4.757   4.609  11.505  1.2148  1.4313 -2.1842
 3834TIP3   OH232992   1.419   6.521   0.661  0.1239  0.3117  0.2144
 3834TIP3    H132993   1.344   6.573   0.691 -0.8752  0.4155 -2.1839
 3834TIP3    H232994   1.384   6.432   0.653  1.1601 -0.2993  1.9934
 3835TIP3   OH232995   5.713   0.478   1.850  0.3576 -0.3724  0.4712
 3835TIP3    H132996   5.713   0.383   1.857  1.7728 -0.2793  2.1860
 3835TIP3    H232997   5.708   0.510   1.940 -1.1406  1.2223 -0.1029
 3836TIP3   OH232998   6.153   5.949   1.856 -0.2817  0.2401  0.4420
 3836TIP3    H132999   6.127   5.937   1.765  0.8162  0.7891  0.0369
 3836TIP3    H233000   6.245   5.921   1.859 -0.2601  0.3477  1.3534
 3837TIP3   OH233001   5.897   2.933   1.105  0.7490 -0.3787 -0.8276
 3837TIP3    H133002   5.930   2.861   1.159  2.4844  0.3336 -0.8703
 3837TIP3    H233003   5.874   2.892   1.021 -2.0826 -1.5227  0.3571
 3838TIP3   OH233004   5.631   4.787  13.558  0.1734  0.4995  0.2227
 3838TIP3    H133005   5.573   4.778  13.482 -0.9711  0.4833  1.0695
 3838TIP3    H233006   5.717   4.807  13.521 -0.8348  3.0278 -1.0243
 3839TIP3   OH233007   3.115   6.122  13.040 -0.3812  0.0762 -0.7504
 3839TIP3    H133008   3.135   6.140  13.132  0.7376  0.2942 -1.0180
 3839TIP3    H233009   3.091   6.030  13.039 -0.5516  0.1079 -0.2166
 3840TIP3   OH233010   5.030   1.580  16.390  0.6161  0.2112 -0.2546
 3840TIP3    H133011   5.079   1.579  16.307 -0.4920  0.7114 -0.9433
 3840TIP3    H233012   4.945   1.542  16.367  0.5765 -0.3833  0.8503
 3841TIP3   OH233013   6.310   3.231   1.855 -0.5197  0.1069  0.3676
 3841TIP3    H133014   6.284   3.203   1.768  0.3748  0.4366 -0.0174
 3841TIP3    H233015   6.269   3.168   1.914 -1.8082  0.3621 -0.2202
 3842TIP3   OH233016   3.074   1.743  11.928  0.4932 -0.4150  0.5097
 3842TIP3    H133017   3.060   1.775  11.839 -0.7293  0.5159  1.0019
 3842TIP3    H233018   2.995   1.693  11.948  0.7477 -0.5911  1.0829
 3843TIP3   OH233019   3.563   1.682   2.752 -0.1854 -0.3316  0.1525
 3843TIP3    H133020   3.578   1.607   2.809 -2.1507 -0.0487  1.1615
 3843TIP3    H233021   3.578   1.650   2.664 -0.3680 -1.7265  0.6122
 3844TIP3   OH233022   2.574   3.004  13.418  0.5111  0.5794  0.1719
 3844TIP3    H133023   2.576   2.921  13.465 -1.6298  1.0464  1.2380
 3844TIP3    H233024   2.622   2.988  13.337 -1.8033 -2.4313 -0.7698
 3845TIP3   OH233025   1.637   0.413  14.903  0.1843  0.3619  0.1411
 3845TIP3    H133026   1.610   0.374  14.820 -3.4337  1.6917  0.4864
 3845TIP3    H233027   1.676   0.341  14.952  0.6972 -0.8965 -1.9971
 3846TIP3   OH233028   6.130   5.827  11.729 -0.3083  0.3506 -0.1365
 3846TIP3    H133029   6.169   5.902  11.685 -2.3260  1.0828 -0.7739
 3846TIP3    H233030   6.075   5.865  11.797 -0.4605 -0.6161  0.2950
 3847TIP3   OH233031   1.229   2.532  14.064 -0.2593 -0.6698 -0.2875
 3847TIP3    H133032   1.268   2.474  13.999 -0.7060 -0.3506 -0.8493
 3847TIP3    H233033   1.271   2.508  14.146  1.2217 -0.2468 -0.8851
 3848TIP3   OH233034   5.414   2.392  15.161 -0.2621 -0.0142 -0.5625
 3848TIP3    H133035   5.333   2.441  15.166 -0.1821 -0.0172  2.6835
 3848TIP3    H233036   5.481   2.452  15.193  0.3894 -1.1165  0.2303
 3849TIP3   OH233037   0.616   6.116  15.921 -0.1553  0.1674 -0.1446
 3849TIP3    H133038   0.627   6.175  15.846  1.3324  0.1391  0.0189
 3849TIP3    H233039   0.561   6.165  15.982  1.8055  1.8492  0.3988
 3850TIP3   OH233040   2.963   5.678  10.463 -0.3543 -0.3650 -0.1158
 3850TIP3    H133041   2.934   5.756  10.510  0.5098  0.7010 -1.2896
 3850TIP3    H233042   2.886   5.648  10.415 -0.7641 -0.4291  0.5616
 3851TIP3   OH233043   0.843   2.886   4.161  0.2330  0.4142  0.5598
 3851TIP3    H133044   0.822   2.836   4.082  0.6578  1.5273 -0.2864
 3851TIP3    H233045   0.924   2.932   4.140 -0.4970  1.9932  1.0446
 3852TIP3   OH233046   0.128   2.626  11.608  0.5531 -0.5751 -0.7547
 3852TIP3    H133047   0.174   2.707  11.630 -1.1290  0.7420 -1.8418
 3852TIP3    H233048   0.175   2.592  11.531  0.5692  0.0066 -1.0066
 3853TIP3   OH233049   4.786   1.300   2.155  0.6180 -0.2378  0.6511
 3853TIP3    H133050   4.797   1.241   2.230 -0.4438  0.9211  1.7689
 3853TIP3    H233051   4.843   1.374   2.174  1.1895 -0.4316 -0.2564
 3854TIP3   OH233052   6.758   0.363   2.633  0.0426 -0.4373  0.1100
 3854TIP3    H133053   6.683   0.340   2.687 -0.5453 -0.5328 -0.7329
 3854TIP3    H233054   6.828   0.381   2.696 -0.8106  0.1418  0.9307
 3855TIP3   OH233055   4.497   4.278   3.314  0.1243  0.2477 -0.0332
 3855TIP3    H133056   4.553   4.202   3.332 -0.0959 -0.1479 -0.9624
 3855TIP3    H233057   4.432   4.277   3.384  0.8594  0.3146  0.6694
 3856TIP3   OH233058   4.422   4.253   0.096  0.3764 -0.2189 -0.0161
 3856TIP3    H133059   4.385   4.338   0.119  1.1212  0.1528 -0.1623
 3856TIP3    H233060   4.421   4.251   0.000  0.1500 -0.4666 -0.0082
 3857TIP3   OH233061   4.663   6.410   4.356  0.1939 -0.4540 -0.0097
 3857TIP3    H133062   4.757   6.412   4.340  0.4730  0.2619  1.4771
 3857TIP3    H233063   4.629   6.487   4.312  0.3789 -0.4655 -0.1713
 3858TIP3   OH233064   3.941   0.178   1.693  0.8576 -0.2113  0.3941
 3858TIP3    H133065   3.920   0.113   1.626  0.2434 -0.4758  0.8294
 3858TIP3    H233066   4.013   0.139   1.742 -0.5244 -1.3421  1.6618
 3859TIP3   OH233067   5.376   1.440   2.493 -0.0289 -0.4979  0.0498
 3859TIP3    H133068   5.383   1.349   2.523 -0.3491 -0.3291  0.6591
 3859TIP3    H233069   5.291   1.470   2.526 -0.3631 -0.2749 -0.9926
 3860TIP3   OH233070   0.611   4.499  12.704 -0.2383  0.7808  0.9892
 3860TIP3    H133071   0.524   4.513  12.666  0.3858  0.3090 -0.7006
 3860TIP3    H233072   0.597   4.507  12.798 -2.2786 -0.1417  0.8245
 3861TIP3   OH233073   4.405   5.471   4.504  0.0466 -0.4988 -0.0055
 3861TIP3    H133074   4.380   5.415   4.578 -0.8468  0.1547  0.2026
 3861TIP3    H233075   4.423   5.557   4.544  0.7953 -0.4589 -0.4001
 3862TIP3   OH233076   6.844   6.499  11.208  0.0132 -0.1985 -0.3837
 3862TIP3    H133077   6.929   6.464  11.235  0.4872  1.0628 -0.1216
 3862TIP3    H233078   6.865   6.585  11.171 -1.2550  0.6893  0.8323
 3863TIP3   OH233079   1.454   1.554   4.909 -0.4104  0.6628 -0.0083
 3863TIP3    H133080   1.417   1.596   4.832 -2.4757  0.3047  0.7201
 3863TIP3    H233081   1.541   1.526   4.882 -0.9251  0.9044 -2.0608
 3864TIP3   OH233082   5.073   0.108  14.662  0.1862 -0.2365 -0.2534
 3864TIP3    H133083   5.128   0.183  14.637 -0.8978  1.0032  0.8989
 3864TIP3    H233084   5.058   0.061  14.580  0.3203  1.2157 -1.1457
 3865TIP3   OH233085   3.190   2.197  14.024  0.2252 -0.2914 -0.3499
 3865TIP3    H133086   3.216   2.141  14.096  0.6920  0.7261  0.2992
 3865TIP3    H233087   3.151   2.138  13.959  0.3392 -1.2871  0.4780
 3866TIP3   OH233088   3.650   2.981  11.483 -0.3335  0.7016 -0.3186
 3866TIP3    H133089   3.669   2.980  11.577 -0.4419  1.1900 -0.2886
 3866TIP3    H233090   3.579   3.045  11.474  1.5439  2.7841 -1.0741
 3867TIP3   OH233091   3.593   4.316  13.921 -0.2779 -0.1190 -0.3865
 3867TIP3    H133092   3.510   4.360  13.940 -1.1885 -1.1079 -1.8845
 3867TIP3    H233093   3.588   4.294  13.828  2.2965  1.0439 -0.8863
 3868TIP3   OH233094   4.190   0.540   5.080 -0.0531  0.2432  0.4659
 3868TIP3    H133095   4.167   0.483   5.006  0.2647  0.7370 -0.0260
 3868TIP3    H233096   4.266   0.499   5.119  0.1314  0.2815  0.1552
 3869TIP3   OH233097   2.806   5.076   5.245  0.3655  0.5507 -0.4289
 3869TIP3    H133098   2.876   5.017   5.275  0.8256  1.7901  1.0189
 3869TIP3    H233099   2.729   5.049   5.295  0.4868  0.9457 -0.0291
 3870TIP3   OH233100   2.459   0.284  11.636  0.0931  0.2247 -0.0533
 3870TIP3    H133101   2.389   0.322  11.690 -0.6028 -0.1698 -0.6644
 3870TIP3    H233102   2.532   0.344  11.646  0.6973 -0.8275  2.9394
 3871TIP3   OH233103   3.434   5.535  11.713  0.8548 -0.2919  0.5344
 3871TIP3    H133104   3.488   5.557  11.789  0.9359 -0.4386  0.5190
 3871TIP3    H233105   3.353   5.500  11.751  0.8045 -0.1506  0.5566
 3872TIP3   OH233106   3.505   5.237  13.767 -0.4536 -0.1653  0.0753
 3872TIP3    H133107   3.486   5.330  13.770  1.5755  0.2878 -0.2776
 3872TIP3    H233108   3.494   5.213  13.674 -0.3558 -0.1515  0.0608
 3873TIP3   OH233109   2.391   2.894   6.156 -0.0297 -0.3800 -0.3074
 3873TIP3    H133110   2.459   2.956   6.129  0.6961 -1.2178 -0.4674
 3873TIP3    H233111   2.437   2.810   6.163 -0.6266 -0.5883  1.5428
 3874TIP3   OH233112   5.006   6.291  11.350  0.2669  0.4748 -0.3420
 3874TIP3    H133113   5.088   6.332  11.379  0.2471 -0.4676  1.1872
 3874TIP3    H233114   5.034   6.223  11.288  0.9407 -1.3895  1.8648
 3875TIP3   OH233115   1.933   0.842  13.343  0.0509 -0.2408 -0.7088
 3875TIP3    H133116   1.969   0.848  13.255  1.5501  0.2377 -0.0986
 3875TIP3    H233117   2.002   0.876  13.400 -1.4911  1.0042  0.5266
 3876TIP3   OH233118   5.301   1.460   4.287 -0.7630 -0.2436 -0.5586
 3876TIP3    H133119   5.359   1.492   4.218 -0.5468  0.8540  0.1104
 3876TIP3    H233120   5.251   1.537   4.314 -2.9039 -1.2260 -1.4275
 3877TIP3   OH233121   1.665   1.640   5.982 -0.1744  0.0326  0.6753
 3877TIP3    H133122   1.620   1.722   5.962  1.1271  0.9273  1.2341
 3877TIP3    H233123   1.758   1.659   5.967  0.1517 -1.3834  0.6936
 3878TIP3   OH233124   6.173   2.973   1.938  0.2774 -0.1405  0.2320
 3878TIP3    H133125   6.192   2.935   2.024  1.1837  1.6960  0.8973
 3878TIP3    H233126   6.077   2.980   1.936  0.1409 -1.6313  0.4121
 3879TIP3   OH233127   4.397   1.207  10.946 -0.1603 -0.1284 -0.5415
 3879TIP3    H133128   4.448   1.188  10.867  0.0274 -2.6703  0.0953
 3879TIP3    H233129   4.317   1.157  10.935 -1.9004  2.5049 -0.7530
 3880TIP3   OH233130   6.224   5.767  11.354  0.6880 -0.1930 -0.5777
 3880TIP3    H133131   6.188   5.802  11.272  0.2851 -0.8981 -0.7013
 3880TIP3    H233132   6.309   5.731  11.329  1.0507  0.5729 -0.4739
 3881TIP3   OH233133   4.181   2.532   2.244  0.1600 -0.1792  0.1543
 3881TIP3    H133134   4.156   2.588   2.171 -1.3630  0.0165  0.7836
 3881TIP3    H233135   4.172   2.442   2.211  4.1671 -0.2222 -1.3818
 3882TIP3   OH233136   4.267   5.717   3.791  0.1397 -0.2554  0.3597
 3882TIP3    H133137   4.290   5.787   3.853  3.2930 -0.3666 -0.5211
 3882TIP3    H233138   4.298   5.637   3.833 -0.2191 -0.6876 -0.1838
 3883TIP3   OH233139   0.915   5.076  10.905 -0.4472 -0.0805 -0.0566
 3883TIP3    H133140   1.005   5.054  10.883 -0.6835 -0.5282 -0.6269
 3883TIP3    H233141   0.883   5.124  10.829 -0.9449 -0.6823 -0.2400
 3884TIP3   OH233142   6.776   1.507   4.787  0.0949 -0.2041  0.5305
 3884TIP3    H133143   6.751   1.580   4.843  0.4272 -0.3061  0.8173
 3884TIP3    H233144   6.835   1.546   4.722  1.3960 -0.4443  1.5154
 3885TIP3   OH233145   1.647   1.594   1.586  0.6208 -0.3370  0.1869
 3885TIP3    H133146   1.705   1.665   1.558 -3.2339  1.5802 -4.3817
 3885TIP3    H233147   1.673   1.519   1.533  1.1043 -0.5818  0.7651
 3886TIP3   OH233148   0.524   6.244   0.840  0.0398  0.8678  0.4993
 3886TIP3    H133149   0.531   6.268   0.747 -0.0719  0.8212  0.4785
 3886TIP3    H233150   0.527   6.148   0.840  0.8529  0.8823  0.6120
 3887TIP3   OH233151   5.167   5.963   3.343  0.0127 -0.2316 -0.2646
 3887TIP3    H133152   5.206   5.976   3.257 -1.7387  0.3907 -1.0154
 3887TIP3    H233153   5.123   5.878   3.337  0.7323 -0.6703  0.3859
 3888TIP3   OH233154   3.214   2.933   6.311  0.2309  0.1478 -0.4095
 3888TIP3    H133155   3.290   2.974   6.352  1.0348 -0.8944 -0.8100
 3888TIP3    H233156   3.202   2.852   6.359  0.2258 -0.3479 -1.2280
 3889TIP3   OH233157   4.015   5.800  10.300  0.5011  0.3561  0.2263
 3889TIP3    H133158   3.975   5.752  10.228  1.0112  1.0821 -0.5559
 3889TIP3    H233159   4.041   5.884  10.262  0.8167  0.7364  1.2436
 3890TIP3   OH233160   5.863   6.437  14.725 -0.4507  0.1822 -0.3587
 3890TIP3    H133161   5.840   6.405  14.638  1.1382 -0.1699 -0.6795
 3890TIP3    H233162   5.955   6.413  14.736 -0.7169 -0.1297  1.5820
 3891TIP3   OH233163   0.545   0.474   4.126 -0.3116 -0.0273  0.0452
 3891TIP3    H133164   0.581   0.540   4.186 -2.8257  1.3572  0.1784
 3891TIP3    H233165   0.611   0.404   4.125  0.6863  0.7205  2.9401
 3892TIP3   OH233166   5.501   4.355   1.234 -0.2075  0.2731  0.0964
 3892TIP3    H133167   5.480   4.441   1.272 -1.0348 -0.0514  0.3835
 3892TIP3    H233168   5.578   4.326   1.283 -2.0729 -0.7760  2.6181
 3893TIP3   OH233169   2.845   5.583  10.951  0.2295  0.4815  0.3633
 3893TIP3    H133170   2.874   5.557  10.863 -2.6939  2.2443 -1.3041
 3893TIP3    H233171   2.832   5.500  10.997  1.1421 -0.5314 -1.1060
 3894TIP3   OH233172   0.360   4.235  15.654 -0.3223  0.2390 -0.2977
 3894TIP3    H133173   0.317   4.174  15.593 -1.4391  0.1639  0.5299
 3894TIP3    H233174   0.288   4.275  15.702  0.5344 -0.4768  1.7155
 3895TIP3   OH233175   1.720   4.171   3.035 -0.4834 -0.7527 -0.4010
 3895TIP3    H133176   1.716   4.098   3.098 -0.3286 -0.8989 -0.5593
 3895TIP3    H233177   1.789   4.228   3.068  0.4889 -1.4829 -1.1294
 3896TIP3   OH233178   3.899   4.749  13.976 -0.2529 -0.0554 -0.7850
 3896TIP3    H133179   3.933   4.698  14.050 -1.1549  0.0589 -0.2729
 3896TIP3    H233180   3.858   4.683  13.920  1.4619 -0.3029 -1.8164
 3897TIP3   OH233181   1.543   2.844  12.411  0.6943 -0.3285  0.3630
 3897TIP3    H133182   1.533   2.883  12.323 -1.0285  1.0180  1.1037
 3897TIP3    H233183   1.549   2.919  12.469  2.5417 -1.2023  1.3922
 3898TIP3   OH233184   5.491   0.058  11.333 -1.2371  0.0748 -0.4961
 3898TIP3    H133185   5.500  -0.006  11.262  1.1296  1.8233 -1.9088
 3898TIP3    H233186   5.576   0.059  11.376 -2.2584 -0.0582  1.6546
 3899TIP3   OH233187   2.302   4.306   2.313  0.3930 -0.3988 -0.0802
 3899TIP3    H133188   2.337   4.393   2.335 -1.5414  0.2154  0.7952
 3899TIP3    H233189   2.209   4.320   2.301  0.1869 -2.2143 -0.9089
 3900TIP3   OH233190   4.032   0.159   5.200 -0.1042  0.4910  0.2921
 3900TIP3    H133191   4.064   0.175   5.289 -1.1616  0.3159  0.7169
 3900TIP3    H233192   3.985   0.076   5.207 -0.0268  0.3782 -0.4810
 3901TIP3   OH233193   3.170   2.461   1.832 -0.5295  0.6984 -0.1817
 3901TIP3    H133194   3.143   2.370   1.816 -0.1163  0.4567  0.4500
 3901TIP3    H233195   3.088   2.506   1.852 -0.9628  0.8436 -2.0938
 3902TIP3   OH233196   1.970   3.958   0.210 -0.2593  0.2254  0.5444
 3902TIP3    H133197   1.991   3.865   0.198 -1.1584  0.2149 -1.4111
 3902TIP3    H233198   2.035   4.004   0.158 -0.7434  0.5793  0.2348
 3903TIP3   OH233199   2.025   6.718   6.144  0.0285 -0.1532 -0.5420
 3903TIP3    H133200   2.080   6.758   6.211  0.2191 -2.2177  0.6033
 3903TIP3    H233201   1.941   6.704   6.188 -0.9363  1.4209 -1.7670
 3904TIP3   OH233202   6.296   6.159   0.126 -0.2264  0.1692  0.1276
 3904TIP3    H133203   6.309   6.133   0.035  0.1899 -4.2223  1.2214
 3904TIP3    H233204   6.201   6.165   0.136 -0.2978 -0.0235 -0.4239
 3905TIP3   OH233205   0.263   4.269   3.463  0.5623  0.6236 -0.3741
 3905TIP3    H133206   0.305   4.280   3.378 -0.0802 -1.5309 -1.0267
 3905TIP3    H233207   0.331   4.233   3.520  0.0076 -1.8601 -1.1504
 3906TIP3   OH233208   3.051   1.979   4.882 -0.3307  0.0194 -0.2443
 3906TIP3    H133209   3.054   1.887   4.907 -1.7127  0.0729  0.2081
 3906TIP3    H233210   3.039   1.977   4.787 -1.0045 -0.2842 -0.1576
 3907TIP3   OH233211   5.714   1.098  16.579  0.8260  0.0608 -0.6473
 3907TIP3    H133212   5.735   1.145  16.660  1.9528 -1.8431  0.2215
 3907TIP3    H233213   5.776   1.025  16.576 -0.7104 -1.2818 -2.0237
 3908TIP3   OH233214   1.801   0.201  11.387 -0.1585 -0.1673 -0.3880
 3908TIP3    H133215   1.846   0.230  11.308  0.7837 -0.8680 -0.1295
 3908TIP3    H233216   1.712   0.237  11.379  0.2601  0.7326 -1.2021
 3909TIP3   OH233217   3.234   3.091  14.091  0.2685 -0.0294  0.5674
 3909TIP3    H133218   3.253   3.179  14.126  0.4020  0.0282  0.3515
 3909TIP3    H233219   3.257   3.097  13.999  1.2455 -0.5883  0.7647
 3910TIP3   OH233220   6.798   6.030   5.666  0.0228 -0.3447 -0.3069
 3910TIP3    H133221   6.759   5.942   5.670 -1.1948  0.1489  3.5953
 3910TIP3    H233222   6.724   6.088   5.647  0.4408  0.0144 -0.8767
 3911TIP3   OH233223   2.374   5.467   5.228 -0.7177 -0.0376  0.0418
 3911TIP3    H133224   2.324   5.411   5.169 -1.1721  0.0363  0.3476
 3911TIP3    H233225   2.329   5.551   5.226  0.2242  0.4623 -0.7567
 3912TIP3   OH233226   5.397   0.914  10.679 -0.2595 -0.5506 -0.0554
 3912TIP3    H133227   5.385   0.880  10.590  2.1822 -2.3588  0.1998
 3912TIP3    H233228   5.364   0.844  10.735  0.5991 -0.5356  0.4714
 3913TIP3   OH233229   1.952   6.627   0.461  0.0755  0.3421 -0.3385
 3913TIP3    H133230   1.893   6.650   0.389  0.2292  0.8004 -0.3196
 3913TIP3    H233231   1.894   6.605   0.533 -0.2286 -3.4824 -1.5190
 3914TIP3   OH233232   2.975   2.600   2.443 -0.4724  0.2546  0.7845
 3914TIP3    H133233   3.048   2.546   2.411 -1.3036 -0.6507  0.3690
 3914TIP3    H233234   2.953   2.563   2.528 -0.1523  0.8286  1.1228
 3915TIP3   OH233235   6.371   6.388  16.180  0.5850 -0.4915  0.2501
 3915TIP3    H133236   6.421   6.464  16.149  2.3175 -1.1381  1.3026
 3915TIP3    H233237   6.327   6.420  16.259  0.1684 -0.1930 -0.1037
 3916TIP3   OH233238   1.065   4.621   3.999 -0.0658 -0.1500  0.5510
 3916TIP3    H133239   0.978   4.643   4.031 -0.2846 -0.7268  0.3539
 3916TIP3    H233240   1.108   4.577   4.073 -0.1443 -0.3907  0.4521
 3917TIP3   OH233241   6.474   3.795  14.793 -0.2606 -0.5061  0.0491
 3917TIP3    H133242   6.434   3.710  14.814  0.4478 -1.1690 -1.1611
 3917TIP3    H233243   6.556   3.772  14.750 -0.7973  0.7759 -1.7581
 3918TIP3   OH233244   5.044   1.169  16.292 -0.0826 -0.6592 -0.7775
 3918TIP3    H133245   5.127   1.216  16.286 -1.7843  2.6198 -0.8606
 3918TIP3    H233246   5.033   1.128  16.206  2.1473 -2.6597 -0.2100
 3919TIP3   OH233247   5.549   3.379  11.812 -0.6001 -0.7490 -0.4206
 3919TIP3    H133248   5.566   3.473  11.817  0.9533 -1.0440  0.8978
 3919TIP3    H233249   5.488   3.369  11.739  0.6365  1.0927 -1.8173
 3920TIP3   OH233250   5.444   3.232  16.880  1.0149  0.2007  0.1318
 3920TIP3    H133251   5.357   3.271  16.872  1.6906  1.3853 -2.1695
 3920TIP3    H233252   5.431   3.139  16.859  0.5280  0.6905 -1.9378
 3921TIP3   OH233253   1.972   4.374   0.179 -0.2545 -0.6889 -0.6567
 3921TIP3    H133254   2.022   4.293   0.171 -0.2996 -0.7483 -0.3366
 3921TIP3    H233255   1.960   4.386   0.273  0.9794  0.4391 -0.6215
 3922TIP3   OH233256   5.464   2.122  15.567 -0.4550  0.1553  0.1246
 3922TIP3    H133257   5.498   2.172  15.494 -1.2000  0.4311 -0.0446
 3922TIP3    H233258   5.374   2.099  15.541 -0.3544 -0.6876  0.4837
 3923TIP3   OH233259   5.996   3.817  16.873  0.0453 -1.0515  0.1733
 3923TIP3    H133260   5.938   3.773  16.811  0.3778 -0.5899 -0.4826
 3923TIP3    H233261   6.036   3.746  16.923  0.6126 -1.5122 -0.8994
 3924TIP3   OH233262   3.537   6.515   3.996 -0.4586  0.0194 -0.2813
 3924TIP3    H133263   3.573   6.603   4.010  2.7095 -0.5539 -3.4280
 3924TIP3    H233264   3.551   6.471   4.080  3.4374  0.9168 -0.2460
 3925TIP3   OH233265   1.892   3.755  13.718 -0.4210  0.0746 -0.3164
 3925TIP3    H133266   1.929   3.830  13.764  0.3191 -0.7881  0.5296
 3925TIP3    H233267   1.958   3.733  13.652 -0.6551  0.1837 -0.5878
 3926TIP3   OH233268   4.327   2.044  13.899  0.5107  0.4735  0.6071
 3926TIP3    H133269   4.381   1.973  13.865 -1.0441  0.1598 -1.4514
 3926TIP3    H233270   4.345   2.046  13.993  2.5457 -0.8901  0.3079
 3927TIP3   OH233271   3.184   6.200   3.674 -0.5716  0.0792  0.2564
 3927TIP3    H133272   3.133   6.267   3.630 -1.3358 -0.9993 -0.5584
 3927TIP3    H233273   3.143   6.191   3.760 -0.5137  0.5821  0.3405
 3928TIP3   OH233274   6.530   5.575   1.099 -0.4487 -0.2264  0.7398
 3928TIP3    H133275   6.525   5.481   1.119  1.3874 -0.3822  0.6578
 3928TIP3    H233276   6.519   5.578   1.003  1.4374 -0.5917  0.4792
 3929TIP3   OH233277   4.124   6.145  12.924  0.0514 -0.3505 -0.3051
 3929TIP3    H133278   4.158   6.134  13.013  1.5301  0.7791 -0.6865
 3929TIP3    H233279   4.187   6.203  12.882 -2.5541  2.2143 -0.9859
 3930TIP3   OH233280   3.807   1.555   0.842 -0.2142 -0.3273  0.0908
 3930TIP3    H133281   3.888   1.603   0.854 -0.0094 -0.6684  0.0961
 3930TIP3    H233282   3.749   1.615   0.795  0.1918 -0.2395 -0.2999
 3931TIP3   OH233283   4.755   6.091  15.355  0.2873 -0.2848  0.6052
 3931TIP3    H133284   4.679   6.131  15.397  0.3778  0.3952  0.1509
 3931TIP3    H233285   4.819   6.162  15.349 -0.2528  0.0951 -1.9978
 3932TIP3   OH233286   5.194   2.664  16.850  0.4932 -0.0400  0.2709
 3932TIP3    H133287   5.208   2.570  16.845 -1.0264 -0.2525 -0.5086
 3932TIP3    H233288   5.273   2.702  16.811  0.4072 -1.0463 -0.9703
 3933TIP3   OH233289   4.241   2.049  16.014 -0.2410 -0.6118 -0.5351
 3933TIP3    H133290   4.225   2.139  16.045  0.6504 -1.0378  1.3281
 3933TIP3    H233291   4.258   2.059  15.921  0.5042  1.2704 -0.2571
 3934TIP3   OH233292   4.279   3.760   0.886  0.3044  1.0640  0.1213
 3934TIP3    H133293   4.235   3.817   0.823 -0.2729  0.1345 -0.3262
 3934TIP3    H233294   4.215   3.751   0.957 -0.0926  0.0226 -0.3546
 3935TIP3   OH233295   3.476   1.420   6.262 -0.0368 -0.2179 -0.0231
 3935TIP3    H133296   3.480   1.513   6.241  0.5291 -0.0967  0.5938
 3935TIP3    H233297   3.386   1.394   6.242 -0.6423  0.8121  1.2549
 3936TIP3   OH233298   4.122   2.196   4.929 -0.3978  0.0793 -0.3985
 3936TIP3    H133299   4.175   2.267   4.893 -1.5148  0.3306 -1.6566
 3936TIP3    H233300   4.142   2.121   4.873 -1.4329  0.2187 -0.9852
 3937TIP3   OH233301   6.474   5.942  16.290  0.3395  0.0598  0.4155
 3937TIP3    H133302   6.431   6.002  16.230  1.3603  2.8484  2.2776
 3937TIP3    H233303   6.545   5.903  16.238 -1.3874 -0.9979 -1.3067
 3938TIP3   OH233304   1.628   1.418   4.068 -0.6866  0.2509  0.0100
 3938TIP3    H133305   1.671   1.364   4.134 -0.2826  1.8595  1.1217
 3938TIP3    H233306   1.679   1.404   3.988  0.0560 -0.1941  0.5526
 3939TIP3   OH233307   4.686   4.898  15.095  0.3151  0.2362 -0.1434
 3939TIP3    H133308   4.649   4.831  15.039 -0.9228 -0.6644  1.6349
 3939TIP3    H233309   4.757   4.853  15.142  0.9813  0.8237 -0.5670
 3940TIP3   OH233310   2.525   4.977   1.745  0.0374 -0.1103 -0.1409
 3940TIP3    H133311   2.492   4.941   1.827  0.0710 -1.6674 -0.7794
 3940TIP3    H233312   2.471   5.055   1.729 -0.0968  0.0965  1.2338
 3941TIP3   OH233313   2.210   0.424  15.605 -0.5835 -0.5532 -0.5847
 3941TIP3    H133314   2.128   0.385  15.634 -0.3281 -0.1857  0.6823
 3941TIP3    H233315   2.220   0.503  15.658  0.8022 -0.8286 -0.3846
 3942TIP3   OH233316   6.160   4.153   2.433 -0.5378  0.4996 -0.6867
 3942TIP3    H133317   6.110   4.146   2.352 -0.5348 -0.7115 -0.6057
 3942TIP3    H233318   6.149   4.068   2.475  0.6343  0.6093 -0.1122
 3943TIP3   OH233319   5.022   2.836  13.300 -0.1726  0.5543  0.5655
 3943TIP3    H133320   5.082   2.776  13.343 -0.1454  0.7705  0.8354
 3943TIP3    H233321   4.969   2.781  13.242 -0.8505  0.1043  1.5776
 3944TIP3   OH233322   3.642   4.898   3.942  1.0216 -0.4278  0.2417
 3944TIP3    H133323   3.665   4.893   4.035  2.1377  3.0682  0.3150
 3944TIP3    H233324   3.549   4.922   3.942  0.8547 -1.0584  0.4168
 3945TIP3   OH233325   3.548   3.803   3.092 -0.0315 -0.1163  0.1576
 3945TIP3    H133326   3.497   3.845   3.023  3.1070 -0.5195 -2.6674
 3945TIP3    H233327   3.511   3.715   3.100 -0.4548 -0.0729 -1.1080
 3946TIP3   OH233328   0.469   5.161   0.786  0.3660  0.2432  0.1001
 3946TIP3    H133329   0.469   5.183   0.879 -0.0817  1.8696 -0.2578
 3946TIP3    H233330   0.379   5.136   0.767  0.8325 -1.8602  0.4623
 3947TIP3   OH233331   2.131   4.216  14.461 -0.1142  0.1235 -0.0947
 3947TIP3    H133332   2.131   4.215  14.365  0.8812 -0.8437 -0.1104
 3947TIP3    H233333   2.041   4.239  14.485  0.1048  2.4183 -1.2272
 3948TIP3   OH233334   1.153   4.024  12.666  0.3149 -0.0884  0.1912
 3948TIP3    H133335   1.177   4.110  12.699  0.7118  0.0346 -0.3978
 3948TIP3    H233336   1.061   4.013  12.690  0.8576 -0.4489  2.2519
 3949TIP3   OH233337   0.052   6.180  11.411  0.2480  0.3745 -0.2223
 3949TIP3    H133338   0.090   6.267  11.408 -2.0386  1.4699 -3.7426
 3949TIP3    H233339  -0.043   6.195  11.404 -0.1554 -2.3172 -2.3251
 3950TIP3   OH233340   5.124   0.434   3.297 -0.1970 -0.7295  0.1004
 3950TIP3    H133341   5.170   0.506   3.254 -1.0350 -1.7901 -2.7885
 3950TIP3    H233342   5.037   0.470   3.315 -0.4608 -0.8707 -0.8882
 3951TIP3   OH233343   3.866   6.386   4.006 -0.1356  0.4304 -0.4343
 3951TIP3    H133344   3.955   6.351   4.019 -0.2830  0.8130  2.2570
 3951TIP3    H233345   3.876   6.481   4.018 -0.8447  0.5144 -0.4607
 3952TIP3   OH233346   0.297   2.175  14.080 -0.0412  0.1066 -0.3838
 3952TIP3    H133347   0.251   2.243  14.130 -1.2605 -1.1637  0.2682
 3952TIP3    H233348   0.353   2.132  14.144 -0.6210 -0.6703 -0.3915
 3953TIP3   OH233349   6.382   1.840  10.991 -0.6038  0.0786 -0.5147
 3953TIP3    H133350   6.364   1.747  10.980  1.3323 -0.2851 -1.0788
 3953TIP3    H233351   6.374   1.877  10.903 -1.3499  0.4517 -0.2962
 3954TIP3   OH233352   6.388   0.237   6.118 -0.6700  0.9235 -0.1051
 3954TIP3    H133353   6.303   0.281   6.118  0.4391  3.2399  0.3685
 3954TIP3    H233354   6.448   0.301   6.081  1.0915 -0.1765  0.7110
 3955TIP3   OH233355   0.752   5.681   6.190 -0.1041 -0.2973  0.1572
 3955TIP3    H133356   0.665   5.713   6.169 -0.1555  0.0214  0.8226
 3955TIP3    H233357   0.784   5.741   6.258  1.0463  0.2139 -0.8083
 3956TIP3   OH233358   1.330   6.778   3.458  0.0650  0.5489  0.0064
 3956TIP3    H133359   1.363   6.865   3.478  0.9581  0.3757 -0.6761
 3956TIP3    H233360   1.293   6.786   3.370 -0.6426  0.4381  0.2823
 3957TIP3   OH233361   0.733   5.265   3.443 -0.3021 -0.2165  0.6324
 3957TIP3    H133362   0.786   5.343   3.424 -1.8044  0.9321  0.9970
 3957TIP3    H233363   0.790   5.211   3.498  0.8484  0.5045  0.1947
 3958TIP3   OH233364   3.836   1.472  12.625 -0.0642  0.0425  0.5089
 3958TIP3    H133365   3.815   1.526  12.549  1.2737  0.0757  0.1390
 3958TIP3    H233366   3.772   1.400  12.622  0.7227 -0.6348 -1.3695
 3959TIP3   OH233367   1.098   4.448   2.221 -0.7885 -0.4917 -0.1615
 3959TIP3    H133368   1.004   4.455   2.237 -0.6246 -0.8420  1.1423
 3959TIP3    H233369   1.130   4.395   2.295  0.2692 -1.3313 -1.1903
 3960TIP3   OH233370   6.571   4.915  13.518 -0.2141  0.1007 -0.1693
 3960TIP3    H133371   6.614   4.869  13.591  1.3791  0.1279 -1.0411
 3960TIP3    H233372   6.501   4.856  13.491  1.3130 -1.5593 -0.7644
 3961TIP3   OH233373   0.825   4.671  11.014  0.0068 -0.4182 -0.1851
 3961TIP3    H133374   0.884   4.689  10.940  0.3215  0.0727  0.1806
 3961TIP3    H233375   0.740   4.705  10.985  0.3153  0.5450 -0.0020
 3962TIP3   OH233376   3.235   3.626   4.653 -0.0406  0.2769  0.2746
 3962TIP3    H133377   3.176   3.589   4.719 -0.6756 -1.6901 -1.2900
 3962TIP3    H233378   3.221   3.721   4.659 -1.4161  0.0290  1.7236
 3963TIP3   OH233379   5.200   1.131   2.459  0.6845 -0.8224 -0.0026
 3963TIP3    H133380   5.283   1.132   2.505  1.0956  2.0245 -0.6602
 3963TIP3    H233381   5.219   1.165   2.372 -1.1561 -0.0798 -0.1747
 3964TIP3   OH233382   6.162   5.479  13.436 -0.2491 -0.2480  0.7012
 3964TIP3    H133383   6.086   5.422  13.424 -1.0995  0.0063  4.0310
 3964TIP3    H233384   6.237   5.422  13.421 -1.0242 -0.9455 -0.8421
 3965TIP3   OH233385   3.928   1.548   1.514 -0.3190 -0.0057 -0.0183
 3965TIP3    H133386   3.882   1.465   1.526  0.5833 -0.5272 -0.0867
 3965TIP3    H233387   3.973   1.538   1.431  0.3144  0.3043  0.2862
 3966TIP3   OH233388   4.772   6.454  14.590  0.6046 -0.4684  0.5355
 3966TIP3    H133389   4.862   6.464  14.620  0.3459  1.2803  0.8461
 3966TIP3    H233390   4.748   6.540  14.556 -1.5649 -0.3365  2.2079
 3967TIP3   OH233391   6.399   4.005   5.358 -0.0890 -0.1548 -0.2740
 3967TIP3    H133392   6.407   3.998   5.453 -1.9402  2.7302  0.2620
 3967TIP3    H233393   6.437   3.925   5.324  0.2379 -1.5122  2.9178
 3968TIP3   OH233394   2.192   3.799   1.256  0.0771  0.3584 -0.4404
 3968TIP3    H133395   2.187   3.818   1.350 -0.1942  0.9601 -0.5750
 3968TIP3    H233396   2.286   3.792   1.238  0.1264  0.1826 -0.1139
 3969TIP3   OH233397   6.613   2.561  16.483  0.0694 -0.4473 -0.3226
 3969TIP3    H133398   6.706   2.548  16.466  0.2156  0.1984 -0.0217
 3969TIP3    H233399   6.594   2.506  16.558  0.0887 -0.9806 -0.7013
 3970TIP3   OH233400   5.383   6.190   4.972  0.1905 -1.0410 -0.0873
 3970TIP3    H133401   5.384   6.130   5.046 -1.5972 -1.6094 -0.4754
 3970TIP3    H233402   5.300   6.237   4.980  0.7028  0.0299 -0.8463
 3971TIP3   OH233403   1.901   5.001   2.296  0.3164 -0.1165  0.9722
 3971TIP3    H133404   1.975   5.060   2.308  1.3630 -1.3842  0.8985
 3971TIP3    H233405   1.834   5.056   2.255  1.2081  1.0475  1.0132
 3972TIP3   OH233406   3.036   5.471  14.775  0.2626 -0.3542  0.1245
 3972TIP3    H133407   2.975   5.527  14.728 -1.2938 -0.8354  1.4653
 3972TIP3    H233408   2.982   5.424  14.839  1.8624 -1.6577  0.6145
 3973TIP3   OH233409   6.196   4.128  15.343 -0.2056  0.1018  0.2271
 3973TIP3    H133410   6.193   4.064  15.272  1.0898 -1.1225  1.2068
 3973TIP3    H233411   6.182   4.076  15.423 -2.5427  1.5676  0.8646
 3974TIP3   OH233412   0.232   1.158   0.839  0.1634  0.1561  0.0986
 3974TIP3    H133413   0.258   1.250   0.830  0.3697  0.1540  0.6671
 3974TIP3    H233414   0.314   1.110   0.853  0.0214 -0.0686  0.1697
 3975TIP3   OH233415   6.635   2.240   4.179  0.5905  0.2157 -0.2815
 3975TIP3    H133416   6.663   2.168   4.122 -0.8145  1.1185 -2.2422
 3975TIP3    H233417   6.680   2.317   4.144  1.3582  0.4717  1.2104
 3976TIP3   OH233418   6.280   1.975  11.942  0.2248  0.2983  0.0276
 3976TIP3    H133419   6.337   2.003  12.014  2.0731  2.1798 -1.9795
 3976TIP3    H233420   6.341   1.943  11.875 -1.3713 -0.9258 -0.9051
 3977TIP3   OH233421   3.395   1.170   6.108  0.1043 -0.1125  0.2595
 3977TIP3    H133422   3.414   1.083   6.074 -0.4042  0.2862 -1.1088
 3977TIP3    H233423   3.315   1.159   6.160 -0.8346 -0.2051 -1.1577
 3978TIP3   OH233424   3.304   5.155  12.436 -0.6601  0.0980 -0.1314
 3978TIP3    H133425   3.358   5.135  12.513 -0.4841 -1.6102 -0.6572
 3978TIP3    H233426   3.220   5.113  12.454 -1.1681  1.0580 -0.1919
 3979TIP3   OH233427   3.874   3.751   0.024  0.2477 -0.2775 -0.5718
 3979TIP3    H133428   3.952   3.700   0.004  0.2934 -0.7420  0.7119
 3979TIP3    H233429   3.802   3.700  -0.012  0.3540 -0.9411  0.1384
 3980TIP3   OH233430   5.094   5.273  15.452 -0.0467  0.1759 -0.2756
 3980TIP3    H133431   5.115   5.266  15.544 -0.2260 -1.7988 -0.3358
 3980TIP3    H233432   5.097   5.366  15.433  0.1405  0.6004  1.6775
 3981TIP3   OH233433   5.130   3.791   5.370 -0.0821 -0.2699  0.4427
 3981TIP3    H133434   5.220   3.782   5.403 -0.4392 -0.1356  1.4860
 3981TIP3    H233435   5.141   3.823   5.281  0.9425 -1.3572  0.1428
 3982TIP3   OH233436   3.472   5.156   1.056  0.0873  0.2929  0.5977
 3982TIP3    H133437   3.401   5.163   1.120 -0.4915  0.0519 -0.0136
 3982TIP3    H233438   3.552   5.163   1.109 -0.3844  0.6262  1.2836
 3983TIP3   OH233439   6.461   5.809   3.823 -0.3264  0.3535 -0.0370
 3983TIP3    H133440   6.435   5.858   3.901 -2.0400  0.3804 -0.5980
 3983TIP3    H233441   6.508   5.873   3.769 -0.0007  0.5927  0.5198
 3984TIP3   OH233442   0.738   4.877   2.700  0.0306 -0.3570  1.1427
 3984TIP3    H133443   0.703   4.808   2.757 -0.9511 -0.2119  0.7369
 3984TIP3    H233444   0.709   4.852   2.612  0.8090 -0.1269  0.8129
 3985TIP3   OH233445   2.057   3.670   2.485 -0.2856  0.0231 -0.2408
 3985TIP3    H133446   2.090   3.592   2.440  0.8806  0.5566 -0.3529
 3985TIP3    H233447   2.085   3.743   2.429 -1.0085  0.5443  0.0648
 3986TIP3   OH233448   0.852   2.934   3.062  0.1300  0.2304 -0.1811
 3986TIP3    H133449   0.813   2.987   3.131  0.5298 -0.6866  0.7785
 3986TIP3    H233450   0.798   2.855   3.060  0.7150 -0.1742 -0.2361
 3987TIP3   OH233451   4.353   0.679  10.825 -0.4923 -0.5106 -0.2078
 3987TIP3    H133452   4.398   0.600  10.796  3.0300  1.1286  0.3263
 3987TIP3    H233453   4.339   0.729  10.745  0.2198 -0.2974 -0.2060
 3988TIP3   OH233454   3.256   5.255   2.918 -0.1150  0.3996  0.2228
 3988TIP3    H133455   3.349   5.255   2.896 -0.0984  1.7146  0.1792
 3988TIP3    H233456   3.234   5.348   2.925 -1.6918  0.1485 -0.9278
 3989TIP3   OH233457   3.672   0.145  14.620 -0.4180 -0.3967 -0.1655
 3989TIP3    H133458   3.760   0.109  14.634 -0.9974 -4.0541 -3.8007
 3989TIP3    H233459   3.616   0.095  14.679 -0.3554  0.0841  0.3025
 3990TIP3   OH233460   1.979   2.091   4.677 -0.0709 -0.0643 -0.3438
 3990TIP3    H133461   2.000   2.129   4.763 -0.8173  1.3279 -0.7416
 3990TIP3    H233462   2.051   2.120   4.621 -0.4268  0.4447 -0.5504
 3991TIP3   OH233463   0.862   2.404  15.959  0.2701 -0.2236 -0.1898
 3991TIP3    H133464   0.850   2.418  16.053 -1.9164 -0.5276 -0.3582
 3991TIP3    H233465   0.947   2.443  15.939 -0.5343  2.5932  1.3788
 3992TIP3   OH233466   6.578   5.339   0.520 -0.3866 -0.2081  0.2964
 3992TIP3    H133467   6.593   5.374   0.432  0.3736  0.8314  0.8257
 3992TIP3    H233468   6.486   5.313   0.520 -0.6221  0.5975 -0.5336
 3993TIP3   OH233469   4.262   2.322   3.406  0.2787 -0.6666  0.2574
 3993TIP3    H133470   4.324   2.259   3.442  0.7549 -0.3047  0.0793
 3993TIP3    H233471   4.302   2.408   3.422  0.0257 -0.4515 -0.2260
 3994TIP3   OH233472   4.861   3.236   4.967  0.8131 -0.5394  0.3891
 3994TIP3    H133473   4.796   3.234   4.897  0.1709 -1.3011  0.9858
 3994TIP3    H233474   4.811   3.219   5.047  1.7760 -1.3315  0.8416
 3995TIP3   OH233475   2.277   4.363  13.251  0.1935 -0.3398 -0.1097
 3995TIP3    H133476   2.324   4.439  13.285  0.7283 -1.6621  2.3184
 3995TIP3    H233477   2.345   4.299  13.232 -0.4011 -1.1481  0.4270
 3996TIP3   OH233478   2.910   1.472  15.776  0.1120  0.1472  0.3852
 3996TIP3    H133479   2.939   1.408  15.711 -0.1098 -0.6972  1.1008
 3996TIP3    H233480   2.842   1.427  15.825  0.7674  0.5082  1.6683
 3997TIP3   OH233481   3.937   3.754   4.378 -0.2197 -0.3827 -0.6002
 3997TIP3    H133482   3.918   3.836   4.332  2.5300  0.1873 -0.9148
 3997TIP3    H233483   3.929   3.775   4.471 -0.2005  0.0385 -0.6933
 3998TIP3   OH233484   1.854   0.313  12.484  0.2557  0.3740 -0.5704
 3998TIP3    H133485   1.855   0.376  12.412  0.1426  0.7617 -0.2338
 3998TIP3    H233486   1.880   0.363  12.561  0.3815 -0.0402 -0.3383
 3999TIP3   OH233487   1.129   3.104  12.642  0.4727 -0.3268  0.1629
 3999TIP3    H133488   1.073   3.172  12.605 -0.0596 -1.5836 -1.4439
 3999TIP3    H233489   1.132   3.123  12.736 -2.3683 -0.0067  0.2591
 4000TIP3   OH233490   6.306   4.903   3.266 -0.0093 -0.4484 -0.2427
 4000TIP3    H133491   6.385   4.865   3.228 -0.0061  1.6550 -2.6613
 4000TIP3    H233492   6.234   4.852   3.228  0.0475  0.9811 -2.4994
 4001TIP3   OH233493   6.616   3.489  16.489  0.6274 -0.0434  0.0654
 4001TIP3    H133494   6.601   3.429  16.562  1.9703  3.6875  3.8193
 4001TIP3    H233495   6.709   3.480  16.469  0.8052  0.5754  0.5546
 4002TIP3   OH233496   6.805   2.589   5.034  0.1025 -0.1121  0.1501
 4002TIP3    H133497   6.836   2.658   5.093  2.3159 -1.3498  0.5673
 4002TIP3    H233498   6.782   2.516   5.091  1.9402 -1.2057 -0.4118
 4003TIP3   OH233499   3.040   0.970   5.966 -0.1338 -0.4071  1.0677
 4003TIP3    H133500   2.998   0.884   5.968  0.4834 -0.8530 -1.3356
 4003TIP3    H233501   3.127   0.952   5.931  0.0155  1.1898  0.5664
 4004TIP3   OH233502   6.522   2.429  15.740  0.1203 -0.3275 -0.6182
 4004TIP3    H133503   6.559   2.447  15.827  1.2452  0.1386 -1.1695
 4004TIP3    H233504   6.543   2.507  15.689 -0.5146 -0.6066 -1.3282
 4005TIP3   OH233505   1.499   0.209   1.321  0.6396 -0.1237  0.4315
 4005TIP3    H133506   1.458   0.129   1.287  0.4588  0.4742 -0.8213
 4005TIP3    H233507   1.498   0.269   1.247  2.0032  0.5898  0.9570
 4006TIP3   OH233508   3.664   5.605   4.946 -0.1391  0.6009  0.1787
 4006TIP3    H133509   3.603   5.677   4.960 -0.6789  0.4564 -1.2721
 4006TIP3    H233510   3.616   5.527   4.974 -0.3189  0.5856 -0.1617
 4007TIP3   OH233511   6.097   6.095  10.422  0.2129  0.4692  0.0659
 4007TIP3    H133512   6.173   6.068  10.473 -1.7166  0.6538  3.3368
 4007TIP3    H233513   6.038   6.019  10.425 -1.0049  1.3948  0.3732
 4008TIP3   OH233514   4.311   5.119   0.923 -0.1370  0.4013  0.4829
 4008TIP3    H133515   4.354   5.049   0.972 -0.9871  0.4225  1.2785
 4008TIP3    H233516   4.283   5.181   0.990 -2.3301 -0.1092  0.1080
 4009TIP3   OH233517   0.109   6.227   0.777  0.7886 -0.0850 -0.3803
 4009TIP3    H133518   0.164   6.292   0.821  1.9772 -1.2745 -0.0429
 4009TIP3    H233519   0.161   6.197   0.703  0.9177 -1.7200  0.3320
 4010TIP3   OH233520   0.779   3.040  15.031 -0.9825  0.5365 -0.6479
 4010TIP3    H133521   0.828   3.058  14.951  0.6382 -0.9840 -0.0660
 4010TIP3    H233522   0.741   2.953  15.016 -1.0863  0.4651  0.0191
 4011TIP3   OH233523   6.779   5.638   3.699 -0.1390  0.3266  0.8002
 4011TIP3    H133524   6.819   5.573   3.641 -1.5195  0.8262 -0.7911
 4011TIP3    H233525   6.699   5.596   3.729  0.2957  0.2910  1.9448
 4012TIP3   OH233526   5.233   6.212   0.452  0.4478 -0.2917 -0.1236
 4012TIP3    H133527   5.155   6.168   0.420  0.1500 -0.6047  0.9784
 4012TIP3    H233528   5.249   6.174   0.538  1.2725  0.4312  0.0657
 4013TIP3   OH233529   6.128   3.652   2.288 -1.1065 -0.3139  0.2751
 4013TIP3    H133530   6.136   3.720   2.221  1.3913 -0.8417 -0.0610
 4013TIP3    H233531   6.157   3.572   2.244 -1.2802 -1.0548  1.4766
 4014TIP3   OH233532   0.127   5.495   3.238 -0.2589  0.4023  0.2979
 4014TIP3    H133533   0.181   5.551   3.181  4.0950 -3.3491  0.1918
 4014TIP3    H233534   0.076   5.441   3.178 -0.2937  0.5170  0.2236
 4015TIP3   OH233535   3.549   5.668  13.974  0.2161 -1.0103  0.1167
 4015TIP3    H133536   3.535   5.663  13.880  1.1446 -0.9633 -0.0262
 4015TIP3    H233537   3.643   5.658  13.986  0.1274 -0.8912  1.0319
 4016TIP3   OH233538   6.143   6.685   5.065  0.0692  0.4639 -0.4414
 4016TIP3    H133539   6.082   6.756   5.087 -1.6219 -0.8816 -0.5756
 4016TIP3    H233540   6.086   6.609   5.050  1.8854 -1.1823  0.7116
 4017TIP3   OH233541   0.366   5.981  12.560  0.4022 -0.1360 -0.2662
 4017TIP3    H133542   0.288   5.938  12.593  0.7588 -1.5970 -1.2308
 4017TIP3    H233543   0.338   6.024  12.479 -0.2415  2.6023  1.3002
 4018TIP3   OH233544   0.268   0.109  15.625 -0.1293 -0.0991  0.0430
 4018TIP3    H133545   0.232   0.108  15.536 -0.4870 -2.3951  0.1692
 4018TIP3    H233546   0.266   0.018  15.653 -0.9962  0.6795  2.8286
 4019TIP3   OH233547   6.804   5.766   4.116  0.2284 -0.1463 -0.9029
 4019TIP3    H133548   6.760   5.682   4.131 -0.6568  0.1247 -1.8812
 4019TIP3    H233549   6.808   5.807   4.202  1.8595 -1.7410 -0.1538
 4020TIP3   OH233550   3.631   4.830  13.465 -0.0474  0.8155 -0.2978
 4020TIP3    H133551   3.661   4.838  13.374  0.0452  2.3904 -0.1478
 4020TIP3    H233552   3.703   4.785  13.510  2.5969  4.9753  0.1797
 4021TIP3   OH233553   1.905   1.211  16.547  0.1600  0.4893  0.1488
 4021TIP3    H133554   1.999   1.223  16.537  0.0077  1.2730 -0.3967
 4021TIP3    H233555   1.888   1.122  16.515  0.9717 -0.4344  2.0454
 4022TIP3   OH233556   2.736   6.434  16.854  0.2504 -0.3264  0.3281
 4022TIP3    H133557   2.705   6.451  16.942 -1.7326 -1.3214 -0.1219
 4022TIP3    H233558   2.656   6.427  16.801  1.3855  1.3201 -1.7664
 4023TIP3   OH233559   4.789   6.459   2.803  0.2444 -0.0197 -0.6169
 4023TIP3    H133560   4.728   6.446   2.731 -0.8467 -0.2381  0.3108
 4023TIP3    H233561   4.791   6.374   2.848  0.8569  0.1285 -0.3470
 4024TIP3   OH233562   4.001   1.284  14.089  0.3045  0.2480  0.2093
 4024TIP3    H133563   4.043   1.329  14.163  1.0802  0.8447 -0.5626
 4024TIP3    H233564   4.069   1.227  14.054  0.0584  0.2447 -0.2685
 4025TIP3   OH233565   4.484   5.654  13.232  0.2483 -0.2258  0.2193
 4025TIP3    H133566   4.513   5.745  13.230  0.8584 -0.3819  1.1441
 4025TIP3    H233567   4.407   5.654  13.288 -0.7865 -0.0257 -1.1567
 4026TIP3   OH233568   4.354   4.145  14.539 -0.6067 -0.2966 -0.2561
 4026TIP3    H133569   4.307   4.223  14.570 -1.5889  0.3033 -2.9747
 4026TIP3    H233570   4.315   4.073  14.588  0.4117  0.8287  2.4268
 4027TIP3   OH233571   5.799   3.666  11.341 -0.2459 -0.0365 -0.2681
 4027TIP3    H133572   5.864   3.628  11.282  0.9817 -0.5055  1.3048
 4027TIP3    H233573   5.725   3.606  11.338 -0.0268 -0.2834 -0.9787
 4028TIP3   OH233574   0.701   0.152   4.643  0.4405 -0.0044 -0.5083
 4028TIP3    H133575   0.618   0.128   4.684  1.4653  0.6050  2.1566
 4028TIP3    H233576   0.677   0.211   4.572 -1.4203  0.1720  0.2096
 4029TIP3   OH233577   1.901   2.850   5.521 -0.2240 -0.2109  0.2223
 4029TIP3    H133578   1.881   2.930   5.473  1.0475  0.1540  0.2572
 4029TIP3    H233579   1.985   2.821   5.485  0.2496 -0.4953  1.5159
 4030TIP3   OH233580   5.402   3.422   4.436 -0.3618  0.1630  0.2333
 4030TIP3    H133581   5.312   3.398   4.412 -0.2030 -0.5606  0.3294
 4030TIP3    H233582   5.444   3.339   4.456  1.2106  0.0864 -2.7138
 4031TIP3   OH233583   5.477   0.451  11.704 -0.2324  0.5079  0.3506
 4031TIP3    H133584   5.474   0.547  11.707 -0.2424  0.6810 -2.1904
 4031TIP3    H233585   5.414   0.428  11.635 -0.1350 -1.3149  0.8368
 4032TIP3   OH233586   5.729   0.984  10.969 -0.1626 -0.3910  0.0799
 4032TIP3    H133587   5.765   1.020  10.888  1.1789  1.2160  1.3093
 4032TIP3    H233588   5.640   1.020  10.973  0.1126  0.3525 -0.1987
 4033TIP3   OH233589   0.483   2.322  15.600 -0.3342 -0.0912 -0.5585
 4033TIP3    H133590   0.472   2.384  15.528  0.4445 -0.1474 -0.7360
 4033TIP3    H233591   0.442   2.241  15.568  0.4086 -0.2521 -1.1354
 4034TIP3   OH233592   0.192   6.650  14.036  0.0936 -0.0948  0.5922
 4034TIP3    H133593   0.253   6.586  14.000 -0.2466 -1.2470  1.9562
 4034TIP3    H233594   0.108   6.604  14.037 -0.0708  0.1958  1.9867
 4035TIP3   OH233595   6.665   1.898   1.050 -0.6196 -0.2761  0.0595
 4035TIP3    H133596   6.629   1.984   1.073 -0.2691 -0.2183  0.3921
 4035TIP3    H233597   6.706   1.867   1.131  3.1076  1.1148 -1.0945
 4036TIP3   OH233598   1.406   3.935  16.465 -0.1148  0.0653 -0.3102
 4036TIP3    H133599   1.396   3.972  16.553 -2.1249  0.7002 -0.7498
 4036TIP3    H233600   1.412   3.840  16.480  0.5279  0.2298  0.5560
 4037TIP3   OH233601   0.121   1.398   1.717  0.3280  0.6047  0.9813
 4037TIP3    H133602   0.110   1.493   1.722  1.2065  0.7020  1.2848
 4037TIP3    H233603   0.079   1.365   1.797 -3.4684  0.3349 -0.8888
 4038TIP3   OH233604   0.925   6.801   4.853  0.6106  0.0898 -0.1450
 4038TIP3    H133605   0.942   6.709   4.871  2.7577  0.0200 -1.9947
 4038TIP3    H233606   0.869   6.801   4.776  0.1788  0.3337  0.1670
 4039TIP3   OH233607   4.902   6.606  11.239  0.7101  0.6254 -0.1339
 4039TIP3    H133608   4.844   6.547  11.286 -0.1907  0.7974 -1.0128
 4039TIP3    H233609   4.878   6.596  11.147  1.9181  0.8706 -0.5005
 4040TIP3   OH233610   2.698   6.824   1.603  0.3241 -0.3368 -0.1669
 4040TIP3    H133611   2.759   6.777   1.546  0.6455  1.4928 -1.4141
 4040TIP3    H233612   2.619   6.835   1.551 -0.9169 -2.1576  1.2284
 4041TIP3   OH233613   6.064   3.404   0.462  0.2958 -0.0507  0.1347
 4041TIP3    H133614   6.149   3.395   0.420  0.7074  1.1421  0.6625
 4041TIP3    H233615   6.019   3.471   0.410  0.0221 -0.0514  0.3694
 4042TIP3   OH233616   4.477   2.077  13.499 -0.6323  0.2497  0.1153
 4042TIP3    H133617   4.424   2.042  13.428  0.2389  0.5560 -0.7053
 4042TIP3    H233618   4.414   2.117  13.559 -1.5116 -1.3096  0.2806
 4043TIP3   OH233619   3.667   3.049  11.783  0.0126 -0.0582  0.0184
 4043TIP3    H133620   3.698   3.035  11.873  0.7107  0.0137 -0.2079
 4043TIP3    H233621   3.720   3.121  11.751 -2.4172  2.1738  0.6343
 4044TIP3   OH233622   4.060   2.182   3.569 -0.5910  0.0597  0.1200
 4044TIP3    H133623   4.111   2.201   3.490 -1.8960 -0.3141 -0.8444
 4044TIP3    H233624   4.061   2.086   3.575  0.6397  0.1088  1.3686
 4045TIP3   OH233625   1.080   0.991   2.574 -0.2595 -0.3067  0.1254
 4045TIP3    H133626   1.158   1.047   2.580 -0.9271  0.7262 -0.4019
 4045TIP3    H233627   1.011   1.042   2.617 -1.0166 -0.4707 -0.8464
 4046TIP3   OH233628   1.715   2.161  14.156  0.0319 -0.5242 -0.1925
 4046TIP3    H133629   1.640   2.103  14.165  0.5888 -1.1728  0.4831
 4046TIP3    H233630   1.721   2.205  14.241  0.0985 -0.0643 -0.4282
 4047TIP3   OH233631   4.549   5.737   5.763 -0.0671 -0.0890  0.3637
 4047TIP3    H133632   4.465   5.727   5.808 -0.8147  1.5275 -0.5962
 4047TIP3    H233633   4.590   5.813   5.804 -0.0044  0.3747 -0.5319
 4048TIP3   OH233634   0.101   2.126   5.147 -0.1542 -1.0088  0.4574
 4048TIP3    H133635   0.099   2.122   5.243  3.5226 -0.8611  0.6793
 4048TIP3    H233636   0.069   2.213   5.126  1.9274  0.2149  1.8844
 4049TIP3   OH233637   1.793   1.083  17.006 -0.5008  0.4378 -0.2607
 4049TIP3    H133638   1.782   1.036  16.923  0.7924  0.8469 -0.6964
 4049TIP3    H233639   1.799   1.175  16.979  2.7782  0.3758 -0.0634
 4050TIP3   OH233640   5.125   3.932   1.352 -0.0882  0.1447  0.1910
 4050TIP3    H133641   5.110   3.838   1.360 -0.0529  0.2247  1.2995
 4050TIP3    H233642   5.202   3.940   1.295  1.6076 -0.6074  2.2647
 4051TIP3   OH233643   1.910   4.259  14.646  0.6436  0.1519  0.3604
 4051TIP3    H133644   1.963   4.189  14.683 -0.4821 -0.8555  0.1317
 4051TIP3    H233645   1.842   4.276  14.711 -0.1726 -0.2537 -0.3652
 4052TIP3   OH233646   2.388   1.918   0.396 -0.4178  0.3217 -0.5723
 4052TIP3    H133647   2.377   1.923   0.491 -0.9883  0.6407 -0.6568
 4052TIP3    H233648   2.477   1.950   0.381 -1.0338  2.2572 -0.3282
 4053TIP3   OH233649   5.133   6.464  15.618 -0.5145  0.0808 -0.4030
 4053TIP3    H133650   5.148   6.543  15.670  0.9896 -1.0826  1.0083
 4053TIP3    H233651   5.053   6.426  15.655 -0.0851 -0.1391  0.3099
 4054TIP3   OH233652   1.541   2.098   2.066  0.4190  0.7681  0.3569
 4054TIP3    H133653   1.567   2.177   2.114  0.1977  2.0395 -1.5085
 4054TIP3    H233654   1.520   2.130   1.978 -1.3084 -1.1348  0.0185
 4055TIP3   OH233655   6.260   4.490  12.294  0.1547 -0.5187 -0.3338
 4055TIP3    H133656   6.221   4.569  12.331  0.1250 -0.4705 -0.4663
 4055TIP3    H233657   6.323   4.461  12.359 -0.0332 -0.5418 -0.1622
 4056TIP3   OH233658   4.732   3.066  15.443  0.1823  0.6150  0.2371
 4056TIP3    H133659   4.685   2.984  15.459 -0.8288  1.1090 -0.1391
 4056TIP3    H233660   4.710   3.089  15.353 -0.7164  2.0244  0.7709
 4057TIP3   OH233661   1.419   1.857   3.191  0.3890  0.5430 -0.0850
 4057TIP3    H133662   1.351   1.924   3.203  0.3468  0.4726  0.0680
 4057TIP3    H233663   1.463   1.882   3.110  1.7895  2.0188  1.0487
 4058TIP3   OH233664   6.167   2.069  15.018 -0.3545 -0.1979  0.0808
 4058TIP3    H133665   6.238   2.011  15.042  0.8771  1.1914 -0.0282
 4058TIP3    H233666   6.130   2.098  15.102 -0.0987 -0.1229  0.1690
 4059TIP3   OH233667   0.999   6.512  13.220 -0.3455 -0.4178 -0.3649
 4059TIP3    H133668   0.921   6.455  13.222  0.7185 -1.9427 -0.5213
 4059TIP3    H233669   0.997   6.551  13.132 -2.1423  1.3918  0.4035
 4060TIP3   OH233670   3.970   3.295   5.506  0.8917 -1.1625  0.0840
 4060TIP3    H133671   4.029   3.352   5.556 -0.6555 -0.0472  0.6896
 4060TIP3    H233672   3.914   3.255   5.572  1.3754 -2.7492 -0.4281
 4061TIP3   OH233673   5.575   6.398  11.092  0.3553  0.0536  0.6775
 4061TIP3    H133674   5.557   6.459  11.163  1.5404  0.4637  0.6545
 4061TIP3    H233675   5.589   6.454  11.015 -0.2195 -0.3462  0.2686
 4062TIP3   OH233676   6.485   1.585   3.402 -0.0206  0.2494 -0.6169
 4062TIP3    H133677   6.531   1.667   3.421 -0.0661  0.5538 -1.7357
 4062TIP3    H233678   6.473   1.544   3.488 -0.6468  1.7476  0.0541
 4063TIP3   OH233679   3.474   2.396  12.260 -0.1078 -0.0210 -0.4019
 4063TIP3    H133680   3.547   2.340  12.287  0.3470  0.9129  0.3752
 4063TIP3    H233681   3.399   2.364  12.310  0.1450  0.0309  0.0191
 4064TIP3   OH233682   1.446   1.164  14.251 -0.7900  0.4838 -0.9095
 4064TIP3    H133683   1.453   1.093  14.188  1.5471  0.8504 -1.1660
 4064TIP3    H233684   1.352   1.183  14.256 -1.4969 -2.5237 -0.8691
 4065TIP3   OH233685   1.707   6.590  14.009 -0.8716  0.1716  0.1417
 4065TIP3    H133686   1.680   6.672  14.051 -1.4473  0.5611 -0.9581
 4065TIP3    H233687   1.687   6.603  13.916 -0.2371 -0.9222 -0.1593
 4066TIP3   OH233688   4.263   1.152  14.210 -0.0389 -0.2935  0.6582
 4066TIP3    H133689   4.328   1.170  14.278  0.4737  0.8013 -0.0740
 4066TIP3    H233690   4.204   1.087  14.248  1.9998 -2.0272  1.0427
 4067TIP3   OH233691   3.976   3.843   0.360 -0.4891  0.4127 -0.0762
 4067TIP3    H133692   4.046   3.812   0.302  0.3802  1.4943  0.3641
 4067TIP3    H233693   3.905   3.781   0.346  0.5970 -0.8010 -0.4508
 4068TIP3   OH233694   0.352   3.781  13.718 -0.4167 -0.5419 -0.1135
 4068TIP3    H133695   0.317   3.824  13.796 -1.8026 -0.2003 -0.9048
 4068TIP3    H233696   0.281   3.782  13.655  1.3427  1.2405 -2.2311
 4069TIP3   OH233697   5.593   1.207   4.179  0.0030 -0.3872  0.3095
 4069TIP3    H133698   5.578   1.295   4.215  1.2715  0.1248 -0.3625
 4069TIP3    H233699   5.686   1.205   4.157  0.5883 -2.7633  2.5255
 4070TIP3   OH233700   4.804   1.435   4.768 -0.5528  0.3006 -0.2468
 4070TIP3    H133701   4.803   1.517   4.719 -1.5613  1.3387  1.4074
 4070TIP3    H233702   4.712   1.408   4.771 -0.4668  0.0965  0.7991
 4071TIP3   OH233703   2.533   5.269  11.779 -0.0581  0.1708  0.0518
 4071TIP3    H133704   2.611   5.314  11.746 -0.4924 -0.0296 -1.3015
 4071TIP3    H233705   2.563   5.220  11.856  1.1718 -0.0143 -0.5367
 4072TIP3   OH233706   4.351   5.479  10.560  1.0225  0.2313 -0.6551
 4072TIP3    H133707   4.373   5.505  10.471 -1.0549  1.1713 -0.9584
 4072TIP3    H233708   4.256   5.488  10.565  0.9227 -1.2063  1.2342
 4073TIP3   OH233709   2.761   1.264   5.207  0.0554  0.2560  0.6864
 4073TIP3    H133710   2.681   1.212   5.216  1.6730 -2.6077 -0.1681
 4073TIP3    H233711   2.757   1.299   5.118 -0.1779 -0.0627  0.5687
 4074TIP3   OH233712   6.167   4.082   5.591 -0.2080 -0.1142 -0.1179
 4074TIP3    H133713   6.229   4.013   5.615  0.8387  0.7437 -0.3385
 4074TIP3    H233714   6.221   4.156   5.564 -1.3222  0.3462 -1.2127
 4075TIP3   OH233715   4.536   2.539   2.618  0.1513  0.4699 -0.4642
 4075TIP3    H133716   4.558   2.450   2.644 -0.8323  0.7066  1.3567
 4075TIP3    H233717   4.588   2.594   2.677 -0.3584  1.0675 -0.5592
 4076TIP3   OH233718   0.252   0.639  13.853 -0.5278  0.7525  0.7445
 4076TIP3    H133719   0.238   0.662  13.762 -2.1546  0.8984  1.0031
 4076TIP3    H233720   0.296   0.715  13.891  2.4536 -0.2456 -0.3984
 4077TIP3   OH233721   2.296   1.877  11.286 -0.1150  0.9043  0.0922
 4077TIP3    H133722   2.329   1.949  11.232  1.4391 -0.2700 -0.6217
 4077TIP3    H233723   2.373   1.847  11.334 -0.0702 -1.9042 -1.5434
 4078TIP3   OH233724   1.171   3.624  15.678 -0.2801  0.8936 -0.2318
 4078TIP3    H133725   1.237   3.561  15.706 -0.2958  0.7095 -0.5983
 4078TIP3    H233726   1.155   3.602  15.586 -2.2750 -0.3530  0.3418
 4079TIP3   OH233727   4.081   6.820  11.691  0.6447 -0.3090 -0.4162
 4079TIP3    H133728   3.999   6.791  11.652  0.3273 -0.3225  0.2476
 4079TIP3    H233729   4.061   6.905  11.729  0.2084 -1.4030  1.9995
 4080TIP3   OH233730   1.344   2.151  12.304 -0.1562  0.1147  0.1889
 4080TIP3    H133731   1.434   2.166  12.333 -0.0599 -1.6178  0.8903
 4080TIP3    H233732   1.306   2.095  12.372 -1.5405  0.2088 -0.4764
 4081TIP3   OH233733   4.759   3.153   4.200 -0.1534 -0.2596 -0.0907
 4081TIP3    H133734   4.682   3.097   4.191 -1.2199  1.1559 -0.1425
 4081TIP3    H233735   4.762   3.175   4.293  2.1338 -2.8651  0.6059
 4082TIP3   OH233736   0.680   0.154  14.625 -0.0415  0.2006 -0.0453
 4082TIP3    H133737   0.630   0.081  14.662 -0.8269 -0.1412 -1.7088
 4082TIP3    H233738   0.756   0.162  14.683 -0.7407 -0.8905  1.0914
 4083TIP3   OH233739   6.156   3.803   5.876 -0.1067  0.1720  0.4698
 4083TIP3    H133740   6.115   3.771   5.795 -0.7373 -1.3949  1.3588
 4083TIP3    H233741   6.109   3.757   5.946  2.3804 -0.8201  1.5894
 4084TIP3   OH233742   3.012   4.013  14.596 -0.0071  0.1400 -0.3927
 4084TIP3    H133743   3.060   4.009  14.513  3.2397 -0.3129  1.3227
 4084TIP3    H233744   2.965   3.930  14.601 -1.6068  0.8578 -2.4376
 4085TIP3   OH233745   3.422   6.050  13.529  0.1975  0.4082  0.5753
 4085TIP3    H133746   3.405   6.121  13.591  1.3668  1.1685  0.0567
 4085TIP3    H233747   3.460   6.093  13.453 -1.1271 -0.5270 -0.6595
 4086TIP3   OH233748   3.356   4.223  12.463 -0.0320 -0.2330  0.0579
 4086TIP3    H133749   3.394   4.302  12.426 -0.0164 -0.3214 -0.1164
 4086TIP3    H233750   3.297   4.255  12.532  1.6796 -0.1640  1.5633
 4087TIP3   OH233751   6.574   6.046  10.556 -0.2730 -0.0415  0.0857
 4087TIP3    H133752   6.620   6.109  10.500 -0.9835  1.0395  0.6893
 4087TIP3    H233753   6.636   6.030  10.628  0.0222 -0.2379 -0.2115
 4088TIP3   OH233754   1.580   3.937  15.465 -0.3793 -0.1438 -0.3826
 4088TIP3    H133755   1.621   3.859  15.428  1.3238 -0.0034  1.0762
 4088TIP3    H233756   1.514   3.903  15.525 -0.4420 -0.4306 -0.6113
 4089TIP3   OH233757   3.014   6.573   5.550  0.1562  0.9983 -0.4332
 4089TIP3    H133758   2.922   6.600   5.555 -0.6761 -1.6333  0.2211
 4089TIP3    H233759   3.033   6.568   5.457 -0.8679  0.1524 -0.6156
 4090TIP3   OH233760   1.200   2.577  15.568 -0.2211 -0.5770  0.0879
 4090TIP3    H133761   1.176   2.669  15.572  1.2866  0.0027 -2.3683
 4090TIP3    H233762   1.226   2.555  15.658  0.4640  1.7115  0.5107
 4091TIP3   OH233763   0.475   3.883   4.253  0.0408  0.0330 -0.4496
 4091TIP3    H133764   0.399   3.940   4.255  0.8277  1.1578 -1.1655
 4091TIP3    H233765   0.549   3.940   4.277  0.6706 -0.9974  0.1259
 4092TIP3   OH233766   6.209   1.588   1.641 -0.4200  0.1232 -0.3807
 4092TIP3    H133767   6.252   1.604   1.557 -0.9854 -0.1012 -0.7234
 4092TIP3    H233768   6.205   1.492   1.648 -0.7490  0.1405 -0.3024
 4093TIP3   OH233769   5.846   4.755  15.265  0.2897  0.0255  0.6490
 4093TIP3    H133770   5.918   4.771  15.203  0.0624 -2.0493 -0.2453
 4093TIP3    H233771   5.791   4.691  15.221 -2.3779  1.8198  1.1513
 4094TIP3   OH233772   3.033   1.554  14.419  0.0850  0.2158 -0.2266
 4094TIP3    H133773   3.055   1.464  14.439 -1.1046  0.0344  0.3563
 4094TIP3    H233774   2.973   1.548  14.344 -1.4147  0.3639  0.9103
 4095TIP3   OH233775   2.137   6.641  15.849 -0.1393 -0.5403 -0.4251
 4095TIP3    H133776   2.158   6.732  15.827 -1.1667  0.0615  0.9910
 4095TIP3    H233777   2.110   6.602  15.766 -0.7750  0.7577 -0.8393
 4096TIP3   OH233778   5.289   1.918   3.808  0.2470  0.8563 -0.5688
 4096TIP3    H133779   5.309   1.887   3.897  0.0370 -0.3024 -0.9141
 4096TIP3    H233780   5.369   1.902   3.759 -0.0050  0.4442 -0.8522
 4097TIP3   OH233781   6.177   5.849  15.329  0.3803 -0.1727 -0.7784
 4097TIP3    H133782   6.101   5.874  15.276  0.3097  0.5455 -0.3441
 4097TIP3    H233783   6.252   5.873  15.275  0.3048 -0.0441 -0.8279
 4098TIP3   OH233784   2.350   4.951   0.031  0.1629 -0.5260 -0.2590
 4098TIP3    H133785   2.359   4.907  -0.053 -1.7971 -2.1906  0.3258
 4098TIP3    H233786   2.275   5.009   0.021  0.8142  0.3927 -0.0528
 4099TIP3   OH233787   3.906   1.694   2.114  0.4865 -0.2290 -0.3164
 4099TIP3    H133788   3.820   1.662   2.141  0.7085 -0.1528  0.4868
 4099TIP3    H233789   3.936   1.630   2.049  0.0799 -0.5766 -0.1643
 4100TIP3   OH233790   6.728   6.401   3.181  0.0270  0.1397  0.0890
 4100TIP3    H133791   6.644   6.432   3.146  0.1039 -0.2623 -0.4601
 4100TIP3    H233792   6.791   6.466   3.152  0.1515 -0.3882 -0.8679
 4101TIP3   OH233793   0.029   1.690  12.965  0.2876 -0.1094 -0.0772
 4101TIP3    H133794   0.012   1.781  12.990  0.6469 -0.1658  0.3718
 4101TIP3    H233795  -0.015   1.680  12.880 -0.0910  0.3647  0.0629
 4102TIP3   OH233796   3.392   1.160   2.591  0.5456 -0.2764  0.0769
 4102TIP3    H133797   3.344   1.156   2.509  1.5034 -0.1100 -0.5074
 4102TIP3    H233798   3.331   1.201   2.653 -0.4265 -1.0413 -0.3610
 4103TIP3   OH233799   3.153   4.256   0.593  0.8004 -0.0267  0.1123
 4103TIP3    H133800   3.213   4.218   0.529  1.5504 -0.3394  0.9761
 4103TIP3    H233801   3.209   4.278   0.668 -0.0627  0.3019  0.6753
 4104TIP3   OH233802   6.807   3.852   2.430  0.5057 -0.4254 -0.1211
 4104TIP3    H133803   6.826   3.782   2.367  0.9537  0.6418 -1.2359
 4104TIP3    H233804   6.787   3.928   2.375 -1.9253 -0.1373  1.0253
 4105TIP3   OH233805   1.461   6.552  15.476 -0.1517 -0.2217 -0.0022
 4105TIP3    H133806   1.416   6.586  15.553  1.6911 -0.0769  1.0838
 4105TIP3    H233807   1.444   6.616  15.408 -0.2111  0.6932  0.8418
 4106TIP3   OH233808   2.672   5.436   4.605  0.0878  0.1389  0.3348
 4106TIP3    H133809   2.618   5.455   4.681  1.0885 -1.4599  1.5260
 4106TIP3    H233810   2.729   5.512   4.596  0.1200  0.2489  1.3517
 4107TIP3   OH233811   0.402   3.015  16.400  0.9647  0.1965  0.3177
 4107TIP3    H133812   0.425   3.071  16.326  2.8168  0.4276  1.0019
 4107TIP3    H233813   0.485   2.975  16.426  0.1193 -0.9248  1.4416
 4108TIP3   OH233814   0.123   2.043  10.415  0.4978  0.0536 -0.2869
 4108TIP3    H133815   0.072   2.039  10.334 -2.1796  1.0217  1.2073
 4108TIP3    H233816   0.088   2.119  10.461  1.4586 -0.8475  2.0832
 4109TIP3   OH233817   1.265   1.599  14.849 -0.3289 -0.3771  0.1271
 4109TIP3    H133818   1.331   1.557  14.904  1.0329 -0.0363 -1.1630
 4109TIP3    H233819   1.182   1.566  14.880  0.2063  1.0361  3.4694
 4110TIP3   OH233820   1.331   5.231  16.663 -0.6942 -0.1301  0.3781
 4110TIP3    H133821   1.356   5.274  16.582  0.2921  1.4253  1.4345
 4110TIP3    H233822   1.398   5.164  16.677 -0.8819 -0.4167 -0.1005
 4111TIP3   OH233823   0.891   4.069   4.065 -0.8781 -0.3289 -0.3293
 4111TIP3    H133824   0.829   4.066   4.138  0.6357 -1.7937  0.9906
 4111TIP3    H233825   0.911   3.977   4.047  0.2063  0.0817 -1.3282
 4112TIP3   OH233826   5.418   2.234   4.799 -0.7244  0.3062  0.3555
 4112TIP3    H133827   5.344   2.176   4.783 -0.9909  0.8989 -0.6113
 4112TIP3    H233828   5.459   2.246   4.714  1.4074 -1.1812  1.0770
 4113TIP3   OH233829   0.743   0.791   3.875  0.3653 -0.8289 -0.3505
 4113TIP3    H133830   0.759   0.699   3.894 -0.8934 -0.7233  1.4601
 4113TIP3    H233831   0.689   0.822   3.948  1.6485  1.6160 -0.3120
 4114TIP3   OH233832   2.987   1.706  10.925  0.3068 -0.3390 -0.2886
 4114TIP3    H133833   2.984   1.756  10.844  0.1240 -0.9015 -0.6344
 4114TIP3    H233834   2.904   1.658  10.927  0.6530 -0.9572 -0.1872
 4115TIP3   OH233835   6.818   6.178   2.921  0.4956 -0.1725  0.0199
 4115TIP3    H133836   6.744   6.228   2.888  0.3046 -1.5655 -1.7980
 4115TIP3    H233837   6.895   6.217   2.878  0.6124  0.0439  0.4196
 4116TIP3   OH233838   5.515   4.225   4.667  0.2287  1.0526 -0.4980
 4116TIP3    H133839   5.494   4.226   4.574  0.8021  1.7243 -0.6221
 4116TIP3    H233840   5.460   4.293   4.705  0.2134  0.9815 -0.3929
 4117TIP3   OH233841   1.702   3.204   3.928 -0.6158 -0.2607 -0.0708
 4117TIP3    H133842   1.639   3.160   3.986 -2.7022  0.9775 -1.2885
 4117TIP3    H233843   1.666   3.191   3.840  2.0948 -1.4642 -1.1066
 4118TIP3   OH233844   3.953   5.740  13.719 -0.3528 -0.9692  0.1347
 4118TIP3    H133845   4.010   5.807  13.681 -0.3329 -1.5478 -0.8917
 4118TIP3    H233846   3.886   5.790  13.766  1.2137 -0.2773  1.7622
 4119TIP3   OH233847   5.136   1.053  14.693  0.4388 -0.0050 -0.4092
 4119TIP3    H133848   5.193   0.982  14.663 -0.6315 -0.8061 -0.5805
 4119TIP3    H233849   5.195   1.113  14.738  0.9455 -2.6144  2.7582
 4120TIP3   OH233850   1.434   4.686   5.225 -0.0723 -0.0209 -0.5758
 4120TIP3    H133851   1.437   4.749   5.297  0.8051  1.4915 -1.8793
 4120TIP3    H233852   1.508   4.708   5.170 -2.0256  0.4584 -3.2103
 4121TIP3   OH233853   3.674   4.045   4.765 -0.3620  0.0308  0.0875
 4121TIP3    H133854   3.627   3.967   4.736  0.9671 -0.8689  0.2986
 4121TIP3    H233855   3.659   4.049   4.859 -0.5037  0.0952  0.0632
 4122TIP3   OH233856   3.000   3.460   0.652 -0.5956  0.0191 -0.5400
 4122TIP3    H133857   2.989   3.366   0.659  1.1334 -0.3403 -1.9263
 4122TIP3    H233858   2.993   3.492   0.742  2.8139 -1.9509  0.5834
 4123TIP3   OH233859   2.069   6.823  11.084 -0.1125  0.4899  0.5600
 4123TIP3    H133860   2.064   6.788  10.995  2.7726 -0.5845  0.7333
 4123TIP3    H233861   1.977   6.829  11.112 -1.0498 -0.0023 -2.1298
 4124TIP3   OH233862   2.155   0.607   4.615  0.2354  0.0628 -0.0358
 4124TIP3    H133863   2.213   0.682   4.599 -0.9597  1.0730  0.2525
 4124TIP3    H233864   2.176   0.579   4.704  0.8147 -0.0761 -0.2100
 4125TIP3   OH233865   3.458   0.427  15.637  0.4156 -0.3770  0.0260
 4125TIP3    H133866   3.474   0.488  15.709  2.7330 -0.5542 -0.2597
 4125TIP3    H233867   3.415   0.352  15.678  0.9286 -0.1183  1.0714
 4126TIP3   OH233868   6.595   0.363   2.875  0.3165  0.8132 -0.0443
 4126TIP3    H133869   6.551   0.284   2.907 -0.5005  1.3957  0.2926
 4126TIP3    H233870   6.688   0.341   2.880  0.0962 -0.3630 -0.5714
 4127TIP3   OH233871   4.448   6.510   2.584  0.0283 -0.0773  0.2125
 4127TIP3    H133872   4.539   6.481   2.582 -0.2594 -0.9854 -0.5017
 4127TIP3    H233873   4.448   6.591   2.533  0.3464 -0.3856 -0.2911
 4128TIP3   OH233874   6.294   3.660  15.045  0.0741  0.1611  0.2092
 4128TIP3    H133875   6.334   3.585  15.003  3.2003  0.4959  2.2586
 4128TIP3    H233876   6.275   3.631  15.135  0.0824  1.3862  0.6341
 4129TIP3   OH233877   3.392   3.994  16.625  0.1825  0.0869  0.0825
 4129TIP3    H133878   3.429   4.049  16.556 -1.8221 -0.5465 -1.6027
 4129TIP3    H233879   3.300   3.985  16.602 -0.1332 -1.8047  1.7862
 4130TIP3   OH233880   1.962   5.173  14.162  0.1960 -0.2947 -0.5721
 4130TIP3    H133881   1.914   5.248  14.198  0.5218 -0.0502 -0.6444
 4130TIP3    H233882   1.920   5.097  14.202 -0.2292 -0.0831 -0.6011
 4131TIP3   OH233883   4.711   1.058   6.300 -0.1025  0.1310 -0.4897
 4131TIP3    H133884   4.783   1.116   6.327  0.3718 -0.2410 -0.9271
 4131TIP3    H233885   4.715   0.985   6.362 -0.9000  0.7050  0.2575
 4132TIP3   OH233886   0.007   2.069  13.371 -0.4556 -0.2808  0.0335
 4132TIP3    H133887  -0.046   2.019  13.309 -2.6391  0.0579  1.5068
 4132TIP3    H233888   0.097   2.053  13.344 -1.2550 -1.4076 -2.2229
 4133TIP3   OH233889   1.207   5.450  11.121  0.7300  0.0708  0.3353
 4133TIP3    H133890   1.184   5.425  11.032 -1.1174 -0.4395  0.9199
 4133TIP3    H233891   1.295   5.487  11.114  1.2288 -1.3646 -1.4502
 4134TIP3   OH233892   5.014   2.951  16.495  0.2315  0.1194 -0.1440
 4134TIP3    H133893   4.990   3.014  16.562 -1.2712 -0.2395 -0.3052
 4134TIP3    H233894   5.009   2.866  16.539  2.3078  0.0887  0.0906
 4135TIP3   OH233895   3.692   3.621  14.032  0.2230 -0.1714 -0.3299
 4135TIP3    H133896   3.770   3.625  14.088  0.8926 -0.9071 -1.1817
 4135TIP3    H233897   3.715   3.673  13.955  0.1049 -0.8688 -0.8458
 4136TIP3   OH233898   1.386   0.181  15.500 -0.2598 -0.0439 -0.1573
 4136TIP3    H133899   1.305   0.136  15.525 -0.4475  0.2562 -0.2291
 4136TIP3    H233900   1.445   0.165  15.574 -0.8590  0.9479  0.5481
 4137TIP3   OH233901   6.484   4.252   4.568 -1.0191 -0.9229 -0.2418
 4137TIP3    H133902   6.479   4.343   4.597 -0.3713 -0.9225 -0.1259
 4137TIP3    H233903   6.459   4.255   4.476  2.3370 -0.0850 -1.2516
 4138TIP3   OH233904   5.227   5.644   3.448  0.0847  0.1509 -0.0655
 4138TIP3    H133905   5.149   5.650   3.393 -0.3014  0.7112  0.5237
 4138TIP3    H233906   5.213   5.566   3.501 -0.9989  1.2436  1.3711
 4139TIP3   OH233907   1.772   6.506   4.613 -0.5675  0.2992  1.1124
 4139TIP3    H133908   1.777   6.601   4.599  0.3487  0.5268  2.6651
 4139TIP3    H233909   1.855   6.484   4.656 -0.6707 -1.2581  0.5740
 4140TIP3   OH233910   2.583   5.516  13.112  0.1055  0.2399 -0.2808
 4140TIP3    H133911   2.489   5.502  13.104  0.0958  0.9840 -1.9069
 4140TIP3    H233912   2.598   5.527  13.206 -1.7100  1.8603 -0.1202
 4141TIP3   OH233913   3.703   5.909  13.267 -0.0307 -0.2500 -0.1510
 4141TIP3    H133914   3.748   5.845  13.212 -2.4811 -1.8150 -0.4877
 4141TIP3    H233915   3.733   5.889  13.356 -0.0962 -1.3227 -0.3557
 4142TIP3   OH233916   2.542   1.062   0.958 -0.5011 -0.3984 -0.3286
 4142TIP3    H133917   2.504   1.034   0.875  1.9361 -0.2949 -1.5685
 4142TIP3    H233918   2.613   1.121   0.933 -0.8267  1.0790  1.9306
 4143TIP3   OH233919   1.183   0.043   0.576  0.4738  0.0487 -0.0282
 4143TIP3    H133920   1.207   0.112   0.514  0.7085 -1.0369 -1.1636
 4143TIP3    H233921   1.095   0.016   0.549  0.3403 -0.0363  0.4787
 4144TIP3   OH233922   2.916   4.434  15.726  0.0277 -0.3679  0.8342
 4144TIP3    H133923   2.842   4.378  15.700  0.3102 -0.5586  0.4366
 4144TIP3    H233924   2.890   4.522  15.700  0.6163 -0.6477 -0.8138
 4145TIP3   OH233925   3.280   2.262   0.778  0.6278  0.0155 -0.3740
 4145TIP3    H133926   3.326   2.330   0.729  0.9338  0.7081  0.8316
 4145TIP3    H233927   3.335   2.248   0.855  0.3968 -1.3839 -0.4496
 4146TIP3   OH233928   1.988   2.059   5.318 -0.3766 -0.2718  0.4078
 4146TIP3    H133929   2.020   2.009   5.392 -2.0113 -0.7354  0.8558
 4146TIP3    H233930   2.066   2.100   5.281  0.8093 -1.9992  0.8718
 4147TIP3   OH233931   0.632   3.053   6.052 -0.2079  0.0173  0.5121
 4147TIP3    H133932   0.643   3.113   6.125 -0.4787 -0.3568  0.8657
 4147TIP3    H233933   0.537   3.046   6.041 -0.1674  0.0811  0.1176
 4148TIP3   OH233934   3.136   2.776  14.202  0.4686 -0.5331 -0.2509
 4148TIP3    H133935   3.070   2.762  14.134 -0.0592 -1.7455  0.4861
 4148TIP3    H233936   3.092   2.833  14.265  0.3155 -0.8841 -0.0379
 4149TIP3   OH233937   6.397   4.400   0.654 -0.0275 -0.0160 -0.2236
 4149TIP3    H133938   6.411   4.433   0.566  0.0873 -1.0330 -0.5978
 4149TIP3    H233939   6.480   4.357   0.677  0.0889  0.5857  0.5438
 4150TIP3   OH233940   6.491   0.155   3.015  0.1050 -0.1010 -0.4900
 4150TIP3    H133941   6.418   0.217   3.009  1.2555  1.2497 -1.0538
 4150TIP3    H233942   6.484   0.118   3.103 -0.1404  1.4455  0.1672
 4151TIP3   OH233943   5.290   5.167  13.735  1.3359 -0.1975 -0.4775
 4151TIP3    H133944   5.257   5.081  13.707  2.3525 -0.7837  0.0891
 4151TIP3    H233945   5.287   5.220  13.655  0.2636 -0.6115 -0.7319
 4152TIP3   OH233946   0.454   0.673   4.726  0.2033  0.3086 -0.2837
 4152TIP3    H133947   0.410   0.636   4.803  2.5597 -0.4376  0.7883
 4152TIP3    H233948   0.449   0.768   4.738 -2.2257  0.3190 -0.9064
 4153TIP3   OH233949   3.045   3.796  12.347 -0.0026  0.0610  0.2264
 4153TIP3    H133950   2.961   3.754  12.365 -1.4521  1.6877 -2.1317
 4153TIP3    H233951   3.082   3.746  12.275  0.2426  0.3512  0.1491
 4154TIP3   OH233952   4.061   1.441  14.770 -0.3228 -0.2849  0.2187
 4154TIP3    H133953   4.060   1.450  14.674  1.2194  2.0942  0.3395
 4154TIP3    H233954   4.109   1.360  14.785  1.2338  0.3292 -1.0601
 4155TIP3   OH233955   2.624   0.330   9.910 -0.5575 -0.1133  0.2242
 4155TIP3    H133956   2.607   0.236   9.916  0.2250 -0.2406  0.6075
 4155TIP3    H233957   2.550   0.370   9.956 -0.6384 -0.5694  0.5038
 4156TIP3   OH233958   4.069   4.055  12.293  0.1712 -0.0643 -0.3134
 4156TIP3    H133959   4.155   4.036  12.256  0.4487 -0.7415  0.6198
 4156TIP3    H233960   4.050   4.145  12.267  1.3402  0.2285 -0.2151
 4157TIP3   OH233961   4.424   5.436   0.552  0.2752  0.1374  0.1303
 4157TIP3    H133962   4.475   5.516   0.538 -0.3703  0.7639  1.2115
 4157TIP3    H233963   4.387   5.447   0.639 -0.2669 -1.1077  0.0681
 4158TIP3   OH233964   2.087   1.686   3.531 -0.3690 -0.2729 -0.0211
 4158TIP3    H133965   2.168   1.707   3.483 -0.5363  2.5738  0.7337
 4158TIP3    H233966   2.056   1.605   3.491  2.2479 -0.8512 -1.1000
 4159TIP3   OH233967   2.571   4.563   0.258 -0.0914  0.0649 -0.1328
 4159TIP3    H133968   2.519   4.547   0.180  0.4950  0.3715 -0.5913
 4159TIP3    H233969   2.539   4.646   0.293  0.0058  0.1886 -0.3406
 4160TIP3   OH233970   0.016   1.264  11.830  0.1287  0.6729  0.2156
 4160TIP3    H133971  -0.048   1.309  11.776  0.8836  1.3194 -0.1684
 4160TIP3    H233972   0.032   1.180  11.786 -0.1033  0.7119  0.0607
 4161TIP3   OH233973   5.117   2.343  13.478 -0.0277 -0.3420  0.0292
 4161TIP3    H133974   5.111   2.397  13.556  1.1900  1.6724 -1.1645
 4161TIP3    H233975   5.211   2.335  13.462 -0.2453 -0.3098 -1.4433
 4162TIP3   OH233976   2.795   3.235  13.306 -0.0350  0.2660 -0.1684
 4162TIP3    H133977   2.877   3.195  13.336 -0.9692 -2.7435 -1.3120
 4162TIP3    H233978   2.760   3.280  13.383  3.1048  2.5976  0.1018
 4163TIP3   OH233979   6.333   5.919   2.627  0.3832  0.0587 -0.5459
 4163TIP3    H133980   6.369   5.884   2.709  1.3511 -1.0794 -1.4238
 4163TIP3    H233981   6.246   5.880   2.622 -1.3461  3.1704  1.8101
 4164TIP3   OH233982   3.249   2.151  13.298  0.2871 -0.0338 -0.0764
 4164TIP3    H133983   3.340   2.141  13.325  0.1739 -1.3823 -0.1440
 4164TIP3    H233984   3.228   2.069  13.254 -1.0060  0.1979  0.0799
 4165TIP3   OH233985   1.087   4.444  13.897 -1.0182 -0.0158 -0.6886
 4165TIP3    H133986   1.072   4.538  13.911 -2.0036 -0.3216  0.4526
 4165TIP3    H233987   1.007   4.402  13.928 -0.1398 -1.3093 -0.1011
 4166TIP3   OH233988   0.813   0.632   2.385  0.2373  0.3551 -0.0653
 4166TIP3    H133989   0.867   0.706   2.355  2.0404 -0.7306  0.3456
 4166TIP3    H233990   0.814   0.640   2.480  1.1509 -0.6390  0.0262
 4167TIP3   OH233991   4.645   5.834   3.339 -0.3047  0.3851  0.1135
 4167TIP3    H133992   4.613   5.779   3.267 -1.8884 -1.0980  1.8257
 4167TIP3    H233993   4.581   5.905   3.345 -0.9127 -0.1922  0.7932
 4168TIP3   OH233994   0.082   4.427  11.454 -0.3872  0.3716 -0.2555
 4168TIP3    H133995   0.165   4.463  11.422  1.0254 -1.8721  0.6767
 4168TIP3    H233996   0.022   4.437  11.380  0.5294  2.4788 -0.8007
 4169TIP3   OH233997   2.655   0.885  11.979 -0.1982 -0.5643  0.1922
 4169TIP3    H133998   2.727   0.823  11.986  1.3850  0.9502 -1.3754
 4169TIP3    H233999   2.590   0.840  11.926 -0.2403 -1.8070  1.2668
 4170TIP3   OH234000   0.599   2.240  16.979 -0.2270 -0.1776 -0.7500
 4170TIP3    H134001   0.606   2.178  16.906  1.3501  0.0466 -0.8212
 4170TIP3    H234002   0.514   2.282  16.966 -1.7512 -2.8551 -0.2349
 4171TIP3   OH234003   5.106   4.731   3.906 -0.0538  0.0446 -0.0396
 4171TIP3    H134004   5.099   4.776   3.990  1.8621  0.4760 -0.0653
 4171TIP3    H234005   5.113   4.639   3.929  1.5773  0.2379  0.4057
 4172TIP3   OH234006   6.033   5.307   2.528  0.1554 -0.6128 -0.0963
 4172TIP3    H134007   5.997   5.288   2.615 -0.8441  2.2856  0.2541
 4172TIP3    H234008   5.971   5.267   2.467  1.3359 -3.4459  0.4361
 4173TIP3   OH234009   3.537   6.625   3.085 -0.2683 -0.0318 -0.1038
 4173TIP3    H134010   3.623   6.601   3.120 -0.4537 -2.1174 -0.8990
 4173TIP3    H234011   3.542   6.600   2.992 -1.9906 -1.0291  0.0293
 4174TIP3   OH234012   2.126   2.140   5.744 -0.0563 -0.4194  0.2145
 4174TIP3    H134013   2.200   2.081   5.759  1.4507  1.3434 -0.0046
 4174TIP3    H234014   2.158   2.203   5.680 -2.5146 -0.8950 -1.6667
 4175TIP3   OH234015   4.483   3.486  12.518  0.1010  0.5511 -0.0910
 4175TIP3    H134016   4.490   3.443  12.603  1.1462  1.2914  0.2190
 4175TIP3    H234017   4.504   3.417  12.455  2.9020  0.7820  0.4493
 4176TIP3   OH234018   6.330   5.610   1.529 -0.5922  0.3569  0.3421
 4176TIP3    H134019   6.308   5.527   1.488  0.9248 -0.1581  0.5143
 4176TIP3    H234020   6.393   5.651   1.470 -1.6217  1.5950  0.0578
 4177TIP3   OH234021   1.616   0.251   3.176  0.2707  0.0339  0.6254
 4177TIP3    H134022   1.555   0.277   3.245  0.9878 -0.7216  1.5717
 4177TIP3    H234023   1.696   0.300   3.194  0.4793 -0.2000  0.3474
 4178TIP3   OH234024   2.628   5.824   1.816 -0.4885  0.3121  0.4937
 4178TIP3    H134025   2.678   5.904   1.800 -0.5631  0.4068  0.7441
 4178TIP3    H234026   2.639   5.773   1.735 -3.1969  2.0070 -1.1144
 4179TIP3   OH234027   4.710   2.211  12.436  0.5376 -0.1174  0.2954
 4179TIP3    H134028   4.658   2.165  12.502  0.6732 -0.1804  0.3603
 4179TIP3    H234029   4.800   2.181  12.452  0.6592  0.3444  0.4837
 4180TIP3   OH234030   2.522   6.628   0.703 -0.1893 -0.0658 -0.3139
 4180TIP3    H134031   2.500   6.573   0.628 -0.0007  0.9718 -1.1561
 4180TIP3    H234032   2.570   6.569   0.762 -0.8975 -1.0603 -0.7035
 4181TIP3   OH234033   2.646   4.482  10.892  0.2624 -0.0117 -0.2287
 4181TIP3    H134034   2.713   4.414  10.893  2.2356  1.8194  1.4836
 4181TIP3    H234035   2.667   4.535  10.815  0.5278  0.3108  0.0630
 4182TIP3   OH234036   4.260   1.749  11.296 -0.3102  0.9969 -0.3798
 4182TIP3    H134037   4.181   1.744  11.242  0.0974 -0.1928 -0.9063
 4182TIP3    H234038   4.302   1.831  11.270 -2.7778  3.1954  1.9791
 4183TIP3   OH234039   4.784   3.408  12.711  0.4232 -0.2031 -0.1905
 4183TIP3    H134040   4.777   3.366  12.625  0.4246  0.5366 -0.5628
 4183TIP3    H234041   4.869   3.452  12.710  0.3552 -0.0577  0.1310
 4184TIP3   OH234042   4.540   2.780   5.027 -0.4760 -0.9292 -0.6745
 4184TIP3    H134043   4.491   2.858   5.001 -0.1952 -0.7914 -0.7847
 4184TIP3    H234044   4.602   2.812   5.092  0.0866 -0.9430 -1.2007
 4185TIP3   OH234045   4.050   2.714  13.191  0.1204  0.1339  0.3600
 4185TIP3    H134046   4.060   2.647  13.259 -0.7210 -0.0557  0.3129
 4185TIP3    H234047   4.074   2.796  13.235  2.1819 -0.3004  0.1250
 4186TIP3   OH234048   1.420   2.916   3.701 -0.2669  0.3905 -0.6735
 4186TIP3    H134049   1.467   3.000   3.700 -2.0642  1.4276 -1.3380
 4186TIP3    H234050   1.410   2.893   3.608  0.8054 -0.9454 -0.4936
 4187TIP3   OH234051   0.745   5.964   2.431 -0.1169  0.4000 -0.6596
 4187TIP3    H134052   0.700   5.880   2.429 -0.6009  0.5329  1.6904
 4187TIP3    H234053   0.745   5.994   2.340 -1.6000 -1.2576 -1.2529
 4188TIP3   OH234054   4.980   0.151   3.700 -0.5160 -0.1723  0.5071
 4188TIP3    H134055   4.970   0.069   3.652 -1.8532 -0.9409  2.0250
 4188TIP3    H234056   5.029   0.208   3.640 -1.9485 -1.1192 -1.6812
 4189TIP3   OH234057   2.062   1.455  17.056  0.2871  1.1110  0.0943
 4189TIP3    H134058   2.000   1.525  17.074 -0.6120  0.1223  1.0073
 4189TIP3    H234059   2.143   1.500  17.035 -1.0215  2.5079 -2.4906
 4190TIP3   OH234060   6.441   2.021  14.376  0.0868  0.3296 -0.1315
 4190TIP3    H134061   6.523   1.980  14.349  0.1331 -0.0589  0.5842
 4190TIP3    H234062   6.466   2.082  14.446 -0.2689 -0.0027  0.2933
 4191TIP3   OH234063   5.357   5.054  13.108 -0.3234  0.0058 -0.6539
 4191TIP3    H134064   5.294   5.032  13.176 -0.2056 -0.3057 -0.6405
 4191TIP3    H234065   5.443   5.040  13.149 -0.1797  2.4416 -0.0069
 4192TIP3   OH234066   4.672   6.079  11.664 -0.2356 -0.7647  0.1054
 4192TIP3    H134067   4.622   6.129  11.600 -0.8886 -0.6032  0.7268
 4192TIP3    H234068   4.764   6.097  11.642 -0.4584 -0.0301 -0.2575
 4193TIP3   OH234069   1.228   3.303  10.573 -0.4002 -0.2391  0.0383
 4193TIP3    H134070   1.187   3.219  10.553  1.5983 -1.1544 -0.5430
 4193TIP3    H234071   1.155   3.362  10.591 -1.9039 -1.8610 -0.4267
 4194TIP3   OH234072   4.523   6.730   1.066 -0.1028 -0.1431  0.0163
 4194TIP3    H134073   4.478   6.679   0.999  0.3598 -0.6790  0.1056
 4194TIP3    H234074   4.544   6.813   1.023  1.1452 -0.8817 -0.8609
 4195TIP3   OH234075   4.848   2.529   4.695 -0.2021  0.5783  0.2794
 4195TIP3    H134076   4.779   2.471   4.727  0.4325  0.5951  1.8022
 4195TIP3    H234077   4.824   2.615   4.729  0.7610  0.5082  1.1963
 4196TIP3   OH234078   3.791   3.539  13.671 -0.3807  0.1968  0.6783
 4196TIP3    H134079   3.864   3.581  13.717 -0.5921  1.8361 -0.3913
 4196TIP3    H234080   3.729   3.610  13.656 -1.2938 -0.7577 -0.1791
 4197TIP3   OH234081   4.212   1.235   3.158  0.6366 -0.1510  0.5075
 4197TIP3    H134082   4.265   1.210   3.082  1.7579  0.1195  1.1853
 4197TIP3    H234083   4.151   1.163   3.169  0.5803 -0.2791 -0.5397
 4198TIP3   OH234084   2.441   6.752   1.984 -0.1960 -0.0481 -0.5415
 4198TIP3    H134085   2.463   6.709   1.902 -1.2134  0.3149 -1.0190
 4198TIP3    H234086   2.426   6.680   2.046  1.7869 -0.3065 -0.3185
 4199TIP3   OH234087   1.059   3.110   1.997 -0.4727  0.7233 -0.1339
 4199TIP3    H134088   1.092   3.060   2.071 -1.9244 -2.1885 -1.2861
 4199TIP3    H234089   1.137   3.147   1.956  0.6521 -0.3177  0.9822
 4200TIP3   OH234090   4.707   1.669  15.651  0.0237  0.3885 -0.1234
 4200TIP3    H134091   4.678   1.707  15.734 -2.1503  0.4954 -0.8656
 4200TIP3    H234092   4.724   1.745  15.595  0.6620  0.3041 -0.0502
 4201TIP3   OH234093   1.012   6.167  11.442 -0.5616 -0.1991 -0.5632
 4201TIP3    H134094   0.974   6.112  11.374 -1.2650 -1.5381  0.8464
 4201TIP3    H234095   0.975   6.253  11.426 -0.9679 -0.5541 -1.6575
 4202TIP3   OH234096   4.668   1.370  14.176 -0.0788  0.1826  0.0350
 4202TIP3    H134097   4.588   1.422  14.182 -1.3930 -1.8783  1.8965
 4202TIP3    H234098   4.637   1.279  14.178  2.2860 -0.6923 -0.1671
 4203TIP3   OH234099   4.200   5.132  12.026 -0.5781 -0.3797  0.3968
 4203TIP3    H134100   4.119   5.182  12.012 -0.6689 -0.6376 -0.0107
 4203TIP3    H234101   4.268   5.199  12.035 -1.1800 -0.0262  3.3476
 4204TIP3   OH234102   6.032   4.647   0.198  0.8312 -0.2700 -0.2671
 4204TIP3    H134103   5.989   4.733   0.196  0.1178 -0.6280 -0.7291
 4204TIP3    H234104   6.041   4.627   0.291  0.7955  0.2018 -0.1569
 4205TIP3   OH234105   4.992   1.046  12.134 -0.0316 -0.6380 -0.5200
 4205TIP3    H134106   4.957   0.989  12.066 -0.1274  0.9338 -1.8324
 4205TIP3    H234107   5.067   0.998  12.170  0.3870 -1.2472 -2.1443
 4206TIP3   OH234108   0.721   6.091   6.509 -0.2711 -0.1160  0.1747
 4206TIP3    H134109   0.719   6.015   6.568 -0.4765  0.8715  1.4814
 4206TIP3    H234110   0.814   6.107   6.493 -0.2222 -0.5241  0.0381
 4207TIP3   OH234111   2.139   4.929  12.185  0.2239  0.3939  0.1434
 4207TIP3    H134112   2.049   4.919  12.214  0.5110  0.6655  1.1761
 4207TIP3    H234113   2.149   4.866  12.114 -1.6813  2.5446 -2.2116
 4208TIP3   OH234114   4.719   4.325  16.250 -0.2408  0.2463  0.1352
 4208TIP3    H134115   4.728   4.325  16.346 -2.3416  0.2285  0.3656
 4208TIP3    H234116   4.713   4.418  16.227  1.7223  0.3402 -0.1897
 4209TIP3   OH234117   5.555   4.358   6.278 -0.1322 -0.3796  0.1262
 4209TIP3    H134118   5.489   4.352   6.209  1.5928  1.1881 -1.7916
 4209TIP3    H234119   5.551   4.274   6.322  2.0812 -3.7170 -5.1399
 4210TIP3   OH234120   0.814   0.470   0.462  0.2709  0.6000  0.6846
 4210TIP3    H134121   0.728   0.429   0.462  0.3184  0.4369 -1.0753
 4210TIP3    H234122   0.802   0.553   0.417  1.2347  0.0601 -0.6430
 4211TIP3   OH234123   6.269   3.259  15.610 -0.1010 -0.5424  0.2661
 4211TIP3    H134124   6.209   3.332  15.627  0.5238  0.2982 -1.0268
 4211TIP3    H234125   6.245   3.228  15.523  0.9702 -0.5499 -0.0406
 4212TIP3   OH234126   4.420   3.052  16.178  0.7413 -0.6911 -0.4886
 4212TIP3    H134127   4.452   3.084  16.094  0.9498 -0.0753 -0.1811
 4212TIP3    H234128   4.446   3.119  16.241  1.2287 -1.4978  0.1850
 4213TIP3   OH234129   6.590   1.570  10.964 -0.4010  0.1722 -0.1963
 4213TIP3    H134130   6.640   1.583  10.883  2.1416 -0.1909  1.2138
 4213TIP3    H234131   6.499   1.568  10.936  0.2908  1.6592 -2.8414
 4214TIP3   OH234132   2.750   6.388  16.148 -0.3669 -0.0335  0.5505
 4214TIP3    H134133   2.718   6.353  16.231  0.3470 -2.0961  0.0027
 4214TIP3    H234134   2.796   6.315  16.107 -0.7702  0.9070 -1.7152
 4215TIP3   OH234135   1.695   2.447   0.030 -0.3919  0.3025 -0.9067
 4215TIP3    H134136   1.699   2.454   0.125 -0.7439 -1.8975 -0.6652
 4215TIP3    H234137   1.709   2.536  -0.002  2.9825  0.6887  1.0963
 4216TIP3   OH234138   6.357   6.745  15.895  0.2469  0.0690 -0.1017
 4216TIP3    H134139   6.288   6.711  15.838  1.2092 -1.6341 -0.3186
 4216TIP3    H234140   6.396   6.816  15.845  1.6771 -1.9783 -2.0871
 4217TIP3   OH234141   6.061   5.847   3.585 -0.0347  0.4779 -0.8600
 4217TIP3    H134142   6.119   5.923   3.583 -0.5728  0.9970  1.0070
 4217TIP3    H234143   6.083   5.798   3.506  2.9172  0.6909 -0.3045
 4218TIP3   OH234144   6.676   1.722   3.671  0.2190  0.7095  0.3995
 4218TIP3    H134145   6.732   1.739   3.747 -0.0718  0.2933  0.7157
 4218TIP3    H234146   6.591   1.700   3.709  0.3559 -0.5937  0.0026
 4219TIP3   OH234147   4.499   4.068  14.901 -0.1679 -0.1456  0.1226
 4219TIP3    H134148   4.532   4.026  14.980 -1.3140  0.4460  0.9427
 4219TIP3    H234149   4.404   4.065  14.909 -0.3319 -0.5066 -1.4738
 4220TIP3   OH234150   0.774   0.827   1.296 -0.8927 -0.7604  0.6889
 4220TIP3    H134151   0.854   0.794   1.338 -1.2112 -0.7118  1.3541
 4220TIP3    H234152   0.801   0.910   1.255  0.0928 -2.1360 -1.6319
 4221TIP3   OH234153   3.726   3.141   0.600 -0.3308  0.0943 -0.6641
 4221TIP3    H134154   3.644   3.144   0.650  0.1670 -0.8139  0.2570
 4221TIP3    H234155   3.699   3.115   0.512 -1.1315  0.7688 -0.6288
 4222TIP3   OH234156   2.646   5.980   1.438 -0.3351 -0.1774  0.2279
 4222TIP3    H134157   2.678   5.898   1.476 -0.9179 -0.2302  0.6233
 4222TIP3    H234158   2.606   6.026   1.511  0.4463  0.7036  0.1158
 4223TIP3   OH234159   0.934   2.097   4.375  0.6089 -0.3215  0.0787
 4223TIP3    H134160   0.912   2.004   4.370  1.1821 -0.6560  2.4947
 4223TIP3    H234161   1.027   2.098   4.400  0.5504  0.8969  0.2886
 4224TIP3   OH234162   1.095   0.004   5.608  0.6238 -0.3747 -0.4923
 4224TIP3    H134163   1.155  -0.050   5.556 -0.1847 -0.7389 -1.0551
 4224TIP3    H234164   1.046   0.055   5.544  1.5452  1.2527  0.0360
 4225TIP3   OH234165   3.978   2.880  10.620 -0.1697  0.6721  0.5237
 4225TIP3    H134166   4.009   2.796  10.584 -1.5674  0.1234  0.5379
 4225TIP3    H234167   4.055   2.936  10.620  1.0940 -0.9579  1.5384
 4226TIP3   OH234168   6.102   2.276   2.272  0.1634 -0.4540 -0.3750
 4226TIP3    H134169   6.196   2.290   2.254 -0.1753 -1.3713 -3.4234
 4226TIP3    H234170   6.058   2.319   2.199 -1.8719  0.2738  1.1970
 4227TIP3   OH234171   4.283   6.257   5.821  0.2090 -0.4768  0.0386
 4227TIP3    H134172   4.364   6.208   5.830  0.9775  0.1327 -2.7456
 4227TIP3    H234173   4.214   6.190   5.820  1.0058 -1.2976 -1.1819
 4228TIP3   OH234174   3.748   6.203  12.424 -0.4364  0.0128  0.1473
 4228TIP3    H134175   3.662   6.165  12.442 -1.5997  0.6027 -3.3785
 4228TIP3    H234176   3.754   6.276  12.485 -3.3187  1.0460 -0.6122
 4229TIP3   OH234177   4.487   0.990   0.844  0.1141 -0.3568  0.4003
 4229TIP3    H134178   4.444   0.936   0.910  1.4602 -0.0003  1.6224
 4229TIP3    H234179   4.578   0.996   0.873  0.4998  0.7144 -0.9158
 4230TIP3   OH234180   5.180   3.745   4.780  0.0978  0.4293  0.3687
 4230TIP3    H134181   5.099   3.776   4.739 -1.3438 -0.8544  2.0262
 4230TIP3    H234182   5.248   3.802   4.746 -1.4764  1.4780 -1.2283
 4231TIP3   OH234183   1.285   5.555  14.570  0.1432 -0.4775 -0.0599
 4231TIP3    H134184   1.308   5.509  14.651  0.4146 -1.9747 -0.9457
 4231TIP3    H234185   1.300   5.490  14.501  0.9715  1.0954 -1.4298
 4232TIP3   OH234186   3.035   0.616   4.878  0.0852  0.5400 -0.4496
 4232TIP3    H134187   2.989   0.599   4.960  1.4321 -2.0050 -0.1076
 4232TIP3    H234188   2.966   0.624   4.812 -0.9289 -0.0478  0.5151
 4233TIP3   OH234189   0.476   0.363  17.008 -0.4354  0.0788  0.2931
 4233TIP3    H134190   0.447   0.446  16.971  1.1441  0.3378 -0.4299
 4233TIP3    H234191   0.543   0.331  16.947  0.0132 -1.0196  1.3161
 4234TIP3   OH234192   3.792   5.370  12.294 -0.5114 -0.1560  0.1792
 4234TIP3    H134193   3.763   5.457  12.321  0.6769  0.2752  0.1456
 4234TIP3    H234194   3.887   5.372  12.306 -0.3309 -1.0461 -0.9640
 4235TIP3   OH234195   2.006   2.564  16.593 -0.4990  0.0221 -0.8132
 4235TIP3    H134196   2.026   2.475  16.565  1.2786  0.5773 -1.4685
 4235TIP3    H234197   1.991   2.612  16.511  0.0289  0.6387 -0.5584
 4236TIP3   OH234198   2.452   6.555  13.911 -0.1121  0.5242  0.0862
 4236TIP3    H134199   2.438   6.628  13.851 -0.6347 -0.0872 -0.5529
 4236TIP3    H234200   2.517   6.587  13.973  1.5131  0.6964 -1.6269
 4237TIP3   OH234201   4.033   3.090  16.740  0.2485 -0.2263 -0.0708
 4237TIP3    H134202   4.058   3.150  16.669  0.5063  0.5326  0.6461
 4237TIP3    H234203   4.061   3.004  16.710  2.2792  0.3720 -0.0163
 4238TIP3   OH234204   6.808   4.472   0.900  0.3005  0.0752  0.4368
 4238TIP3    H134205   6.843   4.415   0.967  0.1201 -0.5373  0.0229
 4238TIP3    H234206   6.858   4.451   0.821  0.2547  0.5096  0.2870
 4239TIP3   OH234207   3.810   1.133   0.280  0.5935 -1.0024  0.0964
 4239TIP3    H134208   3.852   1.210   0.242  1.0678 -1.1553  0.3039
 4239TIP3    H234209   3.871   1.103   0.347 -0.6711 -0.1276  1.7269
 4240TIP3   OH234210   3.846   5.684  15.715  0.0719 -0.1057 -0.0514
 4240TIP3    H134211   3.836   5.668  15.809  0.3775  1.0199  0.1858
 4240TIP3    H234212   3.756   5.680  15.681  0.0379 -1.3726  0.1192
 4241TIP3   OH234213   4.837   6.117  12.076 -0.6104 -0.0212  0.4076
 4241TIP3    H134214   4.803   6.027  12.076 -2.0339  0.4400 -2.0936
 4241TIP3    H234215   4.804   6.154  12.158 -0.6471 -1.5278  1.1197
 4242TIP3   OH234216   2.344   6.375   5.431 -0.2388  0.1184  0.1811
 4242TIP3    H134217   2.268   6.419   5.392  0.7699  1.0522 -0.7964
 4242TIP3    H234218   2.309   6.334   5.511 -2.1819 -1.1098 -1.2140
 4243TIP3   OH234219   1.535   5.566   0.147  0.0106  0.0635  0.0824
 4243TIP3    H134220   1.544   5.591   0.055  1.8350 -1.4719 -0.2226
 4243TIP3    H234221   1.538   5.471   0.147 -0.7832  0.0025  1.6809
 4244TIP3   OH234222   2.233   0.978  14.817  0.1389  0.5326  0.6073
 4244TIP3    H134223   2.229   0.894  14.862  0.6958  1.0036  1.5767
 4244TIP3    H234224   2.145   1.014  14.824  0.1106  0.4042  0.9554
 4245TIP3   OH234225   6.163   2.028   5.447  0.3082 -0.0283 -0.0768
 4245TIP3    H134226   6.206   2.094   5.501  1.4442 -1.6516  1.0955
 4245TIP3    H234227   6.088   2.000   5.498  0.2637 -0.1735 -0.2215
 4246TIP3   OH234228   2.022   1.856  16.748  0.6663 -0.6438  0.7900
 4246TIP3    H134229   2.052   1.874  16.838 -0.1986  0.3252  0.9020
 4246TIP3    H234230   1.973   1.774  16.755  1.2339 -0.9719  1.0468
 4247TIP3   OH234231   5.027   6.188   3.278  0.0820  0.1126 -0.1201
 4247TIP3    H134232   4.939   6.153   3.262 -0.1569  0.3091  0.7112
 4247TIP3    H234233   5.078   6.113   3.309  0.2383 -0.0227 -0.6975
 4248TIP3   OH234234   2.811   4.118   5.443  0.2696  0.1617  0.2400
 4248TIP3    H134235   2.825   4.050   5.510  0.1948  0.7560  0.8645
 4248TIP3    H234236   2.807   4.200   5.492 -0.7669  0.5114 -0.3962
 4249TIP3   OH234237   0.967   0.596   1.176  0.0825 -0.0861  0.7036
 4249TIP3    H134238   1.031   0.641   1.121  0.7222 -1.2802  0.4373
 4249TIP3    H234239   1.013   0.581   1.258  0.2855 -1.2711  0.3848
 4250TIP3   OH234240   2.732   0.126   2.186  0.3758  0.1202  0.2871
 4250TIP3    H134241   2.750   0.046   2.136  0.3055 -0.3525  0.9944
 4250TIP3    H234242   2.663   0.099   2.248 -1.1780  1.2775 -0.8571
 4251TIP3   OH234243   3.173   0.129   0.271 -1.0945 -0.0713 -0.6109
 4251TIP3    H134244   3.263   0.121   0.242 -0.7793 -0.9704  0.5293
 4251TIP3    H234245   3.152   0.222   0.262 -0.2340  0.0523 -1.3754
 4252TIP3   OH234246   4.944   1.724  12.324  0.2433  0.1431 -0.4027
 4252TIP3    H134247   5.023   1.767  12.293  0.1805  0.1856 -0.5029
 4252TIP3    H234248   4.943   1.640  12.278  0.2440  0.1311 -0.3810
 4253TIP3   OH234249   4.503   1.282   2.103  0.3274  0.3813 -0.1718
 4253TIP3    H134250   4.477   1.359   2.053  0.6214  0.2928 -0.4580
 4253TIP3    H234251   4.597   1.294   2.119  1.0789 -1.3296 -2.7616
 4254TIP3   OH234252   1.478   2.781   4.293 -0.0492 -0.1290  0.6931
 4254TIP3    H134253   1.433   2.865   4.301 -0.5952 -0.3800  0.2958
 4254TIP3    H234254   1.533   2.775   4.372 -0.4723  0.3197  1.0241
 4255TIP3   OH234255   3.464   5.527  16.767  0.2529 -1.2742  0.0400
 4255TIP3    H134256   3.504   5.586  16.832 -0.2105  0.2050 -0.9657
 4255TIP3    H234257   3.370   5.534  16.784  0.2392 -2.5911  0.6005
 4256TIP3   OH234258   3.776   0.431   6.194  0.4028  0.4433  0.3919
 4256TIP3    H134259   3.698   0.375   6.196  0.1501  0.6876 -1.1573
 4256TIP3    H234260   3.842   0.381   6.242 -0.9253  0.6489  2.5666
 4257TIP3   OH234261   6.154   3.768   0.551  0.0210 -0.3234  0.8747
 4257TIP3    H134262   6.197   3.683   0.559  3.5574  1.1253 -0.8221
 4257TIP3    H234263   6.167   3.809   0.637  1.5293 -0.1783  0.6028
 4258TIP3   OH234264   1.362   1.853   5.121  0.0494  1.0196 -1.0287
 4258TIP3    H134265   1.308   1.808   5.186 -0.1668  0.2593 -1.7202
 4258TIP3    H234266   1.399   1.928   5.168  0.3433  0.1767  0.1202
 4259TIP3   OH234267   6.238   2.062  16.993 -0.5248 -0.6754  0.3431
 4259TIP3    H134268   6.147   2.032  16.995 -1.1842  1.2240  1.2039
 4259TIP3    H234269   6.257   2.089  17.083 -0.1617  1.8242 -0.4231
 4260TIP3   OH234270   0.306   0.150   6.300 -0.0739 -0.4563  0.6688
 4260TIP3    H134271   0.264   0.108   6.225  0.6383  0.3774 -0.2243
 4260TIP3    H234272   0.399   0.154   6.277 -0.2491  2.6812  0.1460
 4261TIP3   OH234273   1.252   3.012   5.039  0.4420  0.4897  0.5839
 4261TIP3    H134274   1.156   3.016   5.040  0.1874 -2.0098 -1.4370
 4261TIP3    H234275   1.278   3.032   5.129 -2.0800 -0.1369  1.5395
 4262TIP3   OH234276   0.809   3.006  14.473 -0.1616 -0.0172 -0.1024
 4262TIP3    H134277   0.890   2.974  14.513 -1.1755 -1.5596  0.8136
 4262TIP3    H234278   0.739   2.970  14.528 -1.6126 -1.8022 -2.8525
 4263TIP3   OH234279   5.518   1.179   3.599 -0.2255 -0.0935  0.0986
 4263TIP3    H134280   5.483   1.243   3.536 -0.1116  0.1540  0.2825
 4263TIP3    H234281   5.525   1.228   3.681 -1.9109 -0.8465  0.7405
 4264TIP3   OH234282   0.987   4.108  13.348  0.6306 -0.2041 -0.0557
 4264TIP3    H134283   0.951   4.031  13.391  1.2135 -1.4193 -1.6176
 4264TIP3    H234284   1.081   4.104  13.365  0.5366  0.7825  0.7589
 4265TIP3   OH234285   0.432   6.133   2.452 -0.5588  0.4001  0.1319
 4265TIP3    H134286   0.446   6.193   2.526 -0.4373 -0.2032  0.6090
 4265TIP3    H234287   0.345   6.097   2.467 -1.4912  1.9696 -1.2641
 4266TIP3   OH234288   5.104   1.291  12.665  0.4125  0.3730 -0.3498
 4266TIP3    H134289   5.080   1.353  12.596 -0.3527  0.4296 -0.0500
 4266TIP3    H234290   5.071   1.207  12.635  0.7622  0.2532 -0.4024
 4267TIP3   OH234291   4.314   6.462  16.741 -0.6410 -0.7440 -0.8116
 4267TIP3    H134292   4.228   6.466  16.784 -0.0101  1.5983  0.4537
 4267TIP3    H234293   4.374   6.438  16.811  0.1143  0.8299 -0.8763
 4268TIP3   OH234294   2.868   5.215   0.805 -0.6254  0.4760  0.3613
 4268TIP3    H134295   2.798   5.254   0.753  1.3700  0.2808 -2.7446
 4268TIP3    H234296   2.875   5.273   0.881 -2.2244  2.1931 -0.6930
 4269TIP3   OH234297   2.802   4.911   0.229 -0.1722  0.0367 -0.2730
 4269TIP3    H134298   2.731   4.873   0.177 -0.7495 -0.5415  0.8991
 4269TIP3    H234299   2.881   4.869   0.196 -0.5473 -0.4634 -0.5522
 4270TIP3   OH234300   3.287   0.954  16.770 -0.0214 -0.0854  0.6366
 4270TIP3    H134301   3.320   1.036  16.733 -3.1973  1.7760  1.5479
 4270TIP3    H234302   3.333   0.946  16.853  1.9220 -0.4642 -0.4280
 4271TIP3   OH234303   6.754   6.439  15.202  0.1654  0.4728  0.0252
 4271TIP3    H134304   6.773   6.426  15.295 -0.8892 -0.6358  0.0939
 4271TIP3    H234305   6.679   6.498  15.200  1.1431  1.7701 -0.1835
 4272TIP3   OH234306   1.968   3.638  12.121  0.5075 -0.8758  0.3892
 4272TIP3    H134307   2.060   3.633  12.149  0.7223 -2.4234 -0.4670
 4272TIP3    H234308   1.923   3.679  12.195  1.7704 -0.7714  1.1314
 4273TIP3   OH234309   5.432   4.683  14.917  0.3781  0.0626 -0.3152
 4273TIP3    H134310   5.345   4.654  14.945 -0.6532  1.4477 -1.9023
 4273TIP3    H234311   5.459   4.746  14.984 -0.0456  0.0027 -0.0822
 4274TIP3   OH234312   3.613   3.032  16.385  0.0230  0.4764  0.4181
 4274TIP3    H134313   3.556   3.107  16.370 -0.6390 -0.0593  0.2035
 4274TIP3    H234314   3.689   3.068  16.431 -0.1634  1.3165  0.0892
 4275TIP3   OH234315   5.744   3.661  14.687  0.0205  0.1741 -0.7736
 4275TIP3    H134316   5.832   3.693  14.671 -0.1825  2.4753  1.9106
 4275TIP3    H234317   5.688   3.737  14.674 -1.0681 -0.1965  1.2628
 4276TIP3   OH234318   0.694   2.799   5.664  0.2212  0.6290  0.6676
 4276TIP3    H134319   0.783   2.766   5.673 -0.1056 -0.8041 -0.8897
 4276TIP3    H234320   0.654   2.744   5.596 -1.6968  1.5545  0.9664
 4277TIP3   OH234321   3.851   2.560  16.683 -0.2695 -0.3327  0.5984
 4277TIP3    H134322   3.781   2.604  16.635 -0.1948  0.0772  0.8540
 4277TIP3    H234323   3.807   2.522  16.760 -0.1358  0.3657  1.0301
 4278TIP3   OH234324   3.482   4.242   3.591  0.4432 -0.0883 -0.1408
 4278TIP3    H134325   3.492   4.335   3.572  0.1525  0.2581  1.2641
 4278TIP3    H234326   3.495   4.198   3.507 -1.2151  1.3208 -1.2042
 4279TIP3   OH234327   3.954   4.138  15.114 -0.2384 -0.0018 -0.1419
 4279TIP3    H134328   4.024   4.174  15.059  0.3399 -0.0678  0.5290
 4279TIP3    H234329   3.899   4.214  15.135  1.3878  0.7354  1.8801
 4280TIP3   OH234330   3.397   6.263  16.898  0.1033  0.0275 -0.7630
 4280TIP3    H134331   3.346   6.330  16.943  0.4145  0.9592 -1.7334
 4280TIP3    H234332   3.480   6.307  16.877 -0.2392 -0.1679 -2.6977
 4281TIP3   OH234333   4.372   6.600   3.021  0.4981  0.6547  0.2730
 4281TIP3    H134334   4.450   6.655   3.010  1.9981 -1.6787 -2.1358
 4281TIP3    H234335   4.343   6.583   2.931 -1.3615 -0.5133  1.0522
 4282TIP3   OH234336   4.901   3.275   0.962 -0.0049  0.4297  0.6842
 4282TIP3    H134337   4.978   3.302   0.912 -0.6930 -0.9306 -1.1867
 4282TIP3    H234338   4.922   3.300   1.052  1.8101  1.8059 -0.0497
 4283TIP3   OH234339   3.306   4.346   2.782 -0.2005  1.1356 -0.1161
 4283TIP3    H134340   3.278   4.347   2.874 -0.5774  0.0850 -0.2058
 4283TIP3    H234341   3.247   4.407   2.739 -0.1059  1.5375  0.3188
 4284TIP3   OH234342   2.215   0.719  12.929 -0.2234 -0.4949 -0.0824
 4284TIP3    H134343   2.306   0.693  12.913  0.1899  1.9146 -2.2090
 4284TIP3    H234344   2.182   0.653  12.991  3.0765 -1.1673  1.1631
 4285TIP3   OH234345   1.284   3.794   0.882  0.3156 -0.1236 -0.3589
 4285TIP3    H134346   1.217   3.784   0.950  2.0304 -2.5080  1.1593
 4285TIP3    H234347   1.293   3.888   0.870 -1.1656  0.3279  1.5962
 4286TIP3   OH234348   1.226   0.221  16.658 -0.2466  0.2037 -0.3646
 4286TIP3    H134349   1.238   0.304  16.705 -0.0045 -0.4203  0.7125
 4286TIP3    H234350   1.187   0.246  16.575  0.8537  1.5124 -0.5187
 4287TIP3   OH234351   2.986   3.768  13.758  0.0218 -0.1079 -0.2399
 4287TIP3    H134352   3.030   3.821  13.692  1.4553 -0.1851  0.6060
 4287TIP3    H234353   3.045   3.694  13.773 -1.6107 -1.6051 -0.8908
 4288TIP3   OH234354   2.530   5.947   1.174  0.1454  0.0531 -0.5619
 4288TIP3    H134355   2.594   5.891   1.130  0.5640  0.2386 -0.1934
 4288TIP3    H234356   2.566   5.962   1.261 -0.9534 -0.7859  0.0605
 4289TIP3   OH234357   2.201   5.359   1.273 -0.4254 -0.2799  0.5492
 4289TIP3    H134358   2.134   5.385   1.210 -0.6674 -0.8518  0.5632
 4289TIP3    H234359   2.207   5.433   1.333 -0.4823  0.0994  0.0928
 4290TIP3   OH234360   1.968   4.107   2.314  0.1646  0.1236 -0.7084
 4290TIP3    H134361   1.941   4.165   2.384  0.0812 -1.2844  0.4797
 4290TIP3    H234362   1.977   4.021   2.356  1.8539 -0.4166 -2.0371
 4291TIP3   OH234363   4.025   2.621   0.664 -0.1915  0.1452 -0.1052
 4291TIP3    H134364   4.033   2.678   0.588  0.9766 -0.4652 -0.4553
 4291TIP3    H234365   4.072   2.542   0.640 -1.8956 -1.0495  0.3228
 4292TIP3   OH234366   6.389   6.682  12.893 -0.0403  0.0008 -0.2985
 4292TIP3    H134367   6.307   6.635  12.881 -1.2888  2.0954 -0.6128
 4292TIP3    H234368   6.432   6.639  12.967 -2.9839  0.7569  2.0600
 4293TIP3   OH234369   0.091   0.229   5.780 -0.3455  0.5774 -0.4636
 4293TIP3    H134370  -0.002   0.233   5.800  0.0614 -0.0115  1.8078
 4293TIP3    H234371   0.134   0.228   5.865  1.5791 -2.5260 -1.2841
 4294TIP3   OH234372   6.260   1.260  11.020  0.4266  0.1320 -0.0614
 4294TIP3    H134373   6.181   1.224  11.060 -0.9783  0.1042 -2.6684
 4294TIP3    H234374   6.302   1.185  10.977  0.1240  0.6668 -1.3502
 4295TIP3   OH234375   4.803   6.355   4.977 -0.2927 -0.0406  0.5171
 4295TIP3    H134376   4.768   6.364   5.065 -0.5895  0.2603  0.3707
 4295TIP3    H234377   4.859   6.277   4.981 -0.3130 -0.0338  0.9647
 4296TIP3   OH234378   3.424   0.079   4.786 -0.0162 -0.2734  0.6344
 4296TIP3    H134379   3.456  -0.011   4.783 -1.3150 -0.7185 -1.0673
 4296TIP3    H234380   3.363   0.086   4.713  0.8133  2.2885  0.0735
 4297TIP3   OH234381   0.533   1.169   2.918  0.4929  0.2327  0.1692
 4297TIP3    H134382   0.458   1.221   2.947  1.2783  1.1159  0.6692
 4297TIP3    H234383   0.607   1.229   2.923  1.0007 -0.1529 -1.7678
 4298TIP3   OH234384   2.198   5.175  16.403 -0.3834  0.3031 -0.7022
 4298TIP3    H134385   2.270   5.187  16.341  0.3770 -0.4293  0.0131
 4298TIP3    H234386   2.198   5.082  16.423  0.3768  0.7287  1.5365
 4299TIP3   OH234387   4.354   5.949  14.461  0.0782  0.0646 -0.1151
 4299TIP3    H134388   4.309   6.031  14.438 -1.1379 -1.1065 -2.1935
 4299TIP3    H234389   4.435   5.978  14.502 -1.8282  2.2884  2.4933
 4300TIP3   OH234390   3.259   1.092  12.623  0.0819 -0.1335  0.2162
 4300TIP3    H134391   3.176   1.115  12.665 -1.2862 -2.9356 -0.6753
 4300TIP3    H234392   3.297   1.026  12.682  2.1022  1.5989  0.9665
 4301TIP3   OH234393   6.508   2.189   0.296  0.8557  0.2049  0.4879
 4301TIP3    H134394   6.525   2.099   0.271  1.6849  0.6592 -0.6577
 4301TIP3    H234395   6.463   2.228   0.221  0.8759  0.8545  0.7989
 4302TIP3   OH234396   0.464   2.574   2.693 -0.1542  0.0840 -0.1516
 4302TIP3    H134397   0.411   2.507   2.650 -0.7314  0.9688 -0.8458
 4302TIP3    H234398   0.461   2.552   2.786 -1.3939 -0.1265 -0.2314
 4303TIP3   OH234399   4.044   0.195  16.879 -0.4147 -0.8522 -0.4058
 4303TIP3    H134400   4.135   0.205  16.909 -0.6387  2.2831 -0.4191
 4303TIP3    H234401   4.043   0.239  16.794 -2.0964 -0.0341  0.0000
 4304TIP3   OH234402   2.911   5.972   3.424 -0.6981  0.7233 -0.0457
 4304TIP3    H134403   2.840   5.929   3.377  0.7141 -0.4939 -1.1799
 4304TIP3    H234404   2.971   6.002   3.356  0.9263 -0.2227  0.8853
 4305TIP3   OH234405   4.371   0.360   3.959 -0.0986 -0.1796 -0.3047
 4305TIP3    H134406   4.390   0.362   4.053  2.3280 -1.4975 -0.6762
 4305TIP3    H234407   4.309   0.289   3.948 -0.5992  0.1525  0.3130
 4306TIP3   OH234408   3.823   3.286  13.736 -0.0392  0.6822 -0.6233
 4306TIP3    H134409   3.890   3.257  13.674 -1.7439 -0.4992 -1.9689
 4306TIP3    H234410   3.811   3.379  13.716  1.7860  1.1857  0.2776
 4307TIP3   OH234411   6.342   5.727   2.366  0.3004  0.2138  0.1688
 4307TIP3    H134412   6.369   5.741   2.457  0.4273 -1.2116  0.3781
 4307TIP3    H234413   6.249   5.747   2.366 -0.4895 -2.8917  1.4415
 4308TIP3   OH234414   1.928   5.115  14.986  0.1075  1.2981  0.2728
 4308TIP3    H134415   1.942   5.075  14.900  1.4211  0.3915  0.8594
 4308TIP3    H234416   1.977   5.197  14.983  1.5683  0.4892  0.6530
 4309TIP3   OH234417   5.102   5.141   3.661  0.4486  0.1991 -0.0658
 4309TIP3    H134418   5.034   5.159   3.597  0.4963 -0.0444 -0.1856
 4309TIP3    H234419   5.084   5.052   3.691 -0.9521  1.0869  1.9599
 4310TIP3   OH234420   1.277   2.076   2.380 -0.1001 -0.0442 -0.6954
 4310TIP3    H134421   1.321   2.032   2.307 -1.4131 -0.6061 -1.1792
 4310TIP3    H234422   1.232   2.005   2.427 -0.3672  0.4911 -0.1280
 4311TIP3   OH234423   2.690   3.217   6.004 -0.1919 -0.2323  0.0276
 4311TIP3    H134424   2.688   3.162   5.926 -1.4093 -0.6724  0.3443
 4311TIP3    H234425   2.780   3.249   6.009 -0.2583  0.3808 -1.9514
 4312TIP3   OH234426   6.345   4.910  14.714  0.0845  0.4573  0.6266
 4312TIP3    H134427   6.356   4.962  14.635 -2.6482  2.1755  1.2220
 4312TIP3    H234428   6.429   4.916  14.759  0.7724  1.8633 -0.7482
 4313TIP3   OH234429   2.274   2.396   3.390 -0.0413  0.4754 -0.0419
 4313TIP3    H134430   2.264   2.362   3.301  0.7446 -0.8108  0.3330
 4313TIP3    H234431   2.363   2.430   3.394  0.5251 -0.9843  0.6947
 4314TIP3   OH234432   6.552   0.831  12.295  0.0789 -0.1816 -0.0884
 4314TIP3    H134433   6.579   0.786  12.375 -0.9214 -0.5660  0.0473
 4314TIP3    H234434   6.624   0.890  12.275  0.4256 -0.2191  0.9952
 4315TIP3   OH234435   0.769   0.318   5.771  0.3725  0.1622  0.0680
 4315TIP3    H134436   0.726   0.357   5.694 -2.0096  1.8710  2.0984
 4315TIP3    H234437   0.857   0.296   5.741 -1.6282 -3.5111 -4.4529
 4316TIP3   OH234438   1.207   4.201   5.667  0.3099 -0.2448 -0.3708
 4316TIP3    H134439   1.244   4.176   5.752  0.2264 -0.7814 -0.4903
 4316TIP3    H234440   1.113   4.187   5.677  0.2643  0.0209 -0.4384
 4317TIP3   OH234441   1.668   0.509   5.820 -0.0038 -0.1187  0.0092
 4317TIP3    H134442   1.762   0.525   5.818  0.0997 -0.6487  0.4200
 4317TIP3    H234443   1.640   0.518   5.729  0.4080  0.2370 -0.0848
 4318TIP3   OH234444   3.387   0.793   3.039 -0.2614  0.3116  0.3648
 4318TIP3    H134445   3.475   0.829   3.051  0.0503  0.4394 -1.8387
 4318TIP3    H234446   3.331   0.852   3.090  0.6280  1.9566 -0.4473
 4319TIP3   OH234447   6.001   0.555   2.397  0.1035 -0.5340  0.4694
 4319TIP3    H134448   5.969   0.616   2.330 -0.2737 -1.2010  0.0333
 4319TIP3    H234449   6.080   0.517   2.359  0.1683 -0.5430  0.6135
 4320TIP3   OH234450   2.282   2.709  16.025 -0.7612 -0.6014  0.9179
 4320TIP3    H134451   2.268   2.636  15.965 -5.0111 -1.0884  2.1443
 4320TIP3    H234452   2.373   2.701  16.053  1.1824 -0.9466 -4.4476
 4321TIP3   OH234453   0.190   3.934   0.096  0.1927 -0.9321  0.1016
 4321TIP3    H134454   0.267   3.975   0.134 -0.4001  0.9084 -0.5736
 4321TIP3    H234455   0.220   3.900   0.011  0.7822 -2.3599  0.8358
 4322TIP3   OH234456   4.884   3.237  15.833  1.0349  0.1524  0.7854
 4322TIP3    H134457   4.914   3.149  15.857 -1.0491 -0.3466  1.8399
 4322TIP3    H234458   4.945   3.296  15.878  1.3566 -0.7811  1.6118
 4323TIP3   OH234459   2.020   6.159  12.861  0.0109  0.3334  0.2400
 4323TIP3    H134460   2.089   6.211  12.902  0.7096 -0.6683  0.3757
 4323TIP3    H234461   1.945   6.218  12.856 -0.6514  0.0853  4.3706
 4324TIP3   OH234462   2.953   5.054   4.111 -0.1098 -0.1073  0.2871
 4324TIP3    H134463   2.958   5.142   4.073 -2.1051 -0.0856 -0.0348
 4324TIP3    H234464   2.976   5.066   4.203  1.6472  0.3833 -0.1837
 4325TIP3   OH234465   1.614   1.063  16.348 -0.1723 -0.1516 -0.0386
 4325TIP3    H134466   1.539   1.092  16.297  0.0877 -1.4452 -1.2109
 4325TIP3    H234467   1.576   1.015  16.422 -0.5103  0.3594  0.1254
 4326TIP3   OH234468   6.201   1.037  16.289 -0.4855  0.3181  0.2703
 4326TIP3    H134469   6.177   0.968  16.351  1.0279 -0.3080  0.2236
 4326TIP3    H234470   6.119   1.068  16.252 -1.1822 -1.7940 -0.0495
 4327TIP3   OH234471   2.572   4.722  16.475  0.1716 -0.2018 -0.4266
 4327TIP3    H134472   2.586   4.728  16.569  0.5248 -1.0300 -0.4174
 4327TIP3    H234473   2.492   4.669  16.466  0.8868 -1.2876 -0.6040
 4328TIP3   OH234474   6.373   6.338   4.931  0.3742 -0.0891 -0.2204
 4328TIP3    H134475   6.464   6.340   4.904  0.0202 -0.6028 -1.5072
 4328TIP3    H234476   6.324   6.368   4.854 -0.6731 -1.7069 -0.2446
 4329TIP3   OH234477   3.239   3.755  11.299  0.2126 -0.5469 -0.4966
 4329TIP3    H134478   3.208   3.667  11.322 -2.5931  0.8180  1.6020
 4329TIP3    H234479   3.167   3.792  11.248  1.0067  0.8044 -0.6626
 4330TIP3   OH234480   6.319   5.392   3.635 -0.0924 -0.4370 -0.1949
 4330TIP3    H134481   6.228   5.380   3.608 -0.5073  1.8091  0.0242
 4330TIP3    H234482   6.313   5.431   3.722  1.1057 -0.8228  0.0757
 4331TIP3   OH234483   0.206   4.335   0.266  0.6510  0.5684  0.3376
 4331TIP3    H134484   0.259   4.414   0.251 -1.0271  1.6045 -0.5327
 4331TIP3    H234485   0.118   4.369   0.282 -0.2251 -1.1585 -0.5826
 4332TIP3   OH234486   5.365   1.037   1.671  0.0759 -0.0503 -0.0039
 4332TIP3    H134487   5.311   1.111   1.697  0.4937  0.5836 -0.8904
 4332TIP3    H234488   5.345   1.024   1.579  0.2201 -0.8649  0.0735
 4333TIP3   OH234489   1.282   3.279  13.453 -0.1824  0.1772  0.2223
 4333TIP3    H134490   1.240   3.263  13.538 -1.9242 -0.1419 -0.6422
 4333TIP3    H234491   1.299   3.373  13.452  0.0730  0.1442  1.0138
 4334TIP3   OH234492   3.200   4.934   3.748  0.0289  0.1943  0.1884
 4334TIP3    H134493   3.262   4.977   3.807 -0.2360 -0.5269  1.0312
 4334TIP3    H234494   3.144   4.883   3.807 -0.2113 -0.5912 -0.7046
 4335TIP3   OH234495   4.227   3.773  11.822 -0.3220 -0.3547 -0.0613
 4335TIP3    H134496   4.293   3.787  11.891 -0.0673  1.3208 -0.5913
 4335TIP3    H234497   4.209   3.861  11.789 -1.1148 -1.0374 -1.5233
 4336TIP3   OH234498   0.541   2.024  14.779 -0.5196  0.4508 -0.2568
 4336TIP3    H134499   0.617   1.991  14.731  0.2027  2.7883 -0.8108
 4336TIP3    H234500   0.546   1.981  14.865  0.0456 -1.2201 -1.0795
 4337TIP3   OH234501   6.282   6.131  14.803 -0.0012  0.3626 -0.0789
 4337TIP3    H134502   6.325   6.077  14.737  0.7085 -2.5834  2.4885
 4337TIP3    H234503   6.192   6.097  14.806  0.4514 -0.8342  1.5644
 4338TIP3   OH234504   4.316   0.180   0.676  0.5594 -0.1977 -0.0372
 4338TIP3    H134505   4.346   0.133   0.598  1.3323 -0.1014  0.1942
 4338TIP3    H234506   4.288   0.265   0.643  2.6734  0.5671  0.0015
 4339TIP3   OH234507   2.039   6.358   4.521 -0.3444  0.0118 -0.3773
 4339TIP3    H134508   2.099   6.292   4.486 -1.0414 -0.3699 -0.8835
 4339TIP3    H234509   1.961   6.308   4.546 -1.0086  0.6818 -1.0604
 4340TIP3   OH234510   4.092   3.419   1.529 -0.1139 -0.0491 -0.0452
 4340TIP3    H134511   4.163   3.391   1.471 -0.4312 -1.3404  0.1747
 4340TIP3    H234512   4.023   3.449   1.470  0.8354  1.9490 -0.2675
 4341TIP3   OH234513   0.702   0.567   5.085  0.1347  0.3309  0.1878
 4341TIP3    H134514   0.615   0.596   5.114  0.8329  1.6130  1.1306
 4341TIP3    H234515   0.693   0.554   4.991 -0.5806  2.5800 -0.1331
 4342TIP3   OH234516   6.042   6.330   5.596  0.3143  0.8546  0.6621
 4342TIP3    H134517   5.974   6.391   5.626 -0.8673 -0.0413 -0.1318
 4342TIP3    H234518   6.001   6.244   5.601  1.0989  0.3782 -0.6694
 4343TIP3   OH234519   1.394   6.288   3.153  0.3453 -0.3412  0.5202
 4343TIP3    H134520   1.322   6.314   3.209 -0.7546 -0.0595 -0.9703
 4343TIP3    H234521   1.364   6.307   3.064  2.8347  1.2266 -0.0775
 4344TIP3   OH234522   0.088   2.783  14.629 -0.1103  0.8917  0.0373
 4344TIP3    H134523   0.088   2.694  14.595 -0.5778  0.0717  1.9980
 4344TIP3    H234524   0.138   2.834  14.566 -1.0966 -0.4296 -1.9146
 4345TIP3   OH234525   0.577   1.015  14.790  0.3020  0.1250 -0.2888
 4345TIP3    H134526   0.659   0.968  14.779 -0.0724 -0.2788 -1.4438
 4345TIP3    H234527   0.546   0.990  14.878  0.7539 -0.7427 -0.3750
 4346TIP3   OH234528   2.156   6.027  12.412 -0.0130 -0.6856 -0.5332
 4346TIP3    H134529   2.248   5.998  12.411  0.4462  0.3667  2.0007
 4346TIP3    H234530   2.111   5.962  12.465 -0.7832 -1.2240 -1.8098
 4347TIP3   OH234531   6.231   0.481  12.522  0.6761 -0.4704 -0.5933
 4347TIP3    H134532   6.275   0.505  12.440 -1.5074  1.0385 -1.4311
 4347TIP3    H234533   6.170   0.411  12.497 -0.9160  0.8571 -0.6285
 4348TIP3   OH234534   5.893   2.832   0.569  0.4402 -0.0673  0.2392
 4348TIP3    H134535   5.799   2.847   0.580  0.2296 -1.3349  0.3420
 4348TIP3    H234536   5.921   2.899   0.506 -0.5470  0.2739  0.1502
 4349TIP3   OH234537   1.492   5.102  16.426 -0.3727 -0.0147 -1.1286
 4349TIP3    H134538   1.501   5.086  16.333  0.3748  0.7498 -1.2025
 4349TIP3    H234539   1.518   5.021  16.468  0.0265 -0.1130 -1.5643
 4350TIP3   OH234540   1.189   5.592  15.507  0.0111 -0.0828  0.9346
 4350TIP3    H134541   1.103   5.588  15.549 -1.0899 -1.4967 -1.2576
 4350TIP3    H234542   1.248   5.624  15.576 -2.1401  0.4235  2.6604
 4351TIP3   OH234543   2.875   0.394   2.523  0.0727 -0.0154  0.0236
 4351TIP3    H134544   2.859   0.325   2.458  0.6899  0.2337 -0.4091
 4351TIP3    H234545   2.970   0.404   2.523  0.0940 -0.1322  1.1061
 4352TIP3   OH234546   6.395   6.004  14.351 -0.5891  0.1134 -0.3702
 4352TIP3    H134547   6.391   6.092  14.315 -1.6186  0.4037  0.3959
 4352TIP3    H234548   6.350   5.950  14.286 -0.2873  0.2080 -0.6614
 4353TIP3   OH234549   5.485   3.735   1.777  0.4874  0.8826  0.0387
 4353TIP3    H134550   5.471   3.641   1.770  1.5802  0.7881 -1.2627
 4353TIP3    H234551   5.469   3.769   1.689  0.5658  1.8491  0.3798
 4354TIP3   OH234552   3.936   3.910   3.680  0.0358  0.1253  0.3239
 4354TIP3    H134553   3.859   3.967   3.680 -0.2051 -0.1902 -0.1029
 4354TIP3    H234554   3.966   3.911   3.771 -0.8302 -0.2164  0.6290
 4355TIP3   OH234555   3.897   2.991   5.803 -0.1032 -0.5119 -0.6201
 4355TIP3    H134556   3.894   2.896   5.788  2.5977 -0.7037 -0.3677
 4355TIP3    H234557   3.924   3.000   5.894  0.4484  0.4867 -0.8721
 4356TIP3   OH234558   2.903   4.392  16.373  0.7350 -0.4469 -0.0557
 4356TIP3    H134559   2.888   4.412  16.465 -0.1194 -1.1271 -0.0346
 4356TIP3    H234560   2.850   4.315  16.356  0.0147  0.2972 -1.3844
 4357TIP3   OH234561   3.037   1.751   0.780 -0.1491 -0.0416  0.1268
 4357TIP3    H134562   3.056   1.694   0.854  1.5615 -0.6620 -0.7521
 4357TIP3    H234563   2.997   1.694   0.715  0.1951  0.0881 -0.1968
 4358TIP3   OH234564   1.145   5.112  16.900  0.1529 -0.2515 -0.4733
 4358TIP3    H134565   1.135   5.019  16.882 -0.8696 -0.2023 -0.2224
 4358TIP3    H234566   1.225   5.138  16.853  1.2407 -1.5368  0.5921
 4359TIP3   OH234567   6.070   0.125  14.720  0.4871  1.0636 -0.6769
 4359TIP3    H134568   6.106   0.112  14.808 -2.6250 -0.1702  0.5675
 4359TIP3    H234569   6.025   0.209  14.725 -3.5318 -0.9022  0.5825
 4360TIP3   OH234570   2.101   0.595   3.733  0.4285  0.2671 -0.2271
 4360TIP3    H134571   2.141   0.624   3.815  0.3580 -0.4081  0.0558
 4360TIP3    H234572   2.124   0.502   3.727  0.3486  0.2887 -0.9244
 4361TIP3   OH234573   3.374   1.738   0.683  0.1797  0.1033  0.4965
 4361TIP3    H134574   3.389   1.737   0.589  3.0232 -1.1439  0.8469
 4361TIP3    H234575   3.331   1.655   0.702 -1.1032  0.6951  0.2384
 4362TIP3   OH234576   6.303   6.327  12.301 -0.0235 -0.2446  0.6278
 4362TIP3    H134577   6.269   6.250  12.346 -0.2422  1.1705  3.0486
 4362TIP3    H234578   6.225   6.380  12.281  0.1261 -0.5690 -0.9673
 4363TIP3   OH234579   3.814   6.722  13.137  0.3703  0.4854  0.9324
 4363TIP3    H134580   3.754   6.796  13.144  0.0571  0.4629 -1.0905
 4363TIP3    H234581   3.860   6.735  13.055  1.0275 -1.0594  1.0180
 4364TIP3   OH234582   5.231   4.741   2.035  0.1847 -0.3627  0.1128
 4364TIP3    H134583   5.188   4.820   2.067  0.1914  0.6553 -2.1846
 4364TIP3    H234584   5.160   4.679   2.020 -0.2798  0.5185 -1.5142
 4365TIP3   OH234585   2.745   4.920  14.687 -0.4891  0.2393 -0.0598
 4365TIP3    H134586   2.796   4.978  14.744 -0.2488 -0.3197  0.2995
 4365TIP3    H234587   2.810   4.859  14.651 -0.4345  1.2296 -1.7948
 4366TIP3   OH234588   1.335   6.540  16.530 -0.3394 -0.5429  0.5053
 4366TIP3    H134589   1.277   6.513  16.458  0.6683  0.3738 -0.7039
 4366TIP3    H234590   1.334   6.467  16.591 -3.2816 -0.3227  0.8796
 4367TIP3   OH234591   5.115   1.705  12.990  0.2020 -0.3246 -0.2961
 4367TIP3    H134592   5.102   1.611  13.003  0.0593 -0.2594  0.0233
 4367TIP3    H234593   5.029   1.738  12.963 -0.6458  0.2891  2.8317
 4368TIP3   OH234594   6.037   1.499   3.035 -0.1000 -0.2777  0.1146
 4368TIP3    H134595   6.004   1.547   3.110 -1.9231  0.9714 -1.3865
 4368TIP3    H234596   6.083   1.565   2.983 -1.5594 -0.3574 -1.3629
 4369TIP3   OH234597   4.789   3.294  13.899 -0.4357 -0.3334  0.0411
 4369TIP3    H134598   4.758   3.289  13.809 -1.2355 -3.7441  0.3920
 4369TIP3    H234599   4.739   3.367  13.937  0.7362  1.9025 -2.4568
 4370TIP3   OH234600   4.818   6.306  14.931  0.3145  0.1475  0.0492
 4370TIP3    H134601   4.820   6.328  15.024  1.0801 -0.7585  0.2736
 4370TIP3    H234602   4.728   6.325  14.903 -0.3093 -0.8036  1.2983
 4371TIP3   OH234603   2.156   3.706   2.019 -0.0665 -0.4049 -0.4307
 4371TIP3    H134604   2.239   3.754   2.014  0.0452 -0.3027  1.4712
 4371TIP3    H234605   2.089   3.774   2.028 -0.2937 -0.5085 -1.2875
 4372TIP3   OH234606   3.574   5.465   2.756  0.1442 -0.5078  0.3825
 4372TIP3    H134607   3.662   5.448   2.724  0.9556  2.2195  0.8987
 4372TIP3    H234608   3.573   5.433   2.846  1.7435  2.1718  1.4784
 4373TIP3   OH234609   4.177   5.646   1.806 -0.9222 -0.1078 -0.3477
 4373TIP3    H134610   4.120   5.701   1.752 -0.5463 -0.2397 -0.8856
 4373TIP3    H234611   4.144   5.657   1.895 -1.5911  0.0559 -0.6155
 4374TIP3   OH234612   5.449   5.479  15.107 -0.9609 -0.8226 -0.0467
 4374TIP3    H134613   5.371   5.473  15.052 -0.5553  1.9083 -1.0508
 4374TIP3    H234614   5.453   5.571  15.134  1.6060 -1.0015  0.4464
 4375TIP3   OH234615   3.582   0.899  15.175 -0.4012 -0.0017  0.3376
 4375TIP3    H134616   3.532   0.874  15.097  0.7964  0.0813 -0.4879
 4375TIP3    H234617   3.585   0.820  15.228 -2.4930  0.3346  1.0447
 4376TIP3   OH234618   4.200   0.823   2.588  0.2342 -0.3032  0.0537
 4376TIP3    H134619   4.106   0.810   2.580  0.3472 -2.2559  1.1772
 4376TIP3    H234620   4.224   0.779   2.669  2.4157 -1.7990 -1.2683
 4377TIP3   OH234621   1.001   6.078  14.815  0.4970  0.3205  0.3541
 4377TIP3    H134622   0.993   6.168  14.785 -0.0379  0.0623 -0.3041
 4377TIP3    H234623   0.923   6.034  14.782 -0.2998  0.0723  2.4072
 4378TIP3   OH234624   0.555   3.133   3.679 -0.7430 -0.1528 -0.2602
 4378TIP3    H134625   0.537   3.182   3.758 -0.1578 -3.0539  1.8423
 4378TIP3    H234626   0.647   3.107   3.687 -1.5220 -3.3195 -0.0632
 4379TIP3   OH234627   5.353   0.538   1.183  0.0244  0.6141  0.0981
 4379TIP3    H134628   5.261   0.559   1.197 -0.3217  0.7956 -2.0781
 4379TIP3    H234629   5.386   0.513   1.269 -1.7753  1.5990  1.1208
 4380TIP3   OH234630   2.150   5.660  11.380 -0.1077  0.3139 -0.1921
 4380TIP3    H134631   2.091   5.713  11.434  0.1568  1.3902 -0.9258
 4380TIP3    H234632   2.152   5.575  11.424 -1.8887  0.3592  0.0767
 4381TIP3   OH234633   3.034   3.938  14.954 -0.1388  0.6865 -0.3046
 4381TIP3    H134634   3.013   3.849  14.927  0.8631  0.3416  0.0246
 4381TIP3    H234635   3.122   3.954  14.918  0.0398  1.2328  0.3507
 4382TIP3   OH234636   3.722   6.279   5.186 -0.1085  0.8209  0.7612
 4382TIP3    H134637   3.747   6.221   5.257 -0.9818  0.0023  0.4203
 4382TIP3    H234638   3.702   6.221   5.113  0.4392  1.6281 -0.0599
 4383TIP3   OH234639   6.302   4.683   1.421  0.2775 -0.5000  0.6493
 4383TIP3    H134640   6.296   4.589   1.438  0.8125 -0.6214  0.1993
 4383TIP3    H234641   6.272   4.724   1.502  1.5244 -1.0528  1.4269
 4384TIP3   OH234642   1.649   3.068   5.121 -0.3587  0.0666  0.6686
 4384TIP3    H134643   1.645   3.149   5.071 -0.2536 -0.2656  0.1201
 4384TIP3    H234644   1.586   3.009   5.079 -0.1319 -0.2804  0.8038
 4385TIP3   OH234645   6.110   2.058  14.006 -0.3270  0.8697 -0.2985
 4385TIP3    H134646   6.062   2.015  14.076  0.0448 -0.5740 -0.8924
 4385TIP3    H234647   6.101   1.999  13.931  0.0743  1.9112 -1.1949
 4386TIP3   OH234648   0.981   0.969  15.093  0.0225 -0.0728 -0.1306
 4386TIP3    H134649   0.957   0.912  15.021  1.4958 -1.4670  0.4220
 4386TIP3    H234650   1.055   0.925  15.135  0.2871  1.5374  1.2013
 4387TIP3   OH234651   3.168   0.612   3.601  0.5340  0.4906 -0.2239
 4387TIP3    H134652   3.193   0.520   3.600  1.2534  0.6744 -0.2388
 4387TIP3    H234653   3.137   0.628   3.690 -1.2501 -0.1739 -0.7064
 4388TIP3   OH234654   6.157   4.997   2.721 -0.2784  0.4831 -0.0880
 4388TIP3    H134655   6.092   4.991   2.791  0.2238 -0.5940  0.3004
 4388TIP3    H234656   6.105   4.993   2.641 -0.8202  1.2679  0.2128
 4389TIP3   OH234657   4.100   1.369  14.344 -0.9442 -0.3209  0.1925
 4389TIP3    H134658   4.174   1.428  14.358 -0.2053 -1.1843 -0.0359
 4389TIP3    H234659   4.105   1.306  14.416 -1.4434 -0.3956  0.1641
 4390TIP3   OH234660   6.851   3.208  13.399 -0.1472 -0.3478 -0.3157
 4390TIP3    H134661   6.936   3.240  13.369 -0.2125 -1.2052 -1.4438
 4390TIP3    H234662   6.838   3.252  13.483  2.1479 -1.4095  0.6949
 4391TIP3   OH234663   1.850   6.638   5.922 -0.3648  0.0821  0.3601
 4391TIP3    H134664   1.913   6.568   5.939 -1.1119 -1.0883 -1.4243
 4391TIP3    H234665   1.805   6.650   6.005  1.7797  0.5799  1.5355
 4392TIP3   OH234666   5.233   3.975  11.428 -0.2389 -0.4967  0.3557
 4392TIP3    H134667   5.207   4.028  11.503 -0.1489  0.0159  0.0254
 4392TIP3    H234668   5.163   3.910  11.419  0.0704 -0.9708  1.2759
 4393TIP3   OH234669   6.768   3.435   3.438  0.7474  0.3195  0.4142
 4393TIP3    H134670   6.742   3.410   3.349 -0.8903 -1.2716  1.2849
 4393TIP3    H234671   6.845   3.491   3.425  2.0287 -1.7638 -1.9163
 4394TIP3   OH234672   5.391   3.445   0.275 -0.2446  0.3218 -0.1125
 4394TIP3    H134673   5.371   3.538   0.285  0.8648  0.5377  0.3037
 4394TIP3    H234674   5.323   3.411   0.216 -1.8453  0.9495  1.2870
 4395TIP3   OH234675   4.662   5.740   0.206 -0.1940  0.2279 -0.4504
 4395TIP3    H134676   4.577   5.771   0.174 -1.0742 -0.2723  1.2626
 4395TIP3    H234677   4.640   5.686   0.282  1.6511 -0.2101 -0.1902
 4396TIP3   OH234678   6.638   0.999   5.445 -0.4090  0.0964  0.4812
 4396TIP3    H134679   6.727   1.030   5.424  0.0800 -1.1058  0.7100
 4396TIP3    H234680   6.629   0.917   5.397 -1.8196  0.7392 -0.3903
 4397TIP3   OH234681   1.015   0.897  12.920  0.7751 -0.9618 -0.1607
 4397TIP3    H134682   1.036   0.949  12.998  0.8527  1.9722 -1.9678
 4397TIP3    H234683   1.098   0.892  12.872  0.3538 -1.2307 -0.8733
 4398TIP3   OH234684   5.677   4.906  16.398 -0.2968  0.2249  0.2985
 4398TIP3    H134685   5.663   4.835  16.460 -0.2269 -0.1633 -0.1212
 4398TIP3    H234686   5.766   4.892  16.364 -0.6134 -0.0212 -0.4529
 4399TIP3   OH234687   2.830   1.833  12.437 -0.4021 -0.2083 -0.2360
 4399TIP3    H134688   2.785   1.791  12.510 -0.7218 -0.0298 -0.3256
 4399TIP3    H234689   2.778   1.810  12.360  0.9090 -1.8643 -0.6799
 4400TIP3   OH234690   4.552   0.120  16.734  0.2433  0.4880  0.5381
 4400TIP3    H134691   4.616   0.058  16.698 -1.0240 -0.2048 -0.6201
 4400TIP3    H234692   4.469   0.074  16.728 -0.3792  1.3347  2.1202
 4401TIP3   OH234693   3.866   2.430  11.747  0.6145  0.1335 -0.1239
 4401TIP3    H134694   3.809   2.369  11.702 -1.0665  1.9297 -0.5589
 4401TIP3    H234695   3.940   2.444  11.688  0.5810 -0.8031 -0.3860
 4402TIP3   OH234696   1.950   1.751   8.594 -0.4458  0.0123 -0.3050
 4402TIP3    H134697   1.880   1.782   8.537 -0.2942  0.0665 -0.4646
 4402TIP3    H234698   1.987   1.676   8.549 -0.7239 -0.3267  0.0170
 4403TIP3   OH234699   6.532   6.848  16.749 -0.2435  0.0350 -0.2369
 4403TIP3    H134700   6.529   6.937  16.785 -3.2625 -0.4450  0.9666
 4403TIP3    H234701   6.552   6.860  16.656  2.7491  1.6700  0.4893
 4404TIP3   OH234702   0.972   1.510  16.427  0.0187  0.6704 -0.3846
 4404TIP3    H134703   0.876   1.510  16.419  0.0203  2.0461 -0.5631
 4404TIP3    H234704   1.003   1.496  16.338  0.0519 -3.1554  0.0374
 4405TIP3   OH234705   4.449   5.219   0.190 -0.0352  0.2893  0.2627
 4405TIP3    H134706   4.428   5.200   0.098 -0.6906 -0.7630  0.6180
 4405TIP3    H234707   4.524   5.279   0.185 -0.1721  0.3825 -0.9617
 4406TIP3   OH234708   2.662   2.353   5.756  0.2345 -0.3302  1.1113
 4406TIP3    H134709   2.593   2.358   5.821 -1.1338  0.6489 -0.3515
 4406TIP3    H234710   2.618   2.327   5.675  1.4019  1.0467 -0.0381
 4407TIP3   OH234711   4.724   6.404   3.230  0.2258  0.1081  0.2947
 4407TIP3    H134712   4.728   6.309   3.238 -0.4602 -0.1276 -1.6618
 4407TIP3    H234713   4.678   6.433   3.309  0.6542 -1.1379  1.0309
 4408TIP3   OH234714   6.108   5.461   4.799 -0.1745 -0.5404 -0.3621
 4408TIP3    H134715   6.172   5.408   4.751 -0.0095 -0.7861  0.1149
 4408TIP3    H234716   6.033   5.403   4.811  0.6102 -1.2645  1.5576
 4409TIP3   OH234717   2.795   5.608  14.680 -0.3181  0.2193 -0.6513
 4409TIP3    H134718   2.801   5.694  14.640  0.7002  0.4554 -0.0315
 4409TIP3    H234719   2.740   5.557  14.620  0.0062  0.9695 -1.6037
 4410TIP3   OH234720   5.849   0.866   6.041 -0.0340  0.5130  0.3210
 4410TIP3    H134721   5.788   0.876   6.114  1.7570  1.4895  1.7779
 4410TIP3    H234722   5.929   0.908   6.072  0.7310  1.1473 -2.3173
 4411TIP3   OH234723   5.863   3.106  10.880  0.2784 -0.1230  0.5016
 4411TIP3    H134724   5.916   3.134  10.805 -1.0091  1.5950  0.1719
 4411TIP3    H234725   5.830   3.021  10.855 -0.9498  0.8444 -1.3908
 4412TIP3   OH234726   1.088   5.213   1.636  0.7771 -0.1309 -0.0736
 4412TIP3    H134727   1.079   5.246   1.547 -0.2581 -1.1820 -0.3844
 4412TIP3    H234728   1.132   5.128   1.626 -0.0376 -0.6124  0.3243
 4413TIP3   OH234729   6.117   5.756   4.350  0.3327 -0.3531 -0.8080
 4413TIP3    H134730   6.026   5.748   4.320  0.4270 -0.3935 -1.0860
 4413TIP3    H234731   6.110   5.804   4.433 -0.1641 -2.4459  0.4413
 4414TIP3   OH234732   2.609   1.416   5.802  0.3634 -0.1716 -0.0524
 4414TIP3    H134733   2.649   1.434   5.887  0.4557 -1.0661  0.1031
 4414TIP3    H234734   2.647   1.332   5.775  1.9691  1.0594 -1.9538
 4415TIP3   OH234735   6.553   0.031  14.034  0.3616 -0.2455 -0.3027
 4415TIP3    H134736   6.593  -0.010  13.957 -0.0283 -1.3424  0.0611
 4415TIP3    H234737   6.489   0.092  13.997  2.4729  1.7251 -0.8993
 4416TIP3   OH234738   6.544   5.302   1.143 -0.8326  0.0187  0.2957
 4416TIP3    H134739   6.636   5.282   1.124 -0.3685  1.2563  1.0661
 4416TIP3    H234740   6.497   5.278   1.064  0.5651  1.9529 -1.2300
 4417TIP3   OH234741   0.202   1.773   0.519  0.0161  0.2611  0.0978
 4417TIP3    H134742   0.245   1.701   0.472  0.3376  1.5937 -1.7550
 4417TIP3    H234743   0.222   1.757   0.612  1.1665 -1.3106 -0.3913
 4418TIP3   OH234744   4.889   0.137  16.556 -0.6382 -0.3266 -0.9216
 4418TIP3    H134745   4.878   0.139  16.461  0.3601  0.0082 -1.0530
 4418TIP3    H234746   4.937   0.056  16.573 -0.3397 -0.1224 -0.7733
 4419TIP3   OH234747   1.880   2.892   2.221  0.4647 -0.2003  0.1271
 4419TIP3    H134748   1.800   2.844   2.199  2.3021 -2.9666 -1.0931
 4419TIP3    H234749   1.865   2.923   2.310 -1.9395 -0.6121 -0.0497
 4420TIP3   OH234750   6.749   1.512   0.908  0.3248 -0.2086 -0.9319
 4420TIP3    H134751   6.821   1.485   0.964 -1.8382 -1.9526  1.2600
 4420TIP3    H234752   6.746   1.607   0.914  0.3626 -0.3223  1.7802
 4421TIP3   OH234753   1.368   6.147   2.891 -0.4356 -0.3972  0.2349
 4421TIP3    H134754   1.385   6.067   2.841  0.6578  0.1811 -0.3692
 4421TIP3    H234755   1.274   6.160   2.886 -0.4046 -0.5492 -1.4181
 4422TIP3   OH234756   4.710   1.721   3.312  0.7004  0.3368  0.0854
 4422TIP3    H134757   4.726   1.812   3.285  0.2760 -0.1519 -2.0158
 4422TIP3    H234758   4.637   1.727   3.373 -0.0427  1.3496 -0.8507
 4423TIP3   OH234759   3.338   6.101  15.447 -0.1592 -0.3008  0.0833
 4423TIP3    H134760   3.243   6.095  15.445 -0.1152 -1.4229  0.7520
 4423TIP3    H234761   3.368   6.022  15.402  0.4621 -0.7200  1.2109
 4424TIP3   OH234762   0.111   6.502  12.283 -0.0830 -0.6516  0.2412
 4424TIP3    H134763   0.131   6.449  12.205  2.3327 -0.0415  0.3535
 4424TIP3    H234764   0.123   6.442  12.356 -0.1772 -0.6596  0.2506
 4425TIP3   OH234765   1.389   0.033   2.432  0.0925  0.4361 -0.6786
 4425TIP3    H134766   1.395  -0.046   2.379  0.9487  0.7011 -0.9948
 4425TIP3    H234767   1.447   0.017   2.506 -0.3559  0.4524 -0.3195
 4426TIP3   OH234768   3.224   4.221  15.559  0.2648 -0.3012  0.7388
 4426TIP3    H134769   3.259   4.308  15.581  1.7316 -0.7593  0.3412
 4426TIP3    H234770   3.193   4.230  15.469  1.3712 -0.4324  0.3255
 4427TIP3   OH234771   3.192   0.624  13.620 -0.2916 -0.4453 -0.1373
 4427TIP3    H134772   3.113   0.636  13.674  2.3869  2.5832  3.6432
 4427TIP3    H234773   3.235   0.547  13.656  0.2542  0.0908  0.3810
 4428TIP3   OH234774   3.340   0.829   3.432  0.2617 -0.0618 -0.1607
 4428TIP3    H134775   3.428   0.858   3.409  0.5701 -1.5840 -1.0785
 4428TIP3    H234776   3.286   0.853   3.356 -0.4069  1.9164  0.8743
 4429TIP3   OH234777   1.573   5.335  14.828  0.3768 -0.1413 -0.1967
 4429TIP3    H134778   1.482   5.357  14.805  0.7976 -0.3749 -2.3286
 4429TIP3    H234779   1.580   5.355  14.921 -2.2932 -1.4998  0.4176
 4430TIP3   OH234780   4.473   3.633   4.496 -0.4026 -0.1129 -0.0704
 4430TIP3    H134781   4.452   3.725   4.513 -0.8386 -0.5399  1.9193
 4430TIP3    H234782   4.410   3.607   4.428 -0.0175  1.1262 -0.9531
 4431TIP3   OH234783   6.560   2.803   4.935  0.0972  0.6226  0.3234
 4431TIP3    H134784   6.564   2.721   4.986  0.6552  0.1763 -0.4287
 4431TIP3    H234785   6.470   2.806   4.903  0.5576 -0.6646 -1.1900
 4432TIP3   OH234786   5.502   3.670  15.696 -0.8099  0.1844 -0.3854
 4432TIP3    H134787   5.595   3.655  15.715 -1.1423 -2.2516 -0.4804
 4432TIP3    H234788   5.491   3.639  15.606 -1.5328  1.4964 -0.7796
 4433TIP3   OH234789   5.070   1.478  15.579  0.3672  0.7150  0.1639
 4433TIP3    H134790   5.135   1.425  15.532 -0.7507  0.3270 -1.0059
 4433TIP3    H234791   5.111   1.564  15.587  0.3770  1.0169 -2.2178
 4434TIP3   OH234792   4.821   3.133   3.907 -0.4622 -0.0704 -0.0581
 4434TIP3    H134793   4.820   3.111   4.000  0.0374 -0.6531 -0.1855
 4434TIP3    H234794   4.754   3.077   3.868  0.3332 -0.8936 -0.2722
 4435TIP3   OH234795   6.166   3.562   3.701  0.5767  0.4338  0.1777
 4435TIP3    H134796   6.081   3.519   3.711  0.8668  0.0935  1.2820
 4435TIP3    H234797   6.218   3.501   3.647  0.9485 -0.5901  1.6429
 4436TIP3   OH234798   0.697   4.824  11.719 -0.2067 -0.3799  0.2045
 4436TIP3    H134799   0.775   4.861  11.678  0.4489  0.0497  1.7754
 4436TIP3    H234800   0.628   4.888  11.703  0.0399 -0.2170 -0.2071
 4437TIP3   OH234801   1.666   5.797  12.600  0.0880  0.0431 -0.0797
 4437TIP3    H134802   1.687   5.824  12.690  0.4976  1.8044 -0.6704
 4437TIP3    H234803   1.652   5.879  12.553 -1.7764 -0.8835 -1.2529
 4438TIP3   OH234804   0.302   0.660  10.449 -0.0744  0.0634 -0.2084
 4438TIP3    H134805   0.333   0.608  10.523 -1.2378  1.6320  1.4635
 4438TIP3    H234806   0.353   0.628  10.375  1.9361 -0.8390  1.4518
 4439TIP3   OH234807   5.765   5.518   2.415  0.0666  0.3578  0.3698
 4439TIP3    H134808   5.853   5.500   2.380 -0.1078 -0.6792  0.4293
 4439TIP3    H234809   5.767   5.483   2.504 -0.6044 -0.3151  0.1380
 4440TIP3   OH234810   2.154   6.164  12.177 -0.1372  0.1301 -0.4901
 4440TIP3    H134811   2.110   6.245  12.203  0.2460  0.3550 -0.5347
 4440TIP3    H234812   2.148   6.108  12.254  0.0160  0.3818 -0.2925
 4441TIP3   OH234813   3.521   5.927   4.716 -0.5150 -0.1408  0.4445
 4441TIP3    H134814   3.551   5.881   4.637  0.1128 -1.3331  1.3277
 4441TIP3    H234815   3.482   5.858   4.770 -1.0425  0.6700  1.1214
 4442TIP3   OH234816   6.760   4.977   1.020 -0.7111 -0.2214 -0.0044
 4442TIP3    H134817   6.694   4.983   0.951 -1.4576  1.2931  0.7539
 4442TIP3    H234818   6.714   4.934   1.092 -0.8779  0.7178  0.4792
 4443TIP3   OH234819   5.575   6.379   4.166  0.3265  0.3584 -0.0849
 4443TIP3    H134820   5.548   6.287   4.157  0.5921  0.2492  0.2145
 4443TIP3    H234821   5.552   6.402   4.255  4.6150 -0.9148  1.6107
 4444TIP3   OH234822   0.935   6.767  16.036 -0.1496  0.0667 -0.0536
 4444TIP3    H134823   0.841   6.753  16.027 -0.3442 -0.0197  1.7101
 4444TIP3    H234824   0.972   6.733  15.954 -1.4965 -1.5482 -0.0575
 4445TIP3   OH234825   2.561   5.541  16.770  0.4912  0.1204 -0.4753
 4445TIP3    H134826   2.499   5.606  16.801  0.9488  0.7638 -0.8778
 4445TIP3    H234827   2.647   5.575  16.795  0.8051  0.2163 -1.6205
 4446TIP3   OH234828   1.711   0.239   4.258 -0.1607 -0.0107 -0.0352
 4446TIP3    H134829   1.646   0.190   4.208 -0.3489 -0.1952  0.3909
 4446TIP3    H234830   1.665   0.267   4.337 -0.0639  0.8668 -0.2737
 4447TIP3   OH234831   6.573   4.978  12.289  0.1466 -0.3394 -0.0753
 4447TIP3    H134832   6.549   5.004  12.200  0.8993 -1.5336 -0.6447
 4447TIP3    H234833   6.535   4.891  12.301 -1.1326  0.3440  1.3011
 4448TIP3   OH234834   6.057   1.722   2.865  1.1062 -0.1796  0.0131
 4448TIP3    H134835   6.092   1.768   2.790  0.4948 -0.3245 -0.3696
 4448TIP3    H234836   5.967   1.701   2.841  1.1705 -1.0099  0.4256
 4449TIP3   OH234837   2.601   0.772   2.416 -0.0864  0.7341  0.2765
 4449TIP3    H134838   2.664   0.811   2.477 -0.5688 -0.5266  1.6406
 4449TIP3    H234839   2.654   0.737   2.345  0.5562  1.4941  0.3614
 4450TIP3   OH234840   4.850   0.740   5.284  0.5218 -0.1180  0.0407
 4450TIP3    H134841   4.906   0.671   5.321  1.0971 -0.5836 -1.6313
 4450TIP3    H234842   4.762   0.701   5.282  0.1037  0.5063  2.3819
 4451TIP3   OH234843   1.658   3.380  13.310 -0.1799  0.9433 -0.8476
 4451TIP3    H134844   1.692   3.363  13.222 -1.3988 -0.1163 -1.1343
 4451TIP3    H234845   1.736   3.380  13.366  0.4967  0.5075 -1.7663
 4452TIP3   OH234846   5.661   6.802   1.665 -0.0483 -0.7080  0.2667
 4452TIP3    H134847   5.569   6.808   1.689  0.0556  0.8411  0.3947
 4452TIP3    H234848   5.693   6.723   1.710 -1.4092 -1.5552 -0.1957
 4453TIP3   OH234849   4.071   6.438  16.892 -0.0141 -0.4663  0.0524
 4453TIP3    H134850   4.081   6.388  16.972 -1.9480 -1.7351 -0.4169
 4453TIP3    H234851   3.976   6.446  16.880  0.1652  2.9530 -0.1767
 4454TIP3   OH234852   2.583   6.070  14.206 -0.2972  0.2188 -0.1669
 4454TIP3    H134853   2.658   6.125  14.228  0.1630  0.2665 -1.7027
 4454TIP3    H234854   2.590   6.057  14.111 -1.5756 -0.7542 -0.1590
 4455TIP3   OH234855   5.184   0.143  13.798  0.1628 -0.1608 -0.0773
 4455TIP3    H134856   5.110   0.159  13.856  0.6519 -3.6271  1.7816
 4455TIP3    H234857   5.149   0.086  13.729  0.3188  1.3610 -1.4868
 4456TIP3   OH234858   2.180   6.062  13.481  0.5932  0.0476  0.0997
 4456TIP3    H134859   2.162   6.045  13.389 -0.3159  1.6058 -0.0526
 4456TIP3    H234860   2.095   6.086  13.518  0.9064 -0.7475  1.3992
 4457TIP3   OH234861   2.478   6.189  12.537 -0.6231 -0.0914  0.0045
 4457TIP3    H134862   2.449   6.236  12.615  0.5701  0.1100  0.3397
 4457TIP3    H234863   2.510   6.257  12.478  1.9649 -0.4580  0.8504
 4458TIP3   OH234864   3.328   2.198  13.783  0.0684  0.0747  0.3759
 4458TIP3    H134865   3.320   2.102  13.777 -2.8499  0.2713 -0.7414
 4458TIP3    H234866   3.306   2.218  13.873 -1.8427 -0.2266  0.0270
 4459TIP3   OH234867   3.046   6.029  14.997 -0.0003  0.5169 -0.1328
 4459TIP3    H134868   2.962   6.018  15.040  0.8323  3.0988  2.4322
 4459TIP3    H234869   3.037   5.981  14.914 -3.1651 -1.1221  1.0131
 4460TIP3   OH234870   6.232   5.495  16.409 -0.1817  0.4616 -0.2620
 4460TIP3    H134871   6.204   5.426  16.470 -2.4926  2.2571  0.8330
 4460TIP3    H234872   6.319   5.520  16.440 -0.0700 -0.7042  0.4265
 4461TIP3   OH234873   2.885   6.524  12.781  0.4267  0.5498  0.0721
 4461TIP3    H134874   2.899   6.511  12.687  0.7020  1.1786  0.0243
 4461TIP3    H234875   2.893   6.618  12.794 -1.4989  0.7049  0.4142
 4462TIP3   OH234876   3.572   4.683  16.158 -0.3175  0.7271 -0.2454
 4462TIP3    H134877   3.657   4.713  16.126 -0.7126  1.0146 -1.0420
 4462TIP3    H234878   3.552   4.607  16.103  0.3224 -0.5856  1.2418
 4463TIP3   OH234879   6.295   4.728  11.926 -0.3548  0.6231 -0.3903
 4463TIP3    H134880   6.326   4.745  11.837 -0.5279  1.1477 -0.3554
 4463TIP3    H234881   6.226   4.793  11.940 -1.5131 -0.5473 -0.4814
 4464TIP3   OH234882   2.876   2.633   4.650  0.1017 -0.4799  0.6700
 4464TIP3    H134883   2.800   2.688   4.670 -1.3636 -1.6608 -1.2081
 4464TIP3    H234884   2.920   2.678   4.578 -1.3959 -1.8520 -1.2303
 4465TIP3   OH234885   6.828   6.515   2.797  0.0537 -0.3116  0.2131
 4465TIP3    H134886   6.902   6.455   2.788  0.4324  0.3620 -1.7029
 4465TIP3    H234887   6.789   6.517   2.710 -1.5894  0.1555  0.9380
 4466TIP3   OH234888   2.922   3.834  14.043 -0.5433  0.6057 -0.2967
 4466TIP3    H134889   2.973   3.819  13.963 -1.3554 -0.0688 -0.7073
 4466TIP3    H234890   2.849   3.773  14.036  0.4421 -0.9340  1.9519
 4467TIP3   OH234891   6.761   3.758   0.314 -0.4463 -0.0653 -0.2457
 4467TIP3    H134892   6.747   3.676   0.361 -0.6741  0.3831  0.4885
 4467TIP3    H234893   6.699   3.755   0.241 -0.0144 -0.8178 -0.5848
 4468TIP3   OH234894   4.909   0.709   2.848  0.2841  0.1986 -0.2390
 4468TIP3    H134895   4.961   0.787   2.832  0.3528  0.2749  0.3553
 4468TIP3    H234896   4.818   0.738   2.838  0.2927  0.4552  0.4155
 4469TIP3   OH234897   4.286   5.422   0.267 -0.8309  0.5145 -0.1048
 4469TIP3    H134898   4.313   5.435   0.358 -1.3974  1.1382 -0.0191
 4469TIP3    H234899   4.325   5.339   0.242 -1.6878 -0.2894  1.1079
 4470TIP3   OH234900   6.387   6.827   0.442 -0.8090  0.5505  0.0009
 4470TIP3    H134901   6.352   6.916   0.440  0.0452  0.8833 -1.2070
 4470TIP3    H234902   6.334   6.780   0.376 -0.1710  0.6052 -0.5612
 4471TIP3   OH234903   0.478   5.199   5.432  0.2525  0.2751  0.4389
 4471TIP3    H134904   0.468   5.108   5.458 -0.1116  0.3210  0.4754
 4471TIP3    H234905   0.572   5.217   5.438  0.3614 -0.1851  0.1263
 4472TIP3   OH234906   2.047   2.488  13.668 -0.0007  0.3683  0.2755
 4472TIP3    H134907   2.121   2.549  13.667 -0.0897  0.5115  1.4826
 4472TIP3    H234908   2.070   2.423  13.734 -0.0072 -0.8055 -0.8499
 4473TIP3   OH234909   1.100   3.836   4.608  0.1271  0.0713 -0.1129
 4473TIP3    H134910   1.098   3.744   4.635  0.2539  0.2756  0.6118
 4473TIP3    H234911   1.186   3.868   4.636 -0.6841  0.9484  1.5106
 4474TIP3   OH234912   5.635   1.701   0.879  0.2521 -0.9279  0.7780
 4474TIP3    H134913   5.623   1.609   0.855  0.0612 -1.1031  1.5203
 4474TIP3    H234914   5.585   1.750   0.814  2.0010 -1.2074 -0.8857
 4475TIP3   OH234915   2.667   2.460   1.417  0.0455 -0.0898 -0.1383
 4475TIP3    H134916   2.585   2.476   1.370  0.2575  0.2380 -0.3950
 4475TIP3    H234917   2.734   2.504   1.365  0.2625  0.4019  0.5398
 4476TIP3   OH234918   6.709   3.782   1.697 -0.1140 -0.5127  0.0094
 4476TIP3    H134919   6.621   3.751   1.677 -1.4129  2.5583  0.4382
 4476TIP3    H234920   6.756   3.704   1.728 -1.8427 -2.7645 -2.6091
 4477TIP3   OH234921   3.023   0.871  14.623 -0.5875  0.2075  0.6268
 4477TIP3    H134922   3.094   0.865  14.559 -0.5080  1.4819  0.5601
 4477TIP3    H234923   3.066   0.856  14.708 -0.1855  1.0835  0.5990
 4478TIP3   OH234924   5.137   0.421  13.094 -0.2158  0.0733  0.2276
 4478TIP3    H134925   5.099   0.425  13.006  0.1188  0.0672  0.0799
 4478TIP3    H234926   5.225   0.456  13.083  0.0006 -0.3863  0.4659
 4479TIP3   OH234927   4.425   0.548  12.608 -0.3946 -0.1098 -0.0969
 4479TIP3    H134928   4.490   0.521  12.543  0.6951  0.1719  0.8480
 4479TIP3    H234929   4.340   0.529  12.566  0.2847 -1.5909 -0.8925
 4480TIP3   OH234930   3.734   1.085  13.194  0.2354 -0.3096  0.0475
 4480TIP3    H134931   3.775   1.003  13.164  1.6318 -0.1704  1.4267
 4480TIP3    H234932   3.737   1.142  13.117  2.4480 -0.4153 -0.0118
 4481TIP3   OH234933   0.165   5.960  11.319 -0.1557  0.3758 -0.5511
 4481TIP3    H134934   0.122   6.045  11.323 -0.9176 -0.0280  0.1311
 4481TIP3    H234935   0.231   5.969  11.251  1.3009  2.2045  0.9997
 4482TIP3   OH234936   3.925   2.318   4.791 -0.3211 -0.1155 -0.0950
 4482TIP3    H134937   3.881   2.380   4.849  0.4451 -0.4070  0.8100
 4482TIP3    H234938   4.009   2.300   4.833  0.7485  0.5035 -1.8321
 4483TIP3   OH234939   4.041   1.795  10.877 -0.2689  0.3373  0.2660
 4483TIP3    H134940   4.111   1.857  10.897  0.8080 -0.3521 -1.1635
 4483TIP3    H234941   4.080   1.709  10.894 -0.8828 -0.0414 -0.2148
 4484TIP3   OH234942   6.698   2.612  13.316  0.0492  0.1729  0.0510
 4484TIP3    H134943   6.689   2.602  13.411 -0.6110 -2.5224 -0.2213
 4484TIP3    H234944   6.719   2.524  13.285 -1.1994  0.6867 -2.4559
 4485TIP3   OH234945   5.761   6.658  15.041 -0.4362  0.2511 -0.4918
 4485TIP3    H134946   5.832   6.677  14.980  0.2058 -0.1765  0.1089
 4485TIP3    H234947   5.758   6.562  15.046 -1.1504  0.2619 -0.6205
 4486TIP3   OH234948   1.571   6.075   4.958 -0.0531  0.5487 -0.2137
 4486TIP3    H134949   1.607   6.158   4.928  1.8727  0.6441  2.0153
 4486TIP3    H234950   1.647   6.027   4.991 -1.4756 -0.9180  1.1071
 4487TIP3   OH234951   0.477   5.585  14.431 -0.4652 -0.1131 -0.2060
 4487TIP3    H134952   0.572   5.596  14.433 -0.3802 -0.7900 -0.0613
 4487TIP3    H234953   0.451   5.618  14.345 -0.2424  1.0411  0.1591
 4488TIP3   OH234954   4.318   0.544   3.732  0.0011  0.0034  0.0698
 4488TIP3    H134955   4.367   0.613   3.776 -0.3761 -0.5035  1.3351
 4488TIP3    H234956   4.353   0.463   3.769 -0.9605 -0.4101  0.1122
 4489TIP3   OH234957   0.455   4.675   5.280 -0.0202  0.1239 -0.2402
 4489TIP3    H134958   0.530   4.655   5.223  0.4739  0.3865  0.3010
 4489TIP3    H234959   0.401   4.735   5.229 -0.7189 -1.3486 -1.2777
 4490TIP3   OH234960   3.491   4.582  10.803 -0.2015  0.6398  0.3566
 4490TIP3    H134961   3.431   4.524  10.849 -0.0915  0.1058 -0.1625
 4490TIP3    H234962   3.551   4.613  10.870  1.2248 -1.7084  0.2930
 4491TIP3   OH234963   3.840   4.625   2.117 -0.3401 -0.0737 -0.1540
 4491TIP3    H134964   3.840   4.531   2.133  0.5331 -0.1042 -0.2634
 4491TIP3    H234965   3.928   4.643   2.084 -0.1133  0.9626  0.9556
 4492TIP3   OH234966   2.135   0.550  15.346  0.7570 -0.5403 -0.1556
 4492TIP3    H134967   2.103   0.506  15.425  2.5800 -0.5962  0.5970
 4492TIP3    H234968   2.229   0.537  15.348  0.9218  0.1513 -1.9474
 4493TIP3   OH234969   5.295   5.000   2.865 -0.2771  0.0858  0.1898
 4493TIP3    H134970   5.262   4.917   2.831 -1.5405  1.6504 -2.6618
 4493TIP3    H234971   5.297   4.987   2.960  1.2792 -3.7763 -0.1769
 4494TIP3   OH234972   3.724   2.141   0.173  0.2677  0.0757  0.0202
 4494TIP3    H134973   3.811   2.111   0.199  0.3592  1.3840  1.3644
 4494TIP3    H234974   3.677   2.153   0.256  0.5629  4.4898 -0.2457
 4495TIP3   OH234975   2.271   4.633  16.116 -0.3838  0.5393  0.3563
 4495TIP3    H134976   2.226   4.558  16.078  0.8246 -0.7264  1.3562
 4495TIP3    H234977   2.364   4.616  16.102 -0.0671  1.7432  0.7968
 4496TIP3   OH234978   4.663   0.492  15.160 -0.1796  0.3954  0.4669
 4496TIP3    H134979   4.711   0.536  15.230 -0.9046 -0.5455  1.5941
 4496TIP3    H234980   4.595   0.554  15.135  0.1030  0.7548  0.5735
 4497TIP3   OH234981   5.127   5.212  15.123 -0.0342 -0.4084 -0.0726
 4497TIP3    H134982   5.113   5.192  15.216 -0.6833  0.8731  0.1353
 4497TIP3    H234983   5.038   5.221  15.087  0.1950  1.0018 -0.3548
 4498TIP3   OH234984   6.644   3.522   1.666  0.0583  0.2075 -0.2718
 4498TIP3    H134985   6.735   3.504   1.642 -0.4229 -1.6629 -0.8049
 4498TIP3    H234986   6.617   3.446   1.716 -1.3517  0.5625 -0.4579
 4499TIP3   OH234987   5.633   2.653   3.575  0.4601 -0.7832  0.4064
 4499TIP3    H134988   5.638   2.612   3.661 -0.8520  1.3419  1.5767
 4499TIP3    H234989   5.721   2.689   3.560  1.2986 -2.8976 -0.1427
 4500TIP3   OH234990   6.653   3.512   4.566 -0.1314 -0.0875  0.1732
 4500TIP3    H134991   6.590   3.557   4.621  0.0981  0.6872 -0.1863
 4500TIP3    H234992   6.688   3.580   4.508  2.2110 -0.1251  1.4214
 4501TIP3   OH234993   0.760   6.722   2.227  0.3045  0.0397 -0.0981
 4501TIP3    H134994   0.821   6.791   2.202  0.4817  0.2537  0.8587
 4501TIP3    H234995   0.722   6.691   2.145  1.8239 -0.2137 -0.7375
 4502TIP3   OH234996   4.191   2.012   2.251 -0.2168 -0.1319 -0.2160
 4502TIP3    H134997   4.208   2.011   2.345  0.2659 -0.8238 -0.3051
 4502TIP3    H234998   4.185   1.920   2.226 -2.4202  0.0109 -0.5025
 4503TIP3   OH234999   0.795   6.509  11.196  0.0534 -0.0068  0.1439
 4503TIP3    H135000   0.887   6.521  11.221  0.1545 -0.0491 -0.1982
 4503TIP3    H235001   0.746   6.525  11.277  0.3953 -0.4737  0.4530
 4504TIP3   OH235002   0.080   2.708   0.080 -0.1556  0.1872  0.0738
 4504TIP3    H135003   0.062   2.648   0.151 -0.7466 -1.5757 -1.4819
 4504TIP3    H235004   0.175   2.705   0.068 -0.2425 -0.9027 -0.3713
 4505TIP3   OH235005   0.611   2.893  14.659  0.5111 -0.2336 -0.2603
 4505TIP3    H135006   0.638   2.864  14.747 -0.1678  0.2656  0.1254
 4505TIP3    H235007   0.516   2.889  14.660  0.3749  1.7440 -0.2450
 4506TIP3   OH235008   4.414   2.849   2.321 -0.6512 -0.1040  0.4142
 4506TIP3    H135009   4.342   2.808   2.369 -1.7165 -0.4022 -1.3617
 4506TIP3    H235010   4.371   2.916   2.267  0.7763  1.8155  1.5136
 4507TIP3   OH235011   0.032   3.899   4.278  0.3802 -0.0465 -0.5592
 4507TIP3    H135012   0.078   3.870   4.356  0.8005  1.9053 -0.0419
 4507TIP3    H235013   0.101   3.911   4.212  0.1570 -0.6355 -0.9094
 4508TIP3   OH235014   4.644   3.908   1.989 -0.1383  0.2063  0.0050
 4508TIP3    H135015   4.598   3.825   1.999 -1.1541  0.8223  0.6834
 4508TIP3    H235016   4.605   3.948   1.911  0.4328 -0.0016 -0.3906
 4509TIP3   OH235017   3.022   5.358   0.262 -0.2400 -0.4402  1.0018
 4509TIP3    H135018   3.020   5.395   0.350 -1.5087 -3.6253  2.4755
 4509TIP3    H235019   2.937   5.316   0.252  0.4375 -1.4550 -1.1918
 4510TIP3   OH235020   0.608   4.960   0.646 -0.3201 -0.0151  0.3651
 4510TIP3    H135021   0.585   5.012   0.723 -0.2086 -0.1304  0.4757
 4510TIP3    H235022   0.582   5.015   0.572 -0.0450  0.2706  0.4780
 4511TIP3   OH235023   0.012   4.945   0.679  0.3455  0.0513  0.0945
 4511TIP3    H135024  -0.022   4.876   0.735  1.0415  1.2538  2.0808
 4511TIP3    H235025  -0.060   4.966   0.620 -0.6788 -0.7389  1.0307
 4512TIP3   OH235026   4.057   2.165  14.656  0.2828  0.1635  0.2380
 4512TIP3    H135027   4.005   2.112  14.716 -0.0501  1.1222  0.8205
 4512TIP3    H235028   4.100   2.102  14.599  0.2976 -0.7414  1.2335
 4513TIP3   OH235029   4.597   4.870   0.277 -0.0913 -0.3348 -0.6681
 4513TIP3    H135030   4.596   4.838   0.367  0.4398 -0.0039 -0.5451
 4513TIP3    H235031   4.609   4.964   0.285 -4.0750  0.3787 -0.8906
 4514TIP3   OH235032   4.671   0.142   3.248 -0.2034  0.8657 -0.2979
 4514TIP3    H135033   4.735   0.196   3.202  0.2741  1.3989  0.9486
 4514TIP3    H235034   4.660   0.185   3.333  1.2157 -1.6814  1.3066
 4515TIP3   OH235035   0.027   0.048   4.503 -0.4077 -0.2124 -0.0280
 4515TIP3    H135036   0.097   0.018   4.445 -1.1777 -1.4979 -0.3434
 4515TIP3    H235037   0.020   0.142   4.486  0.6729 -0.2139 -0.5859
 4516TIP3   OH235038   2.575   6.707  11.923  0.3831  0.1788 -0.3186
 4516TIP3    H135039   2.565   6.796  11.889  2.1249  0.5429  0.0441
 4516TIP3    H235040   2.503   6.697  11.984  0.3902  1.4956 -0.0579
 4517TIP3   OH235041   1.023   3.368   3.035  0.7179 -0.2161  0.3992
 4517TIP3    H135042   1.001   3.414   2.954 -1.9184 -1.1034  0.5301
 4517TIP3    H235043   1.070   3.290   3.005  0.1623 -0.3098 -0.2490
 4518TIP3   OH235044   6.362   0.637  12.866  0.1464  0.2414 -0.5535
 4518TIP3    H135045   6.274   0.619  12.832  0.5015 -0.1850 -1.2730
 4518TIP3    H235046   6.398   0.702  12.806  0.7577 -0.4704 -0.9801
 4519TIP3   OH235047   4.883   2.690   5.235  0.1777 -0.0604  0.1890
 4519TIP3    H135048   4.934   2.760   5.194 -0.0389 -0.7091 -1.2541
 4519TIP3    H235049   4.795   2.726   5.243 -0.0368 -0.3001 -0.9620
 4520TIP3   OH235050   4.906   5.191   2.075  0.1859 -0.0426  0.1942
 4520TIP3    H135051   4.929   5.280   2.046  0.2507 -0.2556 -0.4290
 4520TIP3    H235052   4.928   5.190   2.168 -0.0897  0.6860  0.2779
 4521TIP3   OH235053   3.275   3.906   4.746 -0.4323 -0.2939 -0.2313
 4521TIP3    H135054   3.184   3.875   4.745  0.0901 -1.9409  0.3147
 4521TIP3    H235055   3.277   3.973   4.814 -1.3594  0.1898 -0.6609
 4522TIP3   OH235056   2.194   3.721   5.045 -0.5875 -0.3074  0.2199
 4522TIP3    H135057   2.120   3.705   5.104 -0.9397 -0.1850 -0.1916
 4522TIP3    H235058   2.270   3.726   5.104 -0.9666  0.0348  0.6850
 4523TIP3   OH235059   1.864   6.215   4.669 -0.1947 -0.4643  0.4507
 4523TIP3    H135060   1.795   6.262   4.716 -1.1265 -0.1897 -1.1121
 4523TIP3    H235061   1.817   6.153   4.613  0.8969 -1.2337  0.3575
 4524TIP3   OH235062   1.247   4.057  13.424 -0.0105  0.0061  0.5955
 4524TIP3    H135063   1.309   4.023  13.361  0.3566  0.8821  0.4607
 4524TIP3    H235064   1.298   4.067  13.505 -0.4756 -1.1115  1.0516
 4525TIP3   OH235065   2.806   0.050   4.713 -0.1073  0.1832 -0.0550
 4525TIP3    H135066   2.767  -0.017   4.769 -0.7405  1.5241  1.1664
 4525TIP3    H235067   2.731   0.093   4.671  0.3335 -0.4122 -1.5171
 4526TIP3   OH235068   6.289   6.459  14.102 -0.6538 -0.3101  0.0583
 4526TIP3    H135069   6.323   6.539  14.142  0.0357 -0.2718 -0.5833
 4526TIP3    H235070   6.245   6.488  14.023  0.9759 -0.6888 -1.0321
 4527TIP3   OH235071   2.433   0.649   1.385 -0.4724 -0.0353  0.3273
 4527TIP3    H135072   2.493   0.674   1.455 -1.7517  2.1297  0.7230
 4527TIP3    H235073   2.376   0.724   1.374 -2.4912 -1.6271 -0.7429
 4528TIP3   OH235074   0.409   1.037  12.463  0.1134 -0.4625 -0.2017
 4528TIP3    H135075   0.458   0.957  12.485  0.6365 -0.6555 -1.9311
 4528TIP3    H235076   0.476   1.099  12.435 -0.4290  0.0915 -0.2909
 4529TIP3   OH235077   4.139   0.337  16.236 -0.0044 -0.7472  0.0702
 4529TIP3    H135078   4.190   0.411  16.270  0.1145 -1.4514  1.4881
 4529TIP3    H235079   4.111   0.366  16.149  2.8277 -0.3523 -0.7954
 4530TIP3   OH235080   1.778   5.369   1.648 -0.6828 -0.3841 -0.4114
 4530TIP3    H135081   1.692   5.387   1.686 -0.7275  0.8941 -1.0922
 4530TIP3    H235082   1.806   5.452   1.610  0.9461 -0.7358 -0.0462
 4531TIP3   OH235083   1.658   3.721   2.919 -0.4753 -0.3103  0.4659
 4531TIP3    H135084   1.748   3.747   2.941 -0.7880  0.5731  0.7513
 4531TIP3    H235085   1.630   3.787   2.856 -0.0297 -2.0731 -1.7091
 4532TIP3   OH235086   4.733   6.267  11.363  0.1985 -0.3618  0.0558
 4532TIP3    H135087   4.828   6.279  11.369  0.3882 -1.4732 -0.4331
 4532TIP3    H235088   4.706   6.328  11.295  0.4459  0.4777  0.6922
 4533TIP3   OH235089   3.367   5.042   4.966  0.5949  0.0741 -0.3099
 4533TIP3    H135090   3.301   4.974   4.958  0.6139  0.1607 -1.3023
 4533TIP3    H235091   3.318   5.121   4.987  0.6224 -0.3287  1.4139
 4534TIP3   OH235092   2.362   0.214  15.103  0.0297  0.1766 -0.4025
 4534TIP3    H135093   2.401   0.135  15.140 -0.8183 -0.8703 -1.6557
 4534TIP3    H235094   2.268   0.203  15.116 -0.0361  1.6551  0.6461
 4535TIP3   OH235095   6.548   4.044   1.355  0.2873  0.4726 -0.0917
 4535TIP3    H135096   6.572   4.066   1.444 -0.2295  1.7228 -0.2382
 4535TIP3    H235097   6.507   3.957   1.362 -0.6394  0.9660  1.0479
 4536TIP3   OH235098   6.770   4.633   6.398 -0.4631 -0.2691  0.0080
 4536TIP3    H135099   6.714   4.705   6.427  0.0451 -0.0248  0.4116
 4536TIP3    H235100   6.800   4.659   6.311  1.4508  1.0793  0.9836
 4537TIP3   OH235101   3.739   4.475  13.494  0.1617 -0.2950 -0.0173
 4537TIP3    H135102   3.729   4.536  13.567 -0.5442 -0.8426  0.3523
 4537TIP3    H235103   3.660   4.422  13.496  0.1128 -0.2932 -1.2083
 4538TIP3   OH235104   0.594   6.602   4.274 -1.2117  0.4464  0.5425
 4538TIP3    H135105   0.518   6.577   4.326 -0.7109 -0.9290  0.6492
 4538TIP3    H235106   0.570   6.686   4.234 -1.6109  1.5573  2.9577
 4539TIP3   OH235107   4.814   4.772   2.394 -0.2604 -0.1936 -0.2355
 4539TIP3    H135108   4.738   4.725   2.361  1.4291 -2.5133 -1.0349
 4539TIP3    H235109   4.783   4.862   2.406 -2.5471 -0.5816 -2.4756
 4540TIP3   OH235110   3.121   0.138  12.499 -0.1958 -0.1890 -0.1196
 4540TIP3    H135111   3.065   0.211  12.474  1.1807  0.8347 -0.3760
 4540TIP3    H235112   3.090   0.064  12.447 -2.3509 -0.1336  0.9684
 4541TIP3   OH235113   1.085   0.418  11.280  0.0652 -0.2742  0.1520
 4541TIP3    H135114   0.991   0.436  11.287  0.2546  0.3999  1.1782
 4541TIP3    H235115   1.108   0.374  11.361  0.2030 -2.6750 -1.1078
 4542TIP3   OH235116   0.773   1.933   3.952 -0.5877  0.2737 -0.8559
 4542TIP3    H135117   0.833   1.978   4.012 -1.2243 -0.0960  0.0718
 4542TIP3    H235118   0.811   1.948   3.865  0.8049  0.1072 -0.2988
 4543TIP3   OH235119   1.928   1.121   6.155  0.1736 -0.0273  0.1229
 4543TIP3    H135120   1.855   1.176   6.182  0.1332 -0.0524  0.0636
 4543TIP3    H235121   1.898   1.031   6.171 -0.4034 -0.1294 -1.3462
 4544TIP3   OH235122   4.792   0.593  17.065  0.2287  0.7308 -0.3501
 4544TIP3    H135123   4.799   0.688  17.073  0.9434  0.6005  0.9103
 4544TIP3    H235124   4.712   0.570  17.113 -1.1733  0.8608 -2.4922
 4545TIP3   OH235125   6.034   4.112   4.709 -0.1951  0.2843 -0.2225
 4545TIP3    H135126   6.022   4.174   4.637  0.3840  0.3013 -0.3138
 4545TIP3    H235127   6.041   4.167   4.787 -0.4448  0.2895 -0.2037
 4546TIP3   OH235128   3.202   2.902  12.222  0.1507  0.6770 -0.3580
 4546TIP3    H135129   3.238   2.825  12.266 -1.1781  0.8838  1.1733
 4546TIP3    H235130   3.111   2.879  12.203 -0.3564  1.9239  0.3880
 4547TIP3   OH235131   2.249   4.503  14.169 -0.4899 -0.2804 -0.2378
 4547TIP3    H135132   2.224   4.487  14.078 -1.6811 -0.2160  0.0678
 4547TIP3    H235133   2.220   4.425  14.216  0.2041 -0.3546  0.0763
 4548TIP3   OH235134   2.489   2.288   3.654  0.3309  0.2347 -0.5030
 4548TIP3    H135135   2.398   2.289   3.685  0.6404 -0.7021  0.5051
 4548TIP3    H235136   2.513   2.195   3.654  1.0302  0.4007 -1.5660
 4549TIP3   OH235137   4.001   3.061   6.043 -0.0292  0.0596  0.1653
 4549TIP3    H135138   4.008   3.156   6.056 -1.7180  0.2565 -0.1996
 4549TIP3    H235139   4.038   3.023   6.122 -0.6303  1.0540  0.9471
 4550TIP3   OH235140   0.058   1.407  10.870  0.0834  0.1121  0.2727
 4550TIP3    H135141   0.124   1.337  10.877  0.1407  0.2651  1.3964
 4550TIP3    H235142   0.073   1.445  10.784  1.2019 -0.1215  0.3494
 4551TIP3   OH235143   1.487   6.266  15.734 -0.4544 -0.0505 -0.5852
 4551TIP3    H135144   1.445   6.245  15.817  0.4943  0.1250 -0.0514
 4551TIP3    H235145   1.531   6.185  15.708 -0.5993 -0.0523 -0.8338
 4552TIP3   OH235146   3.390   5.237   0.794 -0.4754 -0.4590  0.1492
 4552TIP3    H135147   3.307   5.191   0.806  0.3155 -1.8401  0.4568
 4552TIP3    H235148   3.441   5.214   0.872  0.1217  0.5666  0.0729
 4553TIP3   OH235149   5.603   1.853  12.208 -0.2954 -0.3381  0.0325
 4553TIP3    H135150   5.639   1.916  12.270 -3.0740  0.5627  0.8833
 4553TIP3    H235151   5.674   1.791  12.192  1.5362  1.2628  1.5681
 4554TIP3   OH235152   3.368   6.843  16.489 -0.6516  0.0310  0.7897
 4554TIP3    H135153   3.376   6.933  16.457 -1.8385 -0.2821 -0.4780
 4554TIP3    H235154   3.396   6.789  16.415  0.7468 -0.6618  1.7759
 4555TIP3   OH235155   3.297   4.682  13.739 -0.4187 -0.1275 -0.0353
 4555TIP3    H135156   3.360   4.739  13.695  0.5240 -0.7282  0.4972
 4555TIP3    H235157   3.257   4.632  13.669 -2.0311  1.8755 -0.6377
 4556TIP3   OH235158   0.487   2.012   6.449  0.6108 -0.4391 -0.5268
 4556TIP3    H135159   0.537   2.036   6.526 -0.5560  2.6444 -0.5932
 4556TIP3    H235160   0.524   2.066   6.378  0.2713 -1.6306 -1.6614
 4557TIP3   OH235161   2.128   0.470   1.727 -0.4927  0.0345  0.5680
 4557TIP3    H135162   2.173   0.474   1.642 -0.0381  0.9197  0.8491
 4557TIP3    H235163   2.088   0.383   1.728  0.3930 -0.3973 -0.1054
 4558TIP3   OH235164   0.288   3.577  12.624  0.4457 -0.4322  0.1566
 4558TIP3    H135165   0.335   3.562  12.542  2.4317  0.8148  0.9861
 4558TIP3    H235166   0.276   3.672  12.627  0.3550 -0.4632  1.2784
 4559TIP3   OH235167   4.773   4.090  11.226 -0.0491  0.3260 -0.2863
 4559TIP3    H135168   4.795   4.041  11.305 -0.3923 -0.9090 -0.9369
 4559TIP3    H235169   4.841   4.066  11.163 -0.1975  0.7261 -0.6059
 4560TIP3   OH235170   5.804   4.076   5.137  0.1811 -0.1933 -0.7577
 4560TIP3    H135171   5.840   4.093   5.224 -0.8293  2.0559 -0.6819
 4560TIP3    H235172   5.762   3.990   5.144  0.2401 -0.1079  0.9391
 4561TIP3   OH235173   4.140   6.015  10.157  0.5969  0.2495  0.3781
 4561TIP3    H135174   4.130   5.949  10.089  1.4914 -0.9846  1.3905
 4561TIP3    H235175   4.221   6.062  10.134  0.8786 -0.1426  0.5539
 4562TIP3   OH235176   5.427   5.449   4.384  0.2492 -0.4318  0.1581
 4562TIP3    H135177   5.384   5.484   4.462  1.6144  1.8562 -0.0118
 4562TIP3    H235178   5.512   5.418   4.416  0.8159  0.5155 -0.3553
 4563TIP3   OH235179   2.678   2.430  13.523 -0.1212  0.0549 -0.1465
 4563TIP3    H135180   2.768   2.445  13.553 -1.0038  0.7895  2.4114
 4563TIP3    H235181   2.673   2.474  13.438  1.8313  0.2586 -0.1984
 4564TIP3   OH235182   0.588   3.141  12.007  0.5685  0.9267 -0.0876
 4564TIP3    H135183   0.656   3.085  12.044 -0.6294  0.1275  0.9991
 4564TIP3    H235184   0.534   3.165  12.082 -0.2586  1.6702 -0.9002
 4565TIP3   OH235185   6.849   4.085  12.986 -0.0300  0.0516  0.6554
 4565TIP3    H135186   6.883   4.121  13.068 -1.0209  1.9464  0.2983
 4565TIP3    H235187   6.759   4.058  13.007 -0.2196  0.3578  0.2594
 4566TIP3   OH235188   5.042   1.662  11.642 -0.3295  0.2421  0.7617
 4566TIP3    H135189   4.970   1.716  11.609 -0.6456  0.3541  1.5928
 4566TIP3    H235190   5.086   1.629  11.564 -0.8285  0.7830  0.2426
 4567TIP3   OH235191   5.167   5.507  12.719  0.1762  0.3734 -0.3206
 4567TIP3    H135192   5.188   5.431  12.665  0.7595  0.0669  0.3165
 4567TIP3    H235193   5.246   5.561  12.716  0.3182  0.2201  0.4347
 4568TIP3   OH235194   3.742   5.760   3.321 -0.1647 -0.3999  0.4111
 4568TIP3    H135195   3.660   5.720   3.350 -0.6129  1.3094  1.6802
 4568TIP3    H235196   3.792   5.688   3.283 -2.7077 -1.3092 -1.5035
 4569TIP3   OH235197   6.411   1.910  13.785  0.3311  0.2250  0.1665
 4569TIP3    H135198   6.377   1.825  13.814  1.1455 -0.0342  0.4027
 4569TIP3    H235199   6.497   1.890  13.749  0.3167  0.8883 -0.2447
 4570TIP3   OH235200   1.995   0.899  16.071  0.0947 -0.2583 -0.0833
 4570TIP3    H135201   2.063   0.846  16.028  0.6764  1.5893 -1.5729
 4570TIP3    H235202   1.942   0.932  15.999 -2.1932 -1.2920  1.0282
 4571TIP3   OH235203   1.562   2.586  16.089  0.4090 -0.1717 -0.0037
 4571TIP3    H135204   1.625   2.542  16.147  0.4678 -1.6928 -1.1517
 4571TIP3    H235205   1.481   2.535  16.099 -0.4509  1.3286  0.9120
 4572TIP3   OH235206   1.678   3.585   2.628  0.4426 -0.3414 -0.3108
 4572TIP3    H135207   1.728   3.659   2.594  2.1881 -1.4935 -0.3721
 4572TIP3    H235208   1.703   3.579   2.720 -0.0699 -0.5645 -0.1813
 4573TIP3   OH235209   3.271   3.647   4.131  0.1418 -0.8736  0.0785
 4573TIP3    H135210   3.225   3.646   4.215  2.4781  2.5022  1.6214
 4573TIP3    H235211   3.223   3.712   4.079  1.1523  0.2152  0.4680
 4574TIP3   OH235212   6.505   0.051  12.817  0.3788 -0.3226  0.0771
 4574TIP3    H135213   6.461  -0.025  12.855  0.3788 -0.2283  0.2639
 4574TIP3    H235214   6.436   0.100  12.772  0.3652 -0.3902  0.0247
 4575TIP3   OH235215   5.083   2.969  12.483 -0.4826  0.1992  0.1292
 4575TIP3    H135216   5.009   2.920  12.446 -1.7808  0.8161  1.7620
 4575TIP3    H235217   5.086   2.942  12.574  0.1451  1.5347  0.5224
 4576TIP3   OH235218   6.277   2.996   0.455 -0.3959 -0.2924  0.1275
 4576TIP3    H135219   6.298   2.922   0.398 -0.1839  1.6664 -2.5083
 4576TIP3    H235220   6.186   3.018   0.434  0.2958  1.7136 -1.0667
 4577TIP3   OH235221   3.397   0.520  13.211 -0.6111 -0.3334 -0.0564
 4577TIP3    H135222   3.390   0.452  13.277 -0.4066 -1.1308 -0.8374
 4577TIP3    H235223   3.488   0.514  13.180 -0.5357  0.4276  0.0049
 4578TIP3   OH235224   1.525   5.635  16.978 -0.2772 -0.3185  0.1165
 4578TIP3    H135225   1.492   5.724  16.995  0.5244 -0.3711  2.2099
 4578TIP3    H235226   1.611   5.649  16.940 -0.3325 -0.1922  0.0350
 4579TIP3   OH235227   1.918   3.656  15.989 -0.1882 -0.5509 -0.1656
 4579TIP3    H135228   1.970   3.704  16.053  1.0543 -0.4318 -1.2306
 4579TIP3    H235229   1.921   3.565  16.019 -1.1842 -0.2416  0.9511
 4580TIP3   OH235230   1.600   1.259   3.631 -0.5360  0.2693 -0.8654
 4580TIP3    H135231   1.524   1.303   3.669 -1.4792 -0.1620 -2.1747
 4580TIP3    H235232   1.617   1.306   3.550  1.0824  0.8106 -0.2478
 4581TIP3   OH235233   2.226   0.728  12.069  0.2354 -0.0470  0.7391
 4581TIP3    H135234   2.166   0.790  12.026  0.4398 -0.7704 -0.6565
 4581TIP3    H235235   2.249   0.770  12.151 -0.8600  1.0189  0.5276
 4582TIP3   OH235236   6.426   0.153   5.734  0.2631  0.1569  0.1376
 4582TIP3    H135237   6.374   0.133   5.655 -0.9028  1.5346  0.5144
 4582TIP3    H235238   6.413   0.076   5.790 -0.9696  0.2333 -0.0041
 4583TIP3   OH235239   3.252   4.998  11.877 -0.0660 -0.6205 -0.2593
 4583TIP3    H135240   3.212   4.946  11.947 -0.4093 -1.8283 -1.2949
 4583TIP3    H235241   3.183   5.007  11.811  0.6036 -0.5838 -0.9770
 4584TIP3   OH235242   5.694   1.508  12.007 -0.7534 -0.3144 -0.0355
 4584TIP3    H135243   5.741   1.475  11.930 -0.6761 -0.0876 -0.0861
 4584TIP3    H235244   5.749   1.578  12.040 -0.9031 -0.2575  0.0913
 4585TIP3   OH235245   2.458   4.540   3.676  0.1781 -0.5737  0.4138
 4585TIP3    H135246   2.420   4.503   3.596  0.0242 -0.0125  0.2213
 4585TIP3    H235247   2.472   4.465   3.733 -0.6294 -0.8628  0.2389
 4586TIP3   OH235248   6.516   4.390  15.606  0.2892  0.0864  0.0546
 4586TIP3    H135249   6.474   4.367  15.523  2.4300 -0.3189 -0.9666
 4586TIP3    H235250   6.600   4.428  15.581  0.8499  0.2675  2.0495
 4587TIP3   OH235251   2.914   1.126  13.370 -0.3567 -0.0567  0.4689
 4587TIP3    H135252   2.985   1.132  13.306 -0.9971  0.4500 -0.2268
 4587TIP3    H235253   2.955   1.144  13.454  0.7815 -2.0984  0.4233
 4588TIP3   OH235254   4.273   5.230  15.127 -0.2595 -0.1866  0.4657
 4588TIP3    H135255   4.301   5.150  15.173  0.3132 -1.1199 -1.4145
 4588TIP3    H235256   4.184   5.211  15.098  0.0255 -0.3132 -0.3373
 4589TIP3   OH235257   6.669   6.603  12.835 -0.0217  0.2172 -0.0620
 4589TIP3    H135258   6.620   6.683  12.854  1.3472  1.4420 -1.3918
 4589TIP3    H235259   6.700   6.615  12.745  0.0324 -1.9326 -0.3799
 4590TIP3   OH235260   0.983   0.595   0.057 -0.0551  0.0085  0.2236
 4590TIP3    H135261   1.046   0.528   0.084 -0.5258  0.4407  2.5555
 4590TIP3    H235262   1.024   0.678   0.083 -1.5981  0.2850  1.8809
 4591TIP3   OH235263   6.651   3.224   1.317  0.3348  0.5123  0.5196
 4591TIP3    H135264   6.581   3.164   1.343  1.0097  0.0687  1.3324
 4591TIP3    H235265   6.728   3.169   1.305  0.9762  1.2011  1.3073
 4592TIP3   OH235266   6.089   3.418   1.640 -0.3568 -0.3268 -0.0930
 4592TIP3    H135267   6.093   3.410   1.544 -1.8543  1.4751 -0.3567
 4592TIP3    H235268   6.004   3.382   1.663 -0.5210  0.3714  0.4101
 4593TIP3   OH235269   1.393   1.994  11.610  0.1981  0.1484 -0.1124
 4593TIP3    H135270   1.381   2.047  11.531  2.5451 -0.8602 -1.2217
 4593TIP3    H235271   1.388   1.903  11.580  0.5253 -0.2640  1.0190
 4594TIP3   OH235272   2.278   1.925   5.740  0.1382  0.4451 -0.1758
 4594TIP3    H135273   2.317   1.880   5.815 -1.0292  0.5182  0.4979
 4594TIP3    H235274   2.289   1.864   5.667  0.4014 -0.0467  0.2685
 4595TIP3   OH235275   5.263   5.627  10.249 -0.6467 -0.1089  0.1360
 4595TIP3    H135276   5.279   5.547  10.299  1.4358 -0.4231 -0.9263
 4595TIP3    H235277   5.187   5.606  10.195 -0.6085 -1.0815  0.4327
 4596TIP3   OH235278   0.860   1.933  14.327 -0.3043  0.2865 -0.2254
 4596TIP3    H135279   0.844   1.989  14.251  1.2313  0.4664 -0.4314
 4596TIP3    H235280   0.802   1.858  14.314 -0.3562  0.5116 -1.3540
 4597TIP3   OH235281   1.327   0.121   1.885  0.4078 -0.1494  0.5883
 4597TIP3    H135282   1.364   0.037   1.858  0.7665 -0.0830  0.8637
 4597TIP3    H235283   1.338   0.123   1.980  2.2584  1.0581  0.3931
 4598TIP3   OH235284   5.341   2.269  12.441  0.5468  0.0728  0.0747
 4598TIP3    H135285   5.311   2.359  12.444 -0.0077 -0.1073 -0.0023
 4598TIP3    H235286   5.355   2.245  12.532  3.8645  1.2583  0.0340
 4599TIP3   OH235287   2.078   0.751  11.471 -0.1557  0.0237  0.0451
 4599TIP3    H135288   2.066   0.811  11.544  1.0078  2.1361 -1.4002
 4599TIP3    H235289   2.084   0.664  11.513 -1.2502  0.9239  2.2537
 4600TIP3   OH235290   3.826   4.919  15.690 -0.3653 -0.4507  0.7301
 4600TIP3    H135291   3.757   4.913  15.757 -1.1481 -1.8334 -0.1536
 4600TIP3    H235292   3.778   4.914  15.607  0.8391 -2.5062  0.0932
 4601TIP3   OH235293   0.187   5.968   5.203  0.3654 -0.1818  0.1516
 4601TIP3    H135294   0.167   6.055   5.238  1.7749 -0.7184  2.6048
 4601TIP3    H235295   0.148   5.908   5.266  0.1081 -1.3374 -1.0707
 4602TIP3   OH235296   5.933   6.323  13.556  0.0219 -0.1040 -0.2013
 4602TIP3    H135297   5.909   6.356  13.642  0.1331 -1.2125  0.2806
 4602TIP3    H235298   5.850   6.301  13.514  0.0346 -1.4394  0.4244
 4603TIP3   OH235299   3.965   2.852  11.020 -0.3088  0.0244 -0.5280
 4603TIP3    H135300   3.912   2.931  11.031 -1.0425 -0.5982  0.7256
 4603TIP3    H235301   4.047   2.882  10.982  0.1012  1.6607  1.4902
 4604TIP3   OH235302   5.588   5.409  16.080 -0.3961  0.1993  0.5510
 4604TIP3    H135303   5.632   5.396  16.164  0.0306  0.8715  0.4415
 4604TIP3    H235304   5.520   5.474  16.097 -0.6873 -0.0894  0.4977
 4605TIP3   OH235305   6.389   6.427  13.430  0.0230  0.5471  0.5196
 4605TIP3    H135306   6.353   6.344  13.398 -1.3979  1.0136  0.8183
 4605TIP3    H235307   6.312   6.483  13.443  1.0420  2.3906 -0.9743
 4606TIP3   OH235308   3.851   5.785  16.561 -0.3242 -0.0615  0.4927
 4606TIP3    H135309   3.810   5.765  16.645 -2.6147  1.6321 -0.1252
 4606TIP3    H235310   3.859   5.880  16.559 -1.0908  0.0215 -1.4993
 4607TIP3   OH235311   6.714   0.093   3.935 -0.0273 -0.5564  0.2639
 4607TIP3    H135312   6.798   0.065   3.970  0.0695 -1.3231 -0.5468
 4607TIP3    H235313   6.732   0.113   3.843 -1.0540 -2.4586 -0.4207
 4608TIP3   OH235314   1.287   0.441  12.346 -0.0497  0.0590  0.0127
 4608TIP3    H135315   1.377   0.424  12.373 -0.0660  0.3393  0.2484
 4608TIP3    H235316   1.262   0.520  12.394 -0.1832  0.3967 -0.6001
 4609TIP3   OH235317   0.475   2.071  13.753 -0.1160  0.2311  0.0653
 4609TIP3    H135318   0.512   2.144  13.802  1.4243  2.5057 -4.0045
 4609TIP3    H235319   0.539   2.000  13.764  1.3777  1.4486 -0.3924
 4610TIP3   OH235320   4.847   2.816  11.128 -0.1073 -0.1471  0.0708
 4610TIP3    H135321   4.801   2.859  11.200 -1.1910  1.1151 -1.3036
 4610TIP3    H235322   4.778   2.783  11.071  0.6638  0.6980 -1.4189
 4611TIP3   OH235323   2.648   3.399  17.047  0.6438  0.9290 -0.0276
 4611TIP3    H135324   2.583   3.335  17.077 -0.0848  1.6969  0.0617
 4611TIP3    H235325   2.703   3.350  16.986 -1.1795  0.7204 -1.5807
 4612TIP3   OH235326   5.318   6.321   0.771  0.2677 -0.3201 -0.1156
 4612TIP3    H135327   5.369   6.259   0.822  0.2397 -0.2618 -0.0171
 4612TIP3    H235328   5.296   6.391   0.832  0.2960 -0.2149 -0.2256
 4613TIP3   OH235329   6.444   2.782  10.378  0.4979  0.2574  0.7367
 4613TIP3    H135330   6.411   2.694  10.359  0.3874  0.1870  1.2484
 4613TIP3    H235331   6.380   2.820  10.438  0.7062  0.5785  0.7623
 4614TIP3   OH235332   2.840   0.873  10.955  0.1290  0.5261 -0.3513
 4614TIP3    H135333   2.886   0.896  11.035  0.1923 -0.2333 -0.1615
 4614TIP3    H235334   2.748   0.865  10.981  0.1292  0.4167 -0.3827
 4615TIP3   OH235335   2.978   2.098   4.005  0.0576 -0.6378 -0.0880
 4615TIP3    H135336   3.062   2.058   4.027 -0.6197 -1.5542  1.0195
 4615TIP3    H235337   2.989   2.191   4.024  0.0595 -1.1104  2.7923
 4616TIP3   OH235338   5.491   6.214  14.414 -0.7399  0.2990 -0.5103
 4616TIP3    H135339   5.538   6.223  14.497  1.0161  0.5663 -1.5017
 4616TIP3    H235340   5.542   6.151  14.364 -1.7877  0.1417 -1.4090
 4617TIP3   OH235341   1.487   3.451   4.002  0.1263 -0.2392  0.2911
 4617TIP3    H135342   1.498   3.468   3.908 -2.0065 -0.2439 -0.0124
 4617TIP3    H235343   1.563   3.397   4.025 -0.3484 -2.0393 -1.9182
 4618TIP3   OH235344   4.013   4.904   3.661 -0.0977  0.0168  0.2302
 4618TIP3    H135345   3.973   4.858   3.735  2.4309  0.0132  1.7314
 4618TIP3    H235346   3.983   4.994   3.669 -1.5985 -0.4301 -0.0988
 4619TIP3   OH235347   5.042   5.854  13.762  0.1085  0.3159  0.0372
 4619TIP3    H135348   5.014   5.787  13.824  0.0304  0.3241  0.0102
 4619TIP3    H235349   5.016   5.821  13.676 -0.2761  0.5599  0.0589
 4620TIP3   OH235350   6.616   4.203   4.248  0.1168  0.1101 -0.4087
 4620TIP3    H135351   6.585   4.113   4.259 -0.6654  0.4263  0.0787
 4620TIP3    H235352   6.711   4.197   4.257  0.2324 -0.8913 -1.9578
 4621TIP3   OH235353   2.862   1.036   0.722  0.1054 -0.0804  0.2021
 4621TIP3    H135354   2.775   1.057   0.688 -0.4597  1.2977  2.3018
 4621TIP3    H235355   2.901   1.121   0.742  1.1205 -0.7510  1.1789
 4622TIP3   OH235356   6.126   5.558   0.861 -0.0547  0.2834 -0.4750
 4622TIP3    H135357   6.030   5.555   0.863 -0.0331 -0.8002 -0.0808
 4622TIP3    H235358   6.151   5.510   0.783  0.1634  1.4196 -1.1239
 4623TIP3   OH235359   2.354   3.633  14.226 -0.2019  0.3211 -0.7074
 4623TIP3    H135360   2.358   3.540  14.204 -1.9638  0.2863 -1.0479
 4623TIP3    H235361   2.440   3.653  14.261 -0.1839 -1.7842  0.6772
 4624TIP3   OH235362   1.138   5.836  13.978 -0.2126 -0.0677 -0.0116
 4624TIP3    H135363   1.108   5.791  13.899  2.2324 -0.9396 -0.5167
 4624TIP3    H235364   1.142   5.928  13.952 -1.2987 -0.0839 -0.2751
 4625TIP3   OH235365   4.661   4.615   0.702 -0.1858  0.4009 -0.0728
 4625TIP3    H135366   4.731   4.558   0.671 -2.2736 -2.0284 -0.6518
 4625TIP3    H235367   4.632   4.661   0.624 -0.7364 -0.3557 -0.3281
 4626TIP3   OH235368   6.482   4.711   4.793 -0.1800 -0.6261 -0.0284
 4626TIP3    H135369   6.551   4.679   4.851 -0.4795 -0.6154  0.3386
 4626TIP3    H235370   6.404   4.662   4.820  0.0090 -1.8004 -1.4832
 4627TIP3   OH235371   2.665   2.644   3.132  0.1027 -0.2911  0.3057
 4627TIP3    H135372   2.654   2.555   3.167  0.5167  0.1495  1.6114
 4627TIP3    H235373   2.674   2.699   3.210 -0.7668  0.9911 -0.4645
 4628TIP3   OH235374   0.347   4.601   6.124 -0.0449  0.0481 -0.4416
 4628TIP3    H135375   0.311   4.519   6.090 -0.2891  0.1561 -0.4466
 4628TIP3    H235376   0.323   4.601   6.217 -1.1420  0.6933 -0.7051
 4629TIP3   OH235377   5.139   2.605   5.847 -0.5971 -0.1256 -0.1992
 4629TIP3    H135378   5.137   2.555   5.765 -0.1207  0.5415 -0.6258
 4629TIP3    H235379   5.108   2.543   5.913 -1.1784 -0.6154 -0.9079
 4630TIP3   OH235380   1.298   4.727   1.087 -0.4403  0.5399  0.5240
 4630TIP3    H135381   1.205   4.718   1.066  0.0868 -2.8785 -1.1250
 4630TIP3    H235382   1.341   4.728   1.001  1.1274  1.0519  1.2805
 4631TIP3   OH235383   5.488   0.791   3.113  0.0529 -0.4656  0.0392
 4631TIP3    H135384   5.504   0.717   3.055  1.0629  1.3078 -2.1041
 4631TIP3    H235385   5.468   0.752   3.198  0.0836 -3.1600 -1.1095
 4632TIP3   OH235386   5.182   3.955   2.342  0.0671  0.4119  0.0282
 4632TIP3    H135387   5.119   3.973   2.412 -0.7321  0.5882 -0.7123
 4632TIP3    H235388   5.267   3.957   2.385 -0.3851  0.8023  0.9382
 4633TIP3   OH235389   0.814   0.702  13.272 -0.6304 -0.9334 -0.3246
 4633TIP3    H135390   0.896   0.660  13.298  0.4700 -1.4104 -3.9239
 4633TIP3    H235391   0.823   0.793  13.301  0.6295 -1.2618  0.4080
 4634TIP3   OH235392   2.163   6.781  13.624  0.3141  0.1044  0.2383
 4634TIP3    H135393   2.153   6.860  13.572  0.9532 -0.3819 -0.6448
 4634TIP3    H235394   2.073   6.756  13.647  0.1025  0.9939  0.4057
 4635TIP3   OH235395   5.295   2.596  12.759  0.7910  0.2070 -0.0741
 4635TIP3    H135396   5.272   2.679  12.801  0.1010  1.4430 -2.7315
 4635TIP3    H235397   5.243   2.530  12.806  0.3902  1.4224  1.2620
 4636TIP3   OH235398   6.750   1.632   0.388  0.4278 -0.1011 -0.3383
 4636TIP3    H135399   6.794   1.549   0.405 -1.2213 -0.5549  2.4640
 4636TIP3    H235400   6.658   1.609   0.374  0.4699  1.0391 -3.0705
 4637TIP3   OH235401   5.275   3.590   2.127  0.6780  0.2408 -0.3844
 4637TIP3    H135402   5.263   3.514   2.069 -0.6514  0.0008  0.1793
 4637TIP3    H235403   5.368   3.611   2.119  0.7619 -0.5222 -1.6928
 4638TIP3   OH235404   0.591   3.021   1.521 -0.3713 -0.4556 -0.0377
 4638TIP3    H135405   0.624   2.936   1.552 -1.4376 -1.5020 -1.5872
 4638TIP3    H235406   0.496   3.014   1.530 -0.5297  0.1990 -1.0151
 4639TIP3   OH235407   4.511   1.172   3.143 -0.2818  0.0808  0.0034
 4639TIP3    H135408   4.445   1.166   3.074 -0.1049 -1.5941 -0.0730
 4639TIP3    H235409   4.501   1.090   3.192  1.7112 -0.2077  0.0036
 4640TIP3   OH235410   1.883   4.007  11.616  0.5138 -0.1490 -0.0438
 4640TIP3    H135411   1.924   3.947  11.678 -1.9874  0.0270  1.9774
 4640TIP3    H235412   1.898   4.094  11.652 -1.4189 -0.0773  0.7399
 4641TIP3   OH235413   3.225   2.631  11.155 -0.2055 -0.5200 -0.3155
 4641TIP3    H135414   3.164   2.683  11.103 -1.3947  0.5536  1.9888
 4641TIP3    H235415   3.184   2.626  11.242  1.9994 -1.6013  0.7419
 4642TIP3   OH235416   3.319   6.804   3.149 -0.2106 -0.1502 -0.0332
 4642TIP3    H135417   3.320   6.780   3.242  0.3048 -0.9269 -0.2313
 4642TIP3    H235418   3.382   6.744   3.108  1.5479  1.8649 -0.4810
 4643TIP3   OH235419   5.634   5.279   6.622  0.0997  0.7761  0.0347
 4643TIP3    H135420   5.566   5.345   6.632  0.0499  0.5315  1.4189
 4643TIP3    H235421   5.713   5.318   6.658 -0.4556 -0.7036  3.1858
 4644TIP3   OH235422   3.226   4.689   1.903 -0.1924  0.0776 -0.1906
 4644TIP3    H135423   3.216   4.754   1.834 -1.3500 -0.2535 -0.3500
 4644TIP3    H235424   3.163   4.620   1.881 -0.1391 -0.3238  0.8546
 4645TIP3   OH235425   5.928   1.707  10.940 -0.3175 -0.2818  0.3886
 4645TIP3    H135426   5.858   1.770  10.954  1.4311  1.9688 -0.2920
 4645TIP3    H235427   5.931   1.695  10.845 -1.2307 -2.1960  0.5613
 4646TIP3   OH235428   3.646   4.037  14.287  0.3040 -0.2583  0.4838
 4646TIP3    H135429   3.699   4.110  14.254 -0.5235  1.0859  1.9724
 4646TIP3    H235430   3.574   4.030  14.225 -0.2154  0.9726  0.9149
 4647TIP3   OH235431   0.660   1.183   4.677  0.0426 -0.9359  0.6859
 4647TIP3    H135432   0.708   1.193   4.595  0.3423 -0.6129  0.8966
 4647TIP3    H235433   0.603   1.260   4.682 -0.3249 -1.1940  0.5550
 4648TIP3   OH235434   5.756   2.107   0.297 -0.2462 -0.3736  0.2052
 4648TIP3    H135435   5.736   2.136   0.208 -1.1724 -0.9256  0.2152
 4648TIP3    H235436   5.831   2.049   0.288  0.4674  0.5726 -0.0451
 4649TIP3   OH235437   1.295   5.910   5.529  0.0196 -0.3082  0.1482
 4649TIP3    H135438   1.282   5.908   5.434  1.2747 -2.1840 -0.0529
 4649TIP3    H235439   1.246   5.833   5.560 -1.1139  0.7865  1.1723
 4650TIP3   OH235440   6.175   6.471   0.772 -0.2770  0.1538 -0.0668
 4650TIP3    H135441   6.225   6.442   0.849  1.3490  1.5948 -0.5148
 4650TIP3    H235442   6.188   6.402   0.707 -0.8702 -0.6114  0.6037
 4651TIP3   OH235443   6.006   5.572   2.051 -0.0520 -0.1675  0.0945
 4651TIP3    H135444   5.998   5.486   2.010 -1.3503  0.1779 -0.4181
 4651TIP3    H235445   6.030   5.553   2.142  2.0851 -0.9606 -0.5900
 4652TIP3   OH235446   4.496   6.229   5.101 -0.1009  0.2237 -0.0509
 4652TIP3    H135447   4.568   6.254   5.159  0.5657  1.1734 -1.2391
 4652TIP3    H235448   4.534   6.230   5.013 -1.3727  0.0087 -0.6308
 4653TIP3   OH235449   6.194   2.331   2.680  0.2391 -0.5878 -0.6895
 4653TIP3    H135450   6.125   2.366   2.736  0.8628 -3.0460  1.8343
 4653TIP3    H235451   6.236   2.409   2.643 -0.7638  1.1776  1.6045
 4654TIP3   OH235452   1.668   1.066   4.106  0.3889 -0.1256 -0.0999
 4654TIP3    H135453   1.610   1.118   4.051 -0.8911 -0.0648  1.2206
 4654TIP3    H235454   1.627   0.979   4.108  0.1324 -0.0020  1.0995
 4655TIP3   OH235455   3.184   6.541  11.878 -0.3930 -0.4996  0.2155
 4655TIP3    H135456   3.122   6.612  11.859 -1.1840 -0.7945  1.5592
 4655TIP3    H235457   3.223   6.566  11.962  0.9971 -0.5464 -0.4020
 4656TIP3   OH235458   1.351   3.142  15.333  0.0541 -0.3719 -0.2907
 4656TIP3    H135459   1.446   3.139  15.317  0.2432 -0.9848  0.8278
 4656TIP3    H235460   1.323   3.225  15.296  1.1285  0.0422 -0.2025
 4657TIP3   OH235461   6.355   3.668  15.707 -0.1842  0.3870 -0.9787
 4657TIP3    H135462   6.292   3.669  15.778 -0.8037 -2.5661 -1.3419
 4657TIP3    H235463   6.419   3.735  15.730  0.1662 -1.0342  2.8914
 4658TIP3   OH235464   2.260   2.687  16.426  0.0036 -0.5896 -0.7855
 4658TIP3    H135465   2.193   2.619  16.430  1.1620 -1.8370 -1.5808
 4658TIP3    H235466   2.222   2.755  16.370 -1.2534 -0.4508  0.1871
 4659TIP3   OH235467   0.993   1.505  14.412  0.6685  0.0247  0.4241
 4659TIP3    H135468   0.981   1.435  14.348 -0.2512  1.4185 -1.0478
 4659TIP3    H235469   1.076   1.546  14.387 -0.5864  1.7726 -1.2410
 4660TIP3   OH235470   2.842   6.474  11.589 -0.1001 -0.5738  0.4981
 4660TIP3    H135471   2.776   6.414  11.555 -1.2182  1.7733 -1.7386
 4660TIP3    H235472   2.910   6.476  11.522 -0.8729  1.8022 -0.3241
 4661TIP3   OH235473   0.228   1.024  14.882 -0.3300  0.1762 -0.2074
 4661TIP3    H135474   0.181   1.106  14.895  0.2251  0.4653 -0.0088
 4661TIP3    H235475   0.298   1.045  14.821 -0.6552 -0.3355 -0.7747
 4662TIP3   OH235476   4.178   2.283   2.116 -0.5230  0.4306 -0.3414
 4662TIP3    H135477   4.183   2.189   2.137 -1.1768  0.5156  0.2415
 4662TIP3    H235478   4.266   2.316   2.129 -1.0688  0.7365  3.6635
 4663TIP3   OH235479   6.597   4.995   2.644 -0.2225  0.5709 -0.1334
 4663TIP3    H135480   6.589   5.021   2.736  0.8044  0.6574 -0.0579
 4663TIP3    H235481   6.511   5.015   2.606 -2.6872 -4.2039  1.9333
 4664TIP3   OH235482   4.149   5.488   1.385 -0.1809  0.1962  0.1343
 4664TIP3    H135483   4.126   5.465   1.475  0.4454 -0.7697  0.0580
 4664TIP3    H235484   4.185   5.576   1.392  1.6173 -0.5722  1.1244
 4665TIP3   OH235485   5.300   5.180  14.239 -0.2324 -0.3522  0.2503
 4665TIP3    H135486   5.257   5.265  14.248 -1.8030 -0.8284 -1.9901
 4665TIP3    H235487   5.334   5.181  14.149  1.0194 -1.5537  0.6846
 4666TIP3   OH235488   2.930   1.849   2.426  0.4320 -0.1735 -0.4855
 4666TIP3    H135489   2.960   1.782   2.365 -1.5001 -0.2118 -1.4598
 4666TIP3    H235490   2.929   1.806   2.511  1.5843 -0.6099 -0.6751
 4667TIP3   OH235491   5.170   6.396   2.784  0.3760  0.0651 -0.1526
 4667TIP3    H135492   5.144   6.315   2.740 -1.3709  1.1785 -1.3139
 4667TIP3    H235493   5.163   6.375   2.878  2.4606 -1.8320 -0.3343
 4668TIP3   OH235494   3.127   6.225   0.011 -0.4358 -0.1253 -0.1968
 4668TIP3    H135495   3.177   6.260  -0.063  2.4625 -2.4060  0.5049
 4668TIP3    H235496   3.108   6.301   0.065 -0.2393  1.2171 -1.9071
 4669TIP3   OH235497   1.234   1.824   3.765 -0.0684 -0.2746 -0.0761
 4669TIP3    H135498   1.192   1.795   3.684 -0.6713 -1.0211  0.4828
 4669TIP3    H235499   1.198   1.766   3.832 -0.5062  1.1036  0.9260
 4670TIP3   OH235500   3.132   5.808  10.893 -0.1150 -0.2373 -0.0602
 4670TIP3    H135501   3.141   5.753  10.971  0.4411  2.1799  1.6917
 4670TIP3    H235502   3.198   5.775  10.832 -0.4397 -2.0684  0.5093
 4671TIP3   OH235503   6.313   1.246   2.323  0.0347 -0.2943  0.4348
 4671TIP3    H135504   6.388   1.265   2.380  0.4336 -2.0700  0.5636
 4671TIP3    H235505   6.349   1.190   2.254 -0.7848  0.4706 -0.6446
 4672TIP3   OH235506   6.352   0.106   5.042  0.8920 -0.1580 -0.1664
 4672TIP3    H135507   6.336   0.041   4.974  0.4321 -0.2119 -0.0126
 4672TIP3    H235508   6.400   0.060   5.110 -0.2104 -0.5907  0.3487
 4673TIP3   OH235509   3.176   3.293  15.578 -0.1710 -0.3456 -0.1847
 4673TIP3    H135510   3.215   3.232  15.515  0.7738 -0.4890  0.5201
 4673TIP3    H235511   3.202   3.380  15.545 -1.0957 -0.3276 -0.9088
 4674TIP3   OH235512   1.901   1.353  13.839  0.2833 -0.0576 -0.0830
 4674TIP3    H135513   1.902   1.444  13.868  0.6640  0.1090 -0.6037
 4674TIP3    H235514   1.987   1.340  13.798 -0.6043  0.0331 -2.0963
 4675TIP3   OH235515   4.039   5.378   6.125  0.1249  0.1256  0.0530
 4675TIP3    H135516   4.013   5.402   6.214  0.2633 -1.1003  0.4447
 4675TIP3    H235517   3.971   5.317   6.096  0.8491 -0.6405 -0.0999
 4676TIP3   OH235518   4.924   1.335   3.302 -0.1543 -0.0653  0.2045
 4676TIP3    H135519   4.844   1.284   3.311  0.4889 -1.0563  0.4625
 4676TIP3    H235520   4.929   1.355   3.208 -0.3889 -0.5229  0.0930
 4677TIP3   OH235521   0.948   3.741  15.334 -0.2368 -0.1196 -0.5940
 4677TIP3    H135522   0.916   3.700  15.253  1.4201  1.1123 -1.9502
 4677TIP3    H235523   0.934   3.834  15.320  1.4585  0.2313 -0.1368
 4678TIP3   OH235524   0.648   0.171   1.298  0.0452 -0.3970 -0.1825
 4678TIP3    H135525   0.610   0.201   1.215 -0.8856  1.3619  0.8229
 4678TIP3    H235526   0.743   0.183   1.286 -0.1212  0.4353 -0.7838
 4679TIP3   OH235527   1.962   6.806  14.640  0.1617  0.1834 -0.1650
 4679TIP3    H135528   1.995   6.750  14.570 -0.6310 -0.0508 -0.3676
 4679TIP3    H235529   1.960   6.893  14.602 -0.4838  0.0202 -0.5236
 4680TIP3   OH235530   5.224   0.176   1.507  0.4409 -0.5246 -0.0239
 4680TIP3    H135531   5.136   0.166   1.470  0.4650 -3.0274  0.4383
 4680TIP3    H235532   5.283   0.156   1.434  0.5965 -0.3963  0.0670
 4681TIP3   OH235533   1.312   6.008  13.122  0.3462  0.2734 -0.8734
 4681TIP3    H135534   1.261   5.996  13.041 -2.3351  0.4568  0.6556
 4681TIP3    H235535   1.336   6.101  13.122 -0.4141  0.4777 -1.0654
 4682TIP3   OH235536   0.778   1.606  12.831 -0.5559  0.6410 -0.0306
 4682TIP3    H135537   0.810   1.657  12.757 -1.0432  2.3864  0.8989
 4682TIP3    H235538   0.825   1.641  12.907  0.1389 -1.2905  0.4911
 4683TIP3   OH235539   0.241   2.127   1.689 -0.2582  0.0165  0.1685
 4683TIP3    H135540   0.233   2.094   1.778 -0.1401  0.3735  0.3112
 4683TIP3    H235541   0.267   2.218   1.699 -0.0168 -0.0054 -0.2325
 4684TIP3   OH235542   4.729   0.293  15.409 -0.6056 -0.0507  0.5532
 4684TIP3    H135543   4.768   0.215  15.368  2.7634  1.9992 -0.5423
 4684TIP3    H235544   4.797   0.325  15.469 -0.9221  3.1681 -0.6145
 4685TIP3   OH235545   4.054   0.356  12.546 -0.1336  0.2800 -0.1650
 4685TIP3    H135546   4.105   0.326  12.471 -0.3612  0.7371 -0.5118
 4685TIP3    H235547   3.982   0.294  12.553  1.1079 -1.1066  1.0909
 4686TIP3   OH235548   2.102   3.434  16.832 -0.2983 -0.0263  0.0662
 4686TIP3    H135549   2.111   3.433  16.737  0.8268  1.1981  0.1215
 4686TIP3    H235550   2.105   3.527  16.855  0.5288 -0.3450  1.3770
 4687TIP3   OH235551   4.502   2.838   1.212  0.0887  0.4197  0.1656
 4687TIP3    H135552   4.570   2.861   1.148  0.2511  2.2285  0.9247
 4687TIP3    H235553   4.421   2.869   1.173  0.2871  2.2914  1.1190
 4688TIP3   OH235554   1.759   1.900  15.585  0.2192 -0.2381  0.2113
 4688TIP3    H135555   1.851   1.908  15.609  0.0778 -1.2032  1.1648
 4688TIP3    H235556   1.714   1.965  15.639  0.3548  0.3702 -0.3986
 4689TIP3   OH235557   5.760   1.703   3.423 -0.4202  0.6184  0.2231
 4689TIP3    H135558   5.829   1.731   3.362 -0.0588  0.6647  0.6447
 4689TIP3    H235559   5.686   1.681   3.367  1.0242 -2.9021 -0.5671
 4690TIP3   OH235560   4.144   6.400   3.479  0.3159  0.4872  0.1880
 4690TIP3    H135561   4.163   6.464   3.410 -3.0225  2.3885  0.7773
 4690TIP3    H235562   4.120   6.320   3.432  0.9712  0.8210 -0.7456
 4691TIP3   OH235563   3.058   5.585   1.653 -0.1554 -0.1060 -0.9274
 4691TIP3    H135564   2.975   5.537   1.657  0.1389 -0.5272  1.3355
 4691TIP3    H235565   3.118   5.527   1.607 -0.2469 -1.2501  0.3506
 4692TIP3   OH235566   2.813   6.446   0.535  0.3162 -0.6087  0.6829
 4692TIP3    H135567   2.849   6.432   0.622 -0.9708 -0.0231  1.3300
 4692TIP3    H235568   2.806   6.358   0.497  2.6561 -0.7282  0.3984
 4693TIP3   OH235569   1.085   0.638   1.857  0.0986  0.2816  0.2075
 4693TIP3    H135570   1.033   0.716   1.839  0.4580  0.3192 -0.7255
 4693TIP3    H235571   1.031   0.586   1.916 -1.0566  0.2663 -0.8219
 4694TIP3   OH235572   4.468   5.239   2.660  0.1058 -0.2810  0.1610
 4694TIP3    H135573   4.555   5.257   2.694 -0.4880  1.3271  0.9029
 4694TIP3    H235574   4.455   5.146   2.676  2.0436 -0.7943 -0.8703
 4695TIP3   OH235575   3.090   3.533   5.123 -0.0899 -0.2203  0.3205
 4695TIP3    H135576   3.170   3.486   5.147 -0.9790 -3.5960 -2.6064
 4695TIP3    H235577   3.032   3.520   5.198  1.8092  2.1305  2.4148
 4696TIP3   OH235578   5.943   0.663  14.479  0.1844 -0.4135  0.6694
 4696TIP3    H135579   5.985   0.681  14.563  0.8278  1.3832  0.0127
 4696TIP3    H235580   5.885   0.738  14.466  1.7003  0.4897 -1.4529
 4697TIP3   OH235581   4.607   1.969   0.725  0.3284 -0.0178  0.2629
 4697TIP3    H135582   4.632   1.961   0.817  0.5051  0.4945  0.2650
 4697TIP3    H235583   4.547   1.896   0.709  0.3803 -0.1675  0.7573
 4698TIP3   OH235584   5.986   5.167  17.050  0.1011 -0.1873  0.2641
 4698TIP3    H135585   5.978   5.261  17.033 -0.9205 -0.3026  0.0676
 4698TIP3    H235586   6.048   5.162  17.123  1.8738  0.4953 -1.1080
 4699TIP3   OH235587   2.402   0.191   4.952  0.1555 -0.0338 -0.5573
 4699TIP3    H135588   2.389   0.096   4.952  0.8713 -0.2201 -3.3545
 4699TIP3    H235589   2.346   0.223   4.881  0.5860  1.5397 -0.2299
 4700TIP3   OH235590   5.508   5.918  12.812  0.2814 -0.7173 -0.7064
 4700TIP3    H135591   5.492   5.834  12.855  0.8466 -1.6410 -2.2198
 4700TIP3    H235592   5.424   5.941  12.773  0.0382 -0.3981 -0.0051
 4701TIP3   OH235593   1.989   5.390   3.142  0.2838  0.3536 -0.3104
 4701TIP3    H135594   2.063   5.443   3.111 -0.5510  0.2196 -2.7838
 4701TIP3    H235595   1.952   5.351   3.062 -1.6574 -0.6398  0.9808
 4702TIP3   OH235596   3.556   6.624   4.474 -0.0735 -0.1587 -0.3758
 4702TIP3    H135597   3.565   6.719   4.482 -0.7385 -0.2226  2.1063
 4702TIP3    H235598   3.646   6.593   4.462  0.7950  0.5883  2.9608
 4703TIP3   OH235599   3.989   2.835  12.118  0.2963  0.0549 -0.4457
 4703TIP3    H135600   3.911   2.821  12.172 -0.2493  1.4074 -0.8498
 4703TIP3    H235601   3.962   2.807  12.030  1.3470 -2.6601 -0.0105
 4704TIP3   OH235602   1.944   1.349  11.556 -0.2234 -0.0563 -0.2283
 4704TIP3    H135603   1.879   1.281  11.537 -1.1243  0.3580  1.2012
 4704TIP3    H235604   2.004   1.307  11.618 -1.3987  0.7126  1.5157
 4705TIP3   OH235605   0.138   0.241  15.868  0.1166 -0.4658 -0.2687
 4705TIP3    H135606   0.179   0.318  15.908 -1.4053 -0.3388  1.1531
 4705TIP3    H235607   0.181   0.232  15.783  2.0721  0.4586  0.5795
 4706TIP3   OH235608   0.173   2.746  15.369 -0.2108 -0.0592  0.3171
 4706TIP3    H135609   0.171   2.750  15.273  0.3190  3.1435  0.3481
 4706TIP3    H235610   0.082   2.728  15.394 -1.0278  2.1664 -0.7892
 4707TIP3   OH235611   4.802   2.346  16.059 -0.8506  0.6103  0.1033
 4707TIP3    H135612   4.838   2.386  15.980  0.1962  1.8596  1.1691
 4707TIP3    H235613   4.764   2.263  16.029 -0.5175  1.0679 -1.6979
 4708TIP3   OH235614   0.963   1.186   6.083 -0.1265 -0.0992 -0.7304
 4708TIP3    H135615   1.018   1.108   6.082  0.5135  0.3265 -0.1421
 4708TIP3    H235616   0.880   1.156   6.119 -0.2735 -0.7394 -1.5669
 4709TIP3   OH235617   6.551   0.042  11.268 -0.2992 -0.1675  0.4461
 4709TIP3    H135618   6.602  -0.039  11.265 -0.5181 -0.2740 -1.6037
 4709TIP3    H235619   6.577   0.090  11.190 -3.2632 -0.2113 -0.7008
 4710TIP3   OH235620   6.276   5.458  12.104 -0.1280 -0.1414  0.0654
 4710TIP3    H135621   6.328   5.533  12.133 -0.1936 -0.1620  0.2377
 4710TIP3    H235622   6.247   5.417  12.185  0.4769 -0.7603 -0.0284
 4711TIP3   OH235623   2.871   0.744  16.698  0.0048  0.1828  0.3259
 4711TIP3    H135624   2.917   0.749  16.782 -0.7106  0.7478  0.6975
 4711TIP3    H235625   2.927   0.793  16.637  0.2381  0.2710  0.6092
 4712TIP3   OH235626   5.963   3.767  10.512  0.7395  0.6216  0.8266
 4712TIP3    H135627   6.012   3.693  10.477 -0.3958  1.1945 -2.2879
 4712TIP3    H235628   6.029   3.827  10.544  1.8001 -0.5788  0.9814
 4713TIP3   OH235629   5.339   6.804  13.928  0.0921 -0.0258  0.6176
 4713TIP3    H135630   5.294   6.801  14.012 -1.4922 -0.9725 -0.2001
 4713TIP3    H235631   5.350   6.898  13.910  0.9809  0.1828  2.1078
 4714TIP3   OH235632   1.156   2.901  13.065  0.6108 -0.4799  0.7349
 4714TIP3    H135633   1.219   2.924  12.997 -0.2035  0.9547  0.4182
 4714TIP3    H235634   1.144   2.981  13.115 -1.3112 -0.5565  0.4787
 4715TIP3   OH235635   6.064   0.069   2.662 -0.7583  0.4037 -0.3434
 4715TIP3    H135636   5.983   0.021   2.674 -0.1298 -1.2741 -2.1598
 4715TIP3    H235637   6.061   0.100   2.571  1.0125 -0.5969 -0.8048
 4716TIP3   OH235638   3.974   4.483  13.344  0.1120 -0.2295  0.3389
 4716TIP3    H135639   3.886   4.466  13.378  0.4857  1.5598  2.3951
 4716TIP3    H235640   3.965   4.566  13.297  0.1781 -1.4098 -1.9255
 4717TIP3   OH235641   1.700   1.904   3.666  0.1389  0.2222 -0.5458
 4717TIP3    H135642   1.711   1.878   3.574  0.9443  1.4731 -0.8309
 4717TIP3    H235643   1.700   2.000   3.664 -2.9741  0.3765  0.4138
 4718TIP3   OH235644   1.793   3.165  16.372 -0.1945 -0.1786  0.2157
 4718TIP3    H135645   1.837   3.166  16.287 -0.3562  0.0182  0.1352
 4718TIP3    H235646   1.714   3.218  16.359 -1.3924 -1.9754 -0.1407
 4719TIP3   OH235647   2.149   3.470  12.444  0.2452  0.3218  0.2532
 4719TIP3    H135648   2.084   3.486  12.513 -0.7412 -1.3114 -0.2475
 4719TIP3    H235649   2.203   3.399  12.478  1.1473  0.9792  0.2245
 4720TIP3   OH235650   1.679   5.518   1.439 -0.4772  0.2003  0.4803
 4720TIP3    H135651   1.759   5.494   1.393 -0.1575  0.3719  0.9392
 4720TIP3    H235652   1.683   5.614   1.446  0.5167  0.0755  2.6745
 4721TIP3   OH235653   2.997   1.565   2.301  0.1543  0.0028  0.0991
 4721TIP3    H135654   3.086   1.560   2.265  0.5560 -0.9240  1.1637
 4721TIP3    H235655   2.942   1.520   2.237  0.6345 -0.4073 -0.0268
 4722TIP3   OH235656   5.682   4.169  11.157 -0.2266  0.5359 -0.8043
 4722TIP3    H135657   5.617   4.207  11.217 -1.2967 -1.0362 -0.9158
 4722TIP3    H235658   5.669   4.074  11.165  0.8562  0.2512 -2.1657
 4723TIP3   OH235659   5.561   5.504   5.401  0.1611 -0.1080  0.0287
 4723TIP3    H135660   5.475   5.504   5.359 -0.4358 -1.4505  1.2018
 4723TIP3    H235661   5.556   5.576   5.464 -0.0335 -0.0717 -0.0263
 4724TIP3   OH235662   5.528   5.309   3.451  0.7114 -0.4282 -0.1388
 4724TIP3    H135663   5.603   5.360   3.482  0.5581 -0.9362  1.1344
 4724TIP3    H235664   5.480   5.287   3.531 -1.0745  0.3064 -0.9538
 4725TIP3   OH235665   3.728   6.044  10.654 -0.5353  1.0121  0.0270
 4725TIP3    H135666   3.787   6.004  10.717  1.6890  0.6859 -2.1367
 4725TIP3    H235667   3.640   6.027  10.690  0.5560 -0.3017  2.3100
 4726TIP3   OH235668   6.716   2.798  11.197  0.7986 -0.1568 -0.0285
 4726TIP3    H135669   6.709   2.772  11.289  0.8493  2.1732  0.6936
 4726TIP3    H235670   6.802   2.766  11.170  0.4902 -1.4843  0.5016
 4727TIP3   OH235671   3.157   3.073   0.578  0.2916  0.4809  0.1489
 4727TIP3    H135672   3.092   3.070   0.648 -0.7506  0.5354 -0.7780
 4727TIP3    H235673   3.217   3.143   0.603  1.2894 -0.9683  2.0908
 4728TIP3   OH235674   4.527   3.138  14.497  0.5637  0.5333 -0.1974
 4728TIP3    H135675   4.611   3.179  14.518  0.6856  0.8397 -1.2122
 4728TIP3    H235676   4.462   3.192  14.542  0.9982 -0.9926  2.4641
 4729TIP3   OH235677   2.644   1.799   3.431  0.8121 -0.2478 -0.2847
 4729TIP3    H135678   2.640   1.777   3.338  1.3601 -0.2709 -0.3072
 4729TIP3    H235679   2.723   1.851   3.440  1.1365 -0.8189  0.2773
 4730TIP3   OH235680   3.597   2.366   4.301  0.0814 -0.1376  0.0185
 4730TIP3    H135681   3.679   2.415   4.296  0.0461 -0.1795 -1.6489
 4730TIP3    H235682   3.618   2.288   4.352  1.2557 -0.4422 -0.8824
 4731TIP3   OH235683   1.814   5.614  13.432 -0.0943  0.4539  0.2729
 4731TIP3    H135684   1.796   5.701  13.395 -0.8815  0.3155  0.3040
 4731TIP3    H235685   1.742   5.599  13.493  0.4071  0.0601  0.7785
 4732TIP3   OH235686   5.327   3.442  13.318  0.2329 -0.0652 -0.0120
 4732TIP3    H135687   5.281   3.393  13.251  0.7979 -2.1583  1.0294
 4732TIP3    H235688   5.296   3.532  13.309  0.3310 -0.2604 -3.0546
 4733TIP3   OH235689   2.048   2.463   1.352 -0.5996 -0.1821  0.1790
 4733TIP3    H135690   2.116   2.528   1.335  0.0918 -1.5536 -2.8909
 4733TIP3    H235691   2.084   2.409   1.422  0.3784  0.5979  0.3071
 4734TIP3   OH235692   6.780   5.228  11.404  0.2432  0.2085 -0.1725
 4734TIP3    H135693   6.835   5.168  11.355 -0.1050 -0.9828  0.8411
 4734TIP3    H235694   6.839   5.268  11.469  0.2523  0.1517 -0.1455
 4735TIP3   OH235695   6.535   3.593   4.131 -0.3441  0.3227  0.5291
 4735TIP3    H135696   6.589   3.558   4.061 -1.3287 -0.9993  0.3829
 4735TIP3    H235697   6.491   3.669   4.092 -0.3141  0.0434 -0.0631
 4736TIP3   OH235698   2.211   2.423   3.706 -0.8890 -0.4121  0.2823
 4736TIP3    H135699   2.154   2.405   3.631 -1.5735 -1.4435  1.0170
 4736TIP3    H235700   2.153   2.462   3.771 -0.6305 -0.9375  0.8299
 4737TIP3   OH235701   2.770   2.969   1.052 -0.4503  0.0040 -0.0621
 4737TIP3    H135702   2.807   3.044   1.006 -0.9726 -0.2421 -0.9077
 4737TIP3    H235703   2.845   2.926   1.093  0.0649  0.1248 -0.8486
 4738TIP3   OH235704   1.692   3.828  13.210 -1.2459  0.9891 -0.0506
 4738TIP3    H135705   1.768   3.794  13.163 -0.5669  2.3870 -0.0110
 4738TIP3    H235706   1.703   3.797  13.300 -0.6148  1.3243 -0.0049
 4739TIP3   OH235707   2.894   0.622  11.283  0.0956 -0.6175 -0.1509
 4739TIP3    H135708   2.917   0.608  11.375  1.5820 -1.5630 -0.6319
 4739TIP3    H235709   2.806   0.659  11.286 -0.6309 -2.2897  1.6140
 4740TIP3   OH235710   2.662   6.041  16.148 -0.1173  0.0665  0.5713
 4740TIP3    H135711   2.605   6.025  16.073 -0.1379  1.0885  0.3495
 4740TIP3    H235712   2.613   6.006  16.223 -1.1751  1.1453  0.4246
 4741TIP3   OH235713   3.872   1.138  14.280 -0.0990  0.2726  0.5713
 4741TIP3    H135714   3.847   1.205  14.343  0.9761  0.6638  0.6054
 4741TIP3    H235715   3.912   1.186  14.207  1.5241 -0.3460  0.9955
 4742TIP3   OH235716   1.282   2.860   5.480  0.2449  0.5965 -0.3658
 4742TIP3    H135717   1.198   2.907   5.481 -1.9559 -2.9534 -0.6138
 4742TIP3    H235718   1.307   2.857   5.388  0.2927  1.0902 -0.3693
 4743TIP3   OH235719   6.204   6.169   3.745 -0.1680 -0.2678 -0.1720
 4743TIP3    H135720   6.278   6.166   3.806  0.7855  1.0826 -1.2191
 4743TIP3    H235721   6.128   6.185   3.801  0.6782  0.9005  0.6928
 4744TIP3   OH235722   5.268   4.174  14.925  0.5244 -0.1556 -0.2612
 4744TIP3    H135723   5.310   4.224  14.994 -2.6541  0.6793  1.2797
 4744TIP3    H235724   5.323   4.186  14.848  3.1932  0.4406  1.6198
 4745TIP3   OH235725   3.499   1.115  17.087 -0.5743 -0.0743 -0.1347
 4745TIP3    H135726   3.480   1.024  17.064 -0.5326 -0.4447  1.2239
 4745TIP3    H235727   3.530   1.111  17.177 -0.3858  1.2737 -0.1226
 4746TIP3   OH235728   6.670   6.139  13.115 -0.2228 -0.2049  0.5509
 4746TIP3    H135729   6.742   6.080  13.091  1.2129  0.7876  2.2128
 4746TIP3    H235730   6.664   6.200  13.041 -0.1273 -0.9707 -0.1062
 4747TIP3   OH235731   3.048   2.451  11.327  0.8961  0.1479 -0.1653
 4747TIP3    H135732   2.953   2.437  11.336  0.8211  0.4400 -0.4584
 4747TIP3    H235733   3.084   2.432  11.413  0.5582  0.1156 -0.0303
 4748TIP3   OH235734   3.324   3.399   4.919  0.4968  0.5846 -0.0206
 4748TIP3    H135735   3.308   3.493   4.927 -2.8294  0.2462 -1.1992
 4748TIP3    H235736   3.310   3.365   5.007 -1.2640  0.9213 -0.1261
 4749TIP3   OH235737   3.636   3.759   5.133  0.1290 -0.1395 -1.2725
 4749TIP3    H135738   3.658   3.793   5.219 -0.2160  0.2953 -1.3567
 4749TIP3    H235739   3.713   3.706   5.108  0.6051  0.4557 -1.0852
 4750TIP3   OH235740   5.939   2.825  16.032  0.2695  0.0316 -0.4019
 4750TIP3    H135741   5.868   2.773  15.995  0.8114  0.3380 -1.9038
 4750TIP3    H235742   5.903   2.914  16.037 -0.1659 -0.1951  0.8402
 4751TIP3   OH235743   3.410   6.348  12.265  0.2391 -0.2001  0.6129
 4751TIP3    H135744   3.342   6.312  12.208  0.5688  0.0816  0.0262
 4751TIP3    H235745   3.435   6.276  12.323  1.3379 -1.1512 -0.9528
 4752TIP3   OH235746   6.040   3.619   0.290 -0.8293 -0.0945 -0.4484
 4752TIP3    H135747   6.120   3.607   0.240 -0.8619  1.6348 -0.9656
 4752TIP3    H235748   6.059   3.692   0.349 -1.9832  0.2898 -0.5221
 4753TIP3   OH235749   3.520   3.345   5.568  0.0849  0.5839 -0.4218
 4753TIP3    H135750   3.429   3.316   5.559  0.6791 -1.8317  0.4914
 4753TIP3    H235751   3.564   3.305   5.493  0.6694  0.4221  0.0039
 4754TIP3   OH235752   6.718   1.996   1.968  0.4569 -0.2214 -0.3624
 4754TIP3    H135753   6.756   2.076   2.005 -1.1589  0.9135 -1.0616
 4754TIP3    H235754   6.630   1.993   2.004  0.6949 -2.1159  0.2131
 4755TIP3   OH235755   1.283   4.742  15.105  0.1061 -0.6453 -0.9189
 4755TIP3    H135756   1.319   4.683  15.039  0.3032 -0.1259 -1.2847
 4755TIP3    H235757   1.192   4.755  15.080  0.0494 -0.8292 -0.8108
 4756TIP3   OH235758   4.337   6.086  13.095  0.0696  0.3754 -0.7725
 4756TIP3    H135759   4.413   6.061  13.043  1.5076  0.7789  1.0482
 4756TIP3    H235760   4.360   6.170  13.133 -0.8527  0.0294  0.6352
 4757TIP3   OH235761   5.257   0.693  12.449  0.2309 -0.4595 -0.0677
 4757TIP3    H135762   5.257   0.602  12.479 -0.7467 -0.2423  0.6247
 4757TIP3    H235763   5.294   0.742  12.523 -0.8183 -0.0967  0.2241
 4758TIP3   OH235764   5.253   0.548  17.023 -0.3511 -0.8957  0.5051
 4758TIP3    H135765   5.306   0.548  16.944 -0.5361 -2.6194  0.3270
 4758TIP3    H235766   5.285   0.622  17.074  1.1748 -0.9713 -0.2875
 4759TIP3   OH235767   5.904   3.260   2.572 -0.0370  0.1447 -0.1375
 4759TIP3    H135768   5.821   3.243   2.529 -0.9553  0.4768  1.4257
 4759TIP3    H235769   5.938   3.339   2.530  0.0401 -0.5819 -1.5031
 4760TIP3   OH235770   6.310   3.178  12.806 -0.5410  0.0117  0.1452
 4760TIP3    H135771   6.375   3.108  12.800  1.3883  1.7141 -0.0570
 4760TIP3    H235772   6.226   3.133  12.814  0.6637 -2.2958  0.5647
 4761TIP3   OH235773   1.748   5.353   6.198  0.1311  0.4478 -0.4081
 4761TIP3    H135774   1.662   5.387   6.171  0.3226  0.0808 -1.5462
 4761TIP3    H235775   1.797   5.431   6.223  0.2557  0.9787 -2.1188
 4762TIP3   OH235776   2.717   5.090  10.960  0.0129 -0.4071 -0.1054
 4762TIP3    H135777   2.766   5.112  10.881 -1.4260  1.4676 -0.5547
 4762TIP3    H235778   2.717   4.994  10.963 -1.4015 -0.6513 -3.4253
 4763TIP3   OH235779   0.012   3.475   2.621  0.0192  0.4332 -0.0006
 4763TIP3    H135780   0.068   3.553   2.616  1.5187 -0.5050  1.1514
 4763TIP3    H235781   0.021   3.433   2.536  0.4155  0.7504 -0.1189
 4764TIP3   OH235782   6.814   1.768   3.348  0.2023 -0.5282  0.1240
 4764TIP3    H135783   6.837   1.860   3.339 -0.3559 -0.0529  2.7878
 4764TIP3    H235784   6.719   1.768   3.361 -0.4862 -1.8751 -3.5364
 4765TIP3   OH235785   5.739   0.216  15.079 -0.0849 -0.1076  0.9066
 4765TIP3    H135786   5.719   0.177  14.994 -1.4949 -0.3347  1.3157
 4765TIP3    H235787   5.673   0.284  15.090  0.4060  0.2635  1.5994
 4766TIP3   OH235788   2.721   5.778  11.350 -0.1174 -0.0609 -0.6332
 4766TIP3    H135789   2.748   5.754  11.261  0.3476  2.7376 -1.3209
 4766TIP3    H235790   2.626   5.765  11.350  0.0050 -1.1203 -1.1391
 4767TIP3   OH235791   6.157   5.474   4.412 -0.4385  0.1956 -0.0347
 4767TIP3    H135792   6.115   5.559   4.414 -0.1116  0.3610 -0.1820
 4767TIP3    H235793   6.088   5.412   4.438 -0.4930  0.5764  0.7423
 4768TIP3   OH235794   3.572   5.130  16.114  0.0101  0.6991 -0.3905
 4768TIP3    H135795   3.501   5.068  16.127 -1.0498  1.5567 -1.8198
 4768TIP3    H235796   3.608   5.145  16.202  1.3864 -3.1031 -0.1137
 4769TIP3   OH235797   0.310   4.222   4.978 -0.2382  0.2749 -0.1136
 4769TIP3    H135798   0.311   4.204   4.884 -0.0599  0.9492 -0.2458
 4769TIP3    H235799   0.283   4.313   4.985  3.8736  1.6769  0.2053
 4770TIP3   OH235800   4.127   2.237   0.895  0.2808  0.4701 -0.1267
 4770TIP3    H135801   4.085   2.215   0.812  0.5215 -0.6211  0.0251
 4770TIP3    H235802   4.212   2.273   0.871  0.0498  0.8597 -0.3706
 4771TIP3   OH235803   0.675   3.721  11.710 -0.0511 -0.2774  0.4629
 4771TIP3    H135804   0.646   3.786  11.646  1.7896 -0.6965 -0.8696
 4771TIP3    H235805   0.596   3.674  11.734 -1.0680  1.0325 -0.1702
 4772TIP3   OH235806   0.146   1.309   3.404 -0.0038 -0.2884 -0.1480
 4772TIP3    H135807   0.210   1.283   3.471 -1.1091 -0.4250  0.8872
 4772TIP3    H235808   0.109   1.391   3.436  0.8546  0.7227 -1.6054
 4773TIP3   OH235809   2.536   5.035   5.356  0.2115 -0.1301 -0.0386
 4773TIP3    H135810   2.484   5.074   5.425  0.3624  1.7829 -0.9635
 4773TIP3    H235811   2.476   4.975   5.311 -0.9390  1.3122 -0.4873
 4774TIP3   OH235812   0.316   5.603   5.030  0.5015  0.3301  0.1232
 4774TIP3    H135813   0.324   5.520   5.077  0.1264 -0.2996 -0.8803
 4774TIP3    H235814   0.222   5.615   5.017  0.5400  1.0335  0.4631
 4775TIP3   OH235815   1.184   1.675  15.316 -0.2148 -0.0326 -0.0264
 4775TIP3    H135816   1.210   1.699  15.227 -0.7054 -1.0551 -0.4546
 4775TIP3    H235817   1.247   1.608  15.342 -0.3910 -0.1100  0.2034
 4776TIP3   OH235818   2.230   2.790  10.635 -0.1676 -0.4755  0.4095
 4776TIP3    H135819   2.184   2.723  10.584 -0.4969 -0.5251  0.7713
 4776TIP3    H235820   2.306   2.745  10.672 -0.8415 -0.8797  1.3490
 4777TIP3   OH235821   4.141   4.459   4.218 -0.6684  0.2616  0.0931
 4777TIP3    H135822   4.155   4.548   4.250 -0.5798  0.4900 -0.5762
 4777TIP3    H235823   4.144   4.405   4.297 -1.0403  0.8859  0.5421
 4778TIP3   OH235824   6.323   1.646   2.910 -0.3192  0.1566 -0.3004
 4778TIP3    H135825   6.333   1.607   2.997 -1.4943 -0.2479 -0.3309
 4778TIP3    H235826   6.311   1.740   2.927 -1.3079 -0.0176  0.0461
 4779TIP3   OH235827   3.211   4.456   3.004  0.3922  0.0119 -0.4849
 4779TIP3    H135828   3.240   4.546   3.013 -0.7939  0.3668  0.0933
 4779TIP3    H235829   3.213   4.421   3.093  0.9238 -0.5625 -0.7170
 4780TIP3   OH235830   5.641   2.960  15.309 -0.5665  0.1924  0.1247
 4780TIP3    H135831   5.547   2.968  15.327 -0.8075 -1.2392 -0.4215
 4780TIP3    H235832   5.650   2.877  15.264  1.0616  0.0290  0.6952
 4781TIP3   OH235833   3.353   2.523  13.790 -0.6136  0.2864 -0.2562
 4781TIP3    H135834   3.326   2.434  13.766 -1.0449  0.3175  0.1113
 4781TIP3    H235835   3.332   2.530  13.883  0.3077  0.4442 -0.0456
 4782TIP3   OH235836   6.674   2.201  16.309  0.3962  0.0656  0.0745
 4782TIP3    H135837   6.690   2.109  16.285 -2.0622 -0.1974 -0.8617
 4782TIP3    H235838   6.590   2.222  16.268  0.3789  2.4262  1.1655
 4783TIP3   OH235839   4.330   4.593   1.074  0.5397  0.2097 -0.8505
 4783TIP3    H135840   4.321   4.686   1.054  0.1242  0.5428  0.7496
 4783TIP3    H235841   4.249   4.554   1.041 -1.0499  1.0686  1.7567
 4784TIP3   OH235842   0.934   1.337   5.853 -0.1026 -0.3886 -0.0712
 4784TIP3    H135843   0.940   1.269   5.920 -1.1090 -0.6374 -0.2131
 4784TIP3    H235844   0.915   1.289   5.772  1.0953 -0.0924 -0.5498
 4785TIP3   OH235845   6.575   2.079   6.466  0.5548 -0.5955 -0.2476
 4785TIP3    H135846   6.644   2.073   6.532 -0.5389  1.1814  1.1512
 4785TIP3    H235847   6.495   2.093   6.517 -0.5326 -0.5539 -1.9123
 4786TIP3   OH235848   6.492   4.931   4.275  0.4627 -0.0076 -0.4715
 4786TIP3    H135849   6.498   5.004   4.213  0.1957  0.0866 -0.3878
 4786TIP3    H235850   6.495   4.853   4.220 -0.1165  0.0803 -0.6376
 4787TIP3   OH235851   2.129   1.474   2.455 -0.3888 -0.4497 -0.0627
 4787TIP3    H135852   2.141   1.569   2.461  0.3620 -0.5271 -0.3192
 4787TIP3    H235853   2.159   1.441   2.540 -0.9484 -0.4371  0.1477
 4788TIP3   OH235854   2.967   0.754  13.025 -0.8253 -0.4879 -0.0767
 4788TIP3    H135855   3.003   0.736  12.938  0.4996  1.6764 -0.0369
 4788TIP3    H235856   2.907   0.828  13.011  0.7882  1.1178  1.0737
 4789TIP3   OH235857   2.402   2.217  12.578 -0.6695 -0.4395 -0.2315
 4789TIP3    H135858   2.449   2.137  12.555 -0.4819  0.0367 -1.6357
 4789TIP3    H235859   2.447   2.251  12.655 -1.6822 -2.4454  1.3162
 4790TIP3   OH235860   2.900   6.361  10.671  0.1622 -0.0208 -0.2039
 4790TIP3    H135861   2.917   6.267  10.673 -2.0127 -0.5203  3.0817
 4790TIP3    H235862   2.875   6.379  10.580  0.4489 -2.6311 -0.8885
 4791TIP3   OH235863   2.431   6.307  10.535  0.5156  0.4726 -0.2522
 4791TIP3    H135864   2.355   6.265  10.574  0.1108 -0.6824 -2.1840
 4791TIP3    H235865   2.405   6.327  10.445  2.3044  0.5122 -0.8064
 4792TIP3   OH235866   4.731   5.916   5.068  0.0701  0.4683 -0.0168
 4792TIP3    H135867   4.700   5.934   4.979  0.7427  1.4217 -0.0761
 4792TIP3    H235868   4.813   5.965   5.075 -1.6409  3.3975  2.2526
 4793TIP3   OH235869   5.121   0.567  16.581  0.0544  0.0429  0.0480
 4793TIP3    H135870   5.098   0.629  16.512  1.1321 -1.3148 -1.6113
 4793TIP3    H235871   5.053   0.579  16.647 -1.7908  0.4989 -1.8165
 4794TIP3   OH235872   3.219   6.248  10.314 -0.4427  0.2787  0.4201
 4794TIP3    H135873   3.163   6.172  10.330  1.0685 -0.8553  0.5709
 4794TIP3    H235874   3.243   6.242  10.222 -0.5561  0.7434  0.3587
 4795TIP3   OH235875   3.505   4.923  16.652 -0.3050  0.1367  0.5232
 4795TIP3    H135876   3.512   4.829  16.670 -2.2100  0.1245  1.5403
 4795TIP3    H235877   3.450   4.956  16.723 -0.9958  1.7364 -0.6964
 4796TIP3   OH235878   0.673   2.086   4.867  0.6773  0.4951  0.5143
 4796TIP3    H135879   0.633   2.134   4.795 -0.4423  0.6586  1.2304
 4796TIP3    H235880   0.725   2.017   4.825 -1.6384 -0.7516 -0.4381
 4797TIP3   OH235881   0.964   0.369  16.780 -0.4534  0.1954  0.3332
 4797TIP3    H135882   0.988   0.356  16.872  0.0195  1.0408  0.3358
 4797TIP3    H235883   0.987   0.460  16.762 -0.2470 -0.0549 -0.7100
 4798TIP3   OH235884   3.522   6.406   3.627  0.1273  0.0616 -0.0107
 4798TIP3    H135885   3.548   6.479   3.683  0.0780  1.3030 -1.5401
 4798TIP3    H235886   3.602   6.355   3.613  0.9869  1.7456 -1.6321
 4799TIP3   OH235887   4.754   4.454  15.433  1.3037 -0.0705  0.1157
 4799TIP3    H135888   4.780   4.386  15.496  1.3040  0.5841  0.8408
 4799TIP3    H235889   4.774   4.536  15.478  0.7150  0.4148 -0.4991
 4800TIP3   OH235890   6.323   2.028   1.535 -0.1346 -0.5416 -0.0197
 4800TIP3    H135891   6.322   2.107   1.481  0.2969 -1.0833 -0.8350
 4800TIP3    H235892   6.246   1.979   1.507  1.6697 -2.2718 -2.3992
 4801TIP3   OH235893   3.550   3.744   4.442  0.1906  0.3415  0.8023
 4801TIP3    H135894   3.575   3.793   4.364 -0.2653  0.5842  0.8079
 4801TIP3    H235895   3.468   3.784   4.471 -0.7538 -1.0796  0.2098
 4802TIP3   OH235896   1.842   3.869   4.223  0.0376 -0.5257 -0.3249
 4802TIP3    H135897   1.816   3.958   4.248  0.1653 -0.2559 -1.1248
 4802TIP3    H235898   1.825   3.865   4.129  0.2069 -1.2888 -0.3243
 4803TIP3   OH235899   3.013   0.855   5.637  0.7680 -0.5265  0.2077
 4803TIP3    H135900   3.080   0.905   5.684  0.6339 -0.8105  0.7006
 4803TIP3    H235901   2.995   0.908   5.558 -0.9418  1.3634  1.7523
 4804TIP3   OH235902   4.647   1.982   1.015 -0.0807  0.3133 -0.3573
 4804TIP3    H135903   4.741   1.997   1.009 -0.1641  1.0781  0.1729
 4804TIP3    H235904   4.639   1.915   1.083  0.1032 -0.1148 -0.7473
 4805TIP3   OH235905   5.040   2.471  12.184 -0.6101  0.1673 -0.5571
 4805TIP3    H135906   5.072   2.524  12.110  2.8836 -1.9601 -0.7892
 4805TIP3    H235907   5.022   2.385  12.146  0.5918 -0.7670  0.8896
 4806TIP3   OH235908   2.287   3.155   6.002 -0.0034 -0.0371 -0.0188
 4806TIP3    H135909   2.271   3.209   5.925 -0.0581 -0.5415 -0.3681
 4806TIP3    H235910   2.231   3.078   5.991 -0.5495  0.2141  0.8801
 4807TIP3   OH235911   3.182   3.284   3.044 -0.1172  0.0766  0.0479
 4807TIP3    H135912   3.244   3.228   3.090 -1.0456 -1.9724 -1.0809
 4807TIP3    H235913   3.148   3.230   2.973 -2.3365  1.5061 -0.0740
 4808TIP3   OH235914   0.536   0.619  13.006  0.0284  0.4618 -0.4390
 4808TIP3    H135915   0.585   0.700  12.994 -0.8567  1.1290  0.2832
 4808TIP3    H235916   0.547   0.572  12.923  1.7644  0.6314 -0.3301
 4809TIP3   OH235917   0.675   5.815  11.719 -0.1866  0.0527 -0.5953
 4809TIP3    H135918   0.732   5.891  11.712  0.0191  0.1618  1.6545
 4809TIP3    H235919   0.734   5.742  11.739 -0.4236 -0.6652 -2.3626
 4810TIP3   OH235920   2.159   2.710  14.008 -0.1202 -0.4202 -0.3467
 4810TIP3    H135921   2.209   2.639  14.049  0.4509 -0.0309 -0.3461
 4810TIP3    H235922   2.221   2.750  13.947 -0.8350 -0.7144 -1.2739
 4811TIP3   OH235923   4.962   4.516   4.212 -0.3463 -0.2092 -0.4262
 4811TIP3    H135924   5.040   4.525   4.266  0.7139  0.9032 -2.0621
 4811TIP3    H235925   4.897   4.572   4.254 -0.2187 -0.9426  0.8020
 4812TIP3   OH235926   3.785   6.794   0.121 -0.1827 -0.0050  0.9936
 4812TIP3    H135927   3.850   6.856   0.089 -2.7822  1.9745 -0.8161
 4812TIP3    H235928   3.799   6.793   0.216  2.5407  0.1407  0.6883
 4813TIP3   OH235929   1.964   0.326   1.953  0.0759 -0.2734  0.4082
 4813TIP3    H135930   2.056   0.299   1.955 -0.0320 -0.7837 -0.6395
 4813TIP3    H235931   1.919   0.252   1.912 -0.7259  0.1830  0.4587
 4814TIP3   OH235932   5.377   1.961  10.722  0.5828 -0.0807 -0.0172
 4814TIP3    H135933   5.351   1.881  10.676  1.4467 -0.0426 -0.6143
 4814TIP3    H235934   5.468   1.975  10.695  0.6080  0.8164  0.4911
 4815TIP3   OH235935   6.024   3.238  14.304  0.0467  0.7114  0.4811
 4815TIP3    H135936   6.010   3.175  14.233  1.0569  1.6060 -0.5633
 4815TIP3    H235937   5.945   3.292  14.304  0.0173  0.6753  0.0489
 4816TIP3   OH235938   2.737   3.035  14.968  0.3048  0.0109 -0.0760
 4816TIP3    H135939   2.667   3.088  14.931  1.1483  0.7320 -0.6609
 4816TIP3    H235940   2.743   3.063  15.060  0.5667  0.7521 -0.3116
 4817TIP3   OH235941   2.091   4.126   1.116  0.5299  0.0920  0.3191
 4817TIP3    H135942   2.081   4.218   1.093  0.4780  0.3502  1.3159
 4817TIP3    H235943   2.169   4.123   1.172  0.2565 -0.3880  0.6845
 4818TIP3   OH235944   3.041   4.342   5.822  0.4785  0.1254 -0.0815
 4818TIP3    H135945   2.980   4.409   5.792  0.5211  1.3079  2.2656
 4818TIP3    H235946   3.066   4.370   5.910  0.7386 -2.8058  0.8890
 4819TIP3   OH235947   1.821   0.764  13.562 -0.3800  0.3716  0.2220
 4819TIP3    H135948   1.870   0.774  13.480 -2.0066  2.2282 -0.6043
 4819TIP3    H235949   1.769   0.684  13.549  0.1727  0.0539 -0.0892
 4820TIP3   OH235950   5.965   4.448  12.517  0.7706  0.2588  0.5187
 4820TIP3    H135951   6.053   4.411  12.516  0.6233 -0.0851  0.3878
 4820TIP3    H235952   5.975   4.533  12.475  0.9604  0.0448  0.1290
 4821TIP3   OH235953   2.616   2.732  15.479  0.2194 -0.1079 -0.1811
 4821TIP3    H135954   2.521   2.741  15.474  0.1129  0.5205  1.9088
 4821TIP3    H235955   2.649   2.822  15.478  0.5931 -0.2012  1.4386
 4822TIP3   OH235956   2.596   0.657   1.587  0.0478 -0.0894  0.3371
 4822TIP3    H135957   2.529   0.696   1.643 -0.7497 -1.6836  0.5253
 4822TIP3    H235958   2.668   0.635   1.646 -0.2049 -0.4584  0.5075
 4823TIP3   OH235959   0.435   3.275   5.669 -0.1024 -0.0314 -0.3772
 4823TIP3    H135960   0.504   3.234   5.617 -1.1953 -1.7649 -0.5141
 4823TIP3    H235961   0.354   3.254   5.623 -1.1232 -1.6524  1.9424
 4824TIP3   OH235962   1.472   2.340  15.587  0.1938 -0.3344  0.0066
 4824TIP3    H135963   1.513   2.365  15.670  1.8601 -2.4283 -0.1042
 4824TIP3    H235964   1.378   2.343  15.605  0.3732  2.4158  0.9424
 4825TIP3   OH235965   1.177   5.681   5.989  0.3438 -0.8631  0.1971
 4825TIP3    H135966   1.149   5.595   6.020  0.2712 -1.2102 -0.8081
 4825TIP3    H235967   1.122   5.743   6.038 -1.2420 -1.4766 -0.7323
 4826TIP3   OH235968   3.200   4.679  13.018 -0.3447 -0.5257  0.6325
 4826TIP3    H135969   3.245   4.728  13.087  1.2753 -1.1373  0.0509
 4826TIP3    H235970   3.243   4.594  13.017  0.4157 -0.1991 -1.7964
 4827TIP3   OH235971   3.411   1.353  11.725 -0.3278  0.6099 -0.2834
 4827TIP3    H135972   3.358   1.423  11.686 -0.5998 -0.1233 -1.2701
 4827TIP3    H235973   3.357   1.320  11.797  0.0285  1.7450  0.5361
 4828TIP3   OH235974   3.870   0.774   1.410 -0.5517  0.5849  0.6475
 4828TIP3    H135975   3.786   0.729   1.417  0.2321 -0.7169  2.1758
 4828TIP3    H235976   3.862   0.827   1.330 -1.6460 -1.9642 -1.0623
 4829TIP3   OH235977   5.236   6.866   4.228  0.6834  0.4798  0.5106
 4829TIP3    H135978   5.292   6.794   4.199  2.2418  1.9495 -0.3225
 4829TIP3    H235979   5.208   6.840   4.315  2.2443 -0.5783  0.7515
 4830TIP3   OH235980   5.128   5.819   4.230  0.2602  0.5716  0.2295
 4830TIP3    H135981   5.115   5.725   4.243 -1.3873  0.7474  0.1178
 4830TIP3    H235982   5.055   5.860   4.277  0.1805  1.7166 -0.8326
 4831TIP3   OH235983   1.557   2.713   5.362  0.1192 -0.4900 -0.2322
 4831TIP3    H135984   1.462   2.708   5.374  0.1080 -2.7605 -0.8289
 4831TIP3    H235985   1.587   2.763   5.438 -1.4891 -0.2297  0.2834
 4832TIP3   OH235986   2.018   1.760   4.740 -0.0460 -0.3698  0.1685
 4832TIP3    H135987   2.006   1.722   4.827  1.3624 -0.4708  0.3538
 4832TIP3    H235988   1.982   1.849   4.747  0.5099 -0.1983  1.0239
 4833TIP3   OH235989   3.535   1.415  13.516 -0.0148  0.6799 -0.2085
 4833TIP3    H135990   3.561   1.413  13.608  2.2511  1.0988 -0.7808
 4833TIP3    H235991   3.440   1.428  13.518 -0.0370  0.5311  2.0507
 4834TIP3   OH235992   4.922   0.742   1.835 -0.6070  0.6757 -0.0355
 4834TIP3    H135993   4.861   0.804   1.875 -2.3441 -1.0444  0.1329
 4834TIP3    H235994   4.960   0.694   1.908  0.3699  1.1950 -0.1887
 4835TIP3   OH235995   3.409   5.021  10.909  0.0145  0.1408  0.6302
 4835TIP3    H135996   3.374   5.076  10.839  0.1099 -0.4690  0.0898
 4835TIP3    H235997   3.501   5.009  10.886  0.3285  0.8647  1.4703
 4836TIP3   OH235998   5.749   1.366   3.002 -0.3249  0.2155 -0.2156
 4836TIP3    H135999   5.736   1.461   3.001  0.7273  0.3555 -1.4342
 4836TIP3    H236000   5.797   1.346   2.922  0.8963 -1.1466  0.7940
 4837TIP3   OH236001   2.752   4.413  11.254 -0.4377 -0.7727 -0.2983
 4837TIP3    H136002   2.714   4.369  11.330 -1.1503 -0.0137 -0.2106
 4837TIP3    H236003   2.816   4.350  11.220  0.8887 -0.6252  1.7154
 4838TIP3   OH236004   2.586   4.727  16.762 -0.2086 -0.1696  0.3678
 4838TIP3    H136005   2.535   4.677  16.827  1.3216  0.7387  2.3802
 4838TIP3    H236006   2.569   4.819  16.784  1.6553  0.1571  0.6182
 4839TIP3   OH236007   0.417   6.065   0.127 -0.5204 -0.2941 -0.0469
 4839TIP3    H136008   0.507   6.049   0.153 -0.8551 -3.1447 -0.2609
 4839TIP3    H236009   0.423   6.128   0.055  1.4857 -1.6798 -1.1925
 4840TIP3   OH236010   1.369   6.239   0.743  0.0144 -0.4410  0.7315
 4840TIP3    H136011   1.413   6.162   0.708 -2.1737 -1.3585 -0.1387
 4840TIP3    H236012   1.314   6.205   0.814  0.3763  0.6182  1.5525
 4841TIP3   OH236013   1.372   4.575  12.154  0.2521  0.0324  0.0570
 4841TIP3    H136014   1.292   4.523  12.144  0.5052 -0.0131 -2.2208
 4841TIP3    H236015   1.428   4.547  12.082  2.1118  0.5185  1.2409
 4842TIP3   OH236016   4.493   1.620  14.363 -0.3684 -0.2439  0.2674
 4842TIP3    H136017   4.494   1.705  14.406 -2.2783 -0.3823  0.6923
 4842TIP3    H236018   4.434   1.631  14.289 -0.5811 -1.1574  0.2868
 4843TIP3   OH236019   1.530   5.142  15.908 -0.0707 -0.9196  0.4115
 4843TIP3    H136020   1.521   5.094  15.826 -1.1070 -0.1932  0.0793
 4843TIP3    H236021   1.493   5.229  15.890  2.7482  0.4494  0.6526
 4844TIP3   OH236022   1.362   4.461  14.015  0.1881 -0.1617  0.2948
 4844TIP3    H136023   1.376   4.372  14.047  0.0875 -0.1445  0.3844
 4844TIP3    H236024   1.278   4.457  13.969  0.0267 -0.0369  0.5756
 4845TIP3   OH236025   0.871   3.079  16.924  0.4466 -0.2905  0.2837
 4845TIP3    H136026   0.798   3.136  16.947  2.3480  1.0400  3.8113
 4845TIP3    H236027   0.829   2.995  16.902 -2.2154  0.2937  2.4730
 4846TIP3   OH236028   3.841   1.700  11.827  0.1423 -0.2662  1.3624
 4846TIP3    H136029   3.886   1.711  11.910 -1.2142  0.3462  2.0542
 4846TIP3    H236030   3.763   1.649  11.849 -0.8691  0.9574  0.7111
 4847TIP3   OH236031   0.493   3.654  15.363  0.4147  0.1374  0.0152
 4847TIP3    H136032   0.480   3.721  15.430  1.0228 -0.8412  1.1571
 4847TIP3    H236033   0.543   3.585  15.407 -1.0029 -1.5193 -0.8198
 4848TIP3   OH236034   1.958   3.308   5.678  0.1221  0.2469 -0.0312
 4848TIP3    H136035   1.880   3.252   5.678  1.0450 -1.0801  0.8584
 4848TIP3    H236036   2.008   3.280   5.601  1.8352 -2.0509  1.7819
 4849TIP3   OH236037   2.342   4.342   4.086  0.4808 -0.6682 -0.1191
 4849TIP3    H136038   2.376   4.310   4.169  1.5066  0.0674 -0.2420
 4849TIP3    H236039   2.249   4.357   4.103  0.2530 -2.3457  0.3220
 4850TIP3   OH236040   4.542   2.415   3.341  0.5468 -0.0126  0.1336
 4850TIP3    H136041   4.510   2.330   3.313  3.5526 -0.8082 -1.2371
 4850TIP3    H236042   4.601   2.396   3.414 -0.8157  1.2493  1.6519
 4851TIP3   OH236043   0.167   0.309   2.335  0.0589 -0.4179  0.5024
 4851TIP3    H136044   0.153   0.223   2.374 -0.1585 -0.0079  1.3492
 4851TIP3    H236045   0.079   0.343   2.319  0.0823  0.5094  2.1345
 4852TIP3   OH236046   3.248   4.890   1.712 -0.0287  0.5522  0.4404
 4852TIP3    H136047   3.164   4.922   1.679  0.5266  1.3393 -0.2209
 4852TIP3    H236048   3.296   4.864   1.634  1.7610  3.5192  0.4137
 4853TIP3   OH236049   2.552   1.339   0.330 -0.5432  0.3206  0.2593
 4853TIP3    H136050   2.596   1.259   0.300  2.8519  2.2627 -0.5286
 4853TIP3    H236051   2.509   1.373   0.251  1.2256  1.1074 -0.4215
 4854TIP3   OH236052   6.783   1.810   6.049  0.6085 -0.2154  0.3830
 4854TIP3    H136053   6.826   1.752   5.987 -1.6571 -1.9982  0.3403
 4854TIP3    H236054   6.790   1.766   6.133  1.9795  1.2584  1.0929
 4855TIP3   OH236055   6.252   2.636   1.517 -0.5155  0.1216 -0.7054
 4855TIP3    H136056   6.325   2.575   1.527  0.1652  0.9240 -0.6448
 4855TIP3    H236057   6.202   2.627   1.598  1.1976  1.6968  0.6273
 4856TIP3   OH236058   6.799   0.249  11.432  0.0769  0.1650  0.0701
 4856TIP3    H136059   6.758   0.277  11.514 -0.6397 -1.8099  0.4456
 4856TIP3    H236060   6.831   0.161  11.451 -0.5991 -0.5586 -1.9197
 4857TIP3   OH236061   4.194   3.629  13.026 -0.1221 -0.4037 -0.7862
 4857TIP3    H136062   4.142   3.709  13.019 -2.2517 -1.7129 -0.6879
 4857TIP3    H236063   4.268   3.644  12.966 -0.3482  1.6880 -0.6212
 4858TIP3   OH236064   4.137   3.454  14.555  0.2659  0.3174  0.0243
 4858TIP3    H136065   4.135   3.547  14.578  0.2755  0.3137  0.0398
 4858TIP3    H236066   4.158   3.454  14.461  0.7197  0.3132  0.1279
 4859TIP3   OH236067   1.175   5.285  14.093  0.1417  0.5809  0.2445
 4859TIP3    H136068   1.145   5.375  14.081  0.8778  0.5826 -2.0567
 4859TIP3    H236069   1.243   5.273  14.026  1.6610 -0.9921  1.9616
 4860TIP3   OH236070   2.494   4.844   2.296  0.5738  0.5509 -0.3623
 4860TIP3    H136071   2.521   4.888   2.377 -0.5411  0.4183  0.1036
 4860TIP3    H236072   2.568   4.788   2.274  0.7655  0.3178  0.7807
 4861TIP3   OH236073   6.163   0.499   4.420 -0.0153  0.7762  0.2835
 4861TIP3    H136074   6.076   0.536   4.407 -0.4348 -0.2234  0.1454
 4861TIP3    H236075   6.215   0.534   4.348 -1.4016 -1.9066 -2.2499
 4862TIP3   OH236076   0.877   6.487   0.850  0.2478  0.3307  0.3210
 4862TIP3    H136077   0.822   6.463   0.925  0.0267  0.5386  0.2242
 4862TIP3    H236078   0.869   6.413   0.790 -0.3238  0.5830  0.0854
 4863TIP3   OH236079   6.171   3.591  10.491  0.2462  0.9425 -0.4205
 4863TIP3    H136080   6.236   3.635  10.547 -1.3450  1.0442  1.4570
 4863TIP3    H236081   6.150   3.511  10.538 -4.1414  2.8912  1.4954
 4864TIP3   OH236082   1.276   2.561   1.388 -0.1619 -0.2033 -0.4865
 4864TIP3    H136083   1.209   2.531   1.449 -0.3176  2.3967  0.7304
 4864TIP3    H236084   1.314   2.638   1.429  3.4330 -1.3855 -1.2770
 4865TIP3   OH236085   4.353   3.208  10.925 -0.0921 -0.3509  0.2645
 4865TIP3    H136086   4.259   3.197  10.914 -0.6972  0.4581  3.5704
 4865TIP3    H236087   4.389   3.119  10.914 -1.1874 -0.6731 -0.9732
 4866TIP3   OH236088   3.518   4.441   3.407  0.0510 -0.0909 -0.5935
 4866TIP3    H136089   3.582   4.511   3.421 -0.6644  0.9151 -2.0613
 4866TIP3    H236090   3.543   4.401   3.324  0.1082 -1.2168 -0.0489
 4867TIP3   OH236091   0.900   2.887   3.673  0.3981  0.0258 -0.0713
 4867TIP3    H136092   0.988   2.915   3.697  0.4225 -0.1880  0.0889
 4867TIP3    H236093   0.865   2.961   3.623 -0.2000  1.1633  1.8915
 4868TIP3   OH236094   4.960   1.075  16.038  0.1577  0.2196  0.7979
 4868TIP3    H136095   4.954   1.052  15.946  2.3373 -0.7544  0.8383
 4868TIP3    H236096   4.886   1.134  16.053 -0.5830 -0.0646 -1.4051
 4869TIP3   OH236097   2.006   3.566  14.279  0.4578 -0.2900  0.0548
 4869TIP3    H136098   2.025   3.651  14.239  2.3672 -1.2494 -1.2118
 4869TIP3    H236099   2.063   3.563  14.356  1.0507 -0.7627 -0.3957
 4870TIP3   OH236100   4.728   4.778  10.933 -0.3955  0.0656  0.4417
 4870TIP3    H136101   4.733   4.864  10.891 -2.8232  0.0491 -0.0654
 4870TIP3    H236102   4.716   4.797  11.026  0.1815  0.2434  0.4798
 4871TIP3   OH236103   3.897   2.966   0.723  0.1044  0.3364 -0.5017
 4871TIP3    H136104   3.844   3.028   0.674 -0.6463  0.4158  0.3902
 4871TIP3    H236105   3.839   2.933   0.792  1.5169  1.2696  1.2224
 4872TIP3   OH236106   5.139   5.014  15.378 -0.0466  0.0077 -0.0846
 4872TIP3    H136107   5.131   5.106  15.401  0.5882  0.2873 -0.9380
 4872TIP3    H236108   5.049   4.981  15.377 -0.3531  0.8523 -0.7218
 4873TIP3   OH236109   1.290   4.652  13.390  0.6659 -0.6059 -0.6026
 4873TIP3    H136110   1.249   4.654  13.476  0.4511  1.5901 -0.7078
 4873TIP3    H236111   1.384   4.660  13.408  0.7270 -1.3887 -0.5391
 4874TIP3   OH236112   5.214   2.467   1.406 -0.3951 -0.0017 -0.5364
 4874TIP3    H136113   5.253   2.494   1.489  0.5274  0.0038 -0.9527
 4874TIP3    H236114   5.120   2.464   1.422 -0.2020 -0.2667  0.5828
 4875TIP3   OH236115   2.370   3.478  15.776 -0.1680 -0.1373  0.0651
 4875TIP3    H136116   2.378   3.492  15.681  1.5399 -1.0462  0.0250
 4875TIP3    H236117   2.455   3.442  15.801 -0.0399  1.4532  2.2075
 4876TIP3   OH236118   4.510   5.405  15.256 -0.2841 -0.2239  0.3552
 4876TIP3    H136119   4.460   5.334  15.216 -0.3084 -0.7673  1.3136
 4876TIP3    H236120   4.447   5.455  15.308  0.0874 -0.7802  1.3887
 4877TIP3   OH236121   1.625   5.292   2.699  0.4008 -0.7034  0.0541
 4877TIP3    H136122   1.665   5.331   2.621  0.0095 -1.0319 -0.3126
 4877TIP3    H236123   1.570   5.222   2.665  0.5471 -1.1155  0.6596
 4878TIP3   OH236124   5.753   0.575   6.954  0.0113 -0.3150  0.1495
 4878TIP3    H136125   5.775   0.637   6.885  1.2471  0.2815  1.0438
 4878TIP3    H236126   5.670   0.607   6.990  1.3147  1.7119  1.5364
 4879TIP3   OH236127   0.010   4.649  13.933 -0.3168  0.1691  0.7891
 4879TIP3    H136128   0.044   4.682  13.850 -0.0774 -0.2709  0.7090
 4879TIP3    H236129  -0.050   4.717  13.963  0.1973  0.6981  0.6450
 4880TIP3   OH236130   4.829   1.381  16.034 -0.5440 -0.2838  0.1059
 4880TIP3    H136131   4.850   1.467  16.071  0.8465 -1.0204  1.1382
 4880TIP3    H236132   4.894   1.368  15.966 -1.3199 -0.1587 -0.6751
 4881TIP3   OH236133   6.397   2.780   2.970  0.3799 -0.2054 -0.0829
 4881TIP3    H136134   6.442   2.702   2.939  0.4314 -0.0924 -0.2991
 4881TIP3    H236135   6.395   2.771   3.065 -1.9650 -1.7770 -0.1937
 4882TIP3   OH236136   3.509   2.081  15.223  0.4617 -0.0637  0.0413
 4882TIP3    H136137   3.421   2.051  15.201  0.7598 -1.3892  0.5978
 4882TIP3    H236138   3.499   2.124  15.308  0.6946 -2.2480  1.2501
 4883TIP3   OH236139   0.008   4.039   2.710  0.1122 -0.4545  0.2558
 4883TIP3    H136140   0.010   4.000   2.623 -2.8622 -0.1493 -0.0533
 4883TIP3    H236141  -0.018   4.130   2.696 -1.0697 -0.5743  1.4595
 4884TIP3   OH236142   4.075   0.258  14.358 -0.1072 -0.1360 -0.1599
 4884TIP3    H136143   4.110   0.177  14.322  0.8360 -1.2435  2.9015
 4884TIP3    H236144   4.151   0.303  14.397 -0.7183  1.9397 -1.1926
 4885TIP3   OH236145   5.124   0.182   0.303  0.3224 -0.3428 -0.3619
 4885TIP3    H136146   5.114   0.276   0.315  0.4416 -0.3410 -0.2735
 4885TIP3    H236147   5.212   0.172   0.266  0.2861 -0.4152 -0.4295
 4886TIP3   OH236148   5.526   6.333   6.401 -0.1554  0.5220  0.2378
 4886TIP3    H136149   5.530   6.348   6.307  1.4084 -0.8602  0.0392
 4886TIP3    H236150   5.487   6.413   6.436  0.7810  1.7715 -1.4213
 4887TIP3   OH236151   5.378   1.615  14.169 -0.6135  0.5854  0.4297
 4887TIP3    H136152   5.365   1.548  14.236 -1.0923  1.4788  1.2485
 4887TIP3    H236153   5.472   1.616  14.154 -0.6323 -0.5396  0.1045
 4888TIP3   OH236154   3.664   0.645   3.313 -0.2261 -0.2155 -0.1079
 4888TIP3    H136155   3.731   0.685   3.257 -0.1056 -0.4317 -0.1182
 4888TIP3    H236156   3.665   0.552   3.290 -1.5523 -0.0030 -1.1625
 4889TIP3   OH236157   2.917   4.726   0.904 -0.2185  0.4368 -0.1134
 4889TIP3    H136158   2.915   4.785   0.829  1.1909  0.4393 -0.1659
 4889TIP3    H236159   2.913   4.638   0.866  0.9317  0.4270 -0.2282
 4890TIP3   OH236160   6.238   1.096  15.413 -0.5880  0.6710 -0.2501
 4890TIP3    H136161   6.184   1.034  15.463  1.0908  0.4263  1.3494
 4890TIP3    H236162   6.317   1.047  15.391 -0.5987  1.2930 -1.7710
 4891TIP3   OH236163   6.050   1.600   5.347 -0.1529  0.0258  0.1540
 4891TIP3    H136164   6.145   1.598   5.342 -0.1762  0.9443 -1.0037
 4891TIP3    H236165   6.026   1.687   5.314 -1.5558 -1.2821 -2.5482
 4892TIP3   OH236166   5.458   1.370   0.475 -0.9780  0.0116  0.4318
 4892TIP3    H136167   5.416   1.285   0.461 -1.5102  0.5029 -1.0834
 4892TIP3    H236168   5.549   1.357   0.447 -1.3575  0.2468 -0.9624
 4893TIP3   OH236169   5.803   6.031   0.932 -0.1478 -0.3159 -0.4552
 4893TIP3    H136170   5.844   5.948   0.909 -0.9701 -1.3185  1.4626
 4893TIP3    H236171   5.764   6.062   0.850  2.1965 -0.5667 -1.7635
 4894TIP3   OH236172   2.262   4.918  11.329  0.1320  0.0123  0.2686
 4894TIP3    H136173   2.343   4.898  11.282  1.2169  1.3503  1.4366
 4894TIP3    H236174   2.292   4.940  11.418 -1.5505  0.3147  0.7887
 4895TIP3   OH236175   0.939   6.611   3.436 -0.0635  0.2657 -0.0578
 4895TIP3    H136176   0.958   6.688   3.490 -0.3191 -0.5884  1.2941
 4895TIP3    H236177   0.904   6.547   3.497 -1.8019 -0.2475 -1.4859
 4896TIP3   OH236178   2.382   5.465  16.021 -0.1755 -0.1047 -0.5638
 4896TIP3    H136179   2.478   5.476  16.021  0.2821 -3.0750  0.6874
 4896TIP3    H236180   2.357   5.480  15.930  1.6008 -0.0690 -1.1004
 4897TIP3   OH236181   2.665   5.434   2.507 -0.2712  0.3494 -0.4730
 4897TIP3    H136182   2.724   5.379   2.456 -0.4757  1.1594 -1.6129
 4897TIP3    H236183   2.611   5.479   2.442  0.5525  2.6513  0.3533
 4898TIP3   OH236184   4.615   0.828  11.845 -0.1509  0.3530 -0.2441
 4898TIP3    H136185   4.647   0.738  11.852  0.1976  0.3596 -1.5762
 4898TIP3    H236186   4.533   0.821  11.796  0.2640  0.8353 -1.0154
 4899TIP3   OH236187   3.727   6.665   3.287 -0.0543 -0.0319  0.3744
 4899TIP3    H136188   3.813   6.684   3.325 -0.7947  2.5417  0.9243
 4899TIP3    H236189   3.666   6.679   3.359 -1.1198  0.3595 -0.5876
 4900TIP3   OH236190   3.289   0.159   4.207  0.1461 -0.7228 -0.3317
 4900TIP3    H136191   3.229   0.149   4.281 -1.8947 -0.0306 -1.7986
 4900TIP3    H236192   3.304   0.253   4.200  0.0810 -0.7488 -0.9459
 4901TIP3   OH236193   6.188   3.710  12.365 -0.4065 -0.9007  0.3241
 4901TIP3    H136194   6.181   3.728  12.459  0.8436 -0.6507  0.3815
 4901TIP3    H236195   6.209   3.794  12.326  2.5482 -1.5836  0.2514
 4902TIP3   OH236196   3.722   0.349   3.709 -0.2550  0.6085 -0.0709
 4902TIP3    H136197   3.760   0.377   3.626  2.8864  1.0645  1.3732
 4902TIP3    H236198   3.705   0.431   3.756 -1.1992  0.3341  0.0737
 4903TIP3   OH236199   2.774   5.389   4.308 -0.4253 -0.5987  0.4481
 4903TIP3    H136200   2.764   5.375   4.213 -0.8955  0.2207  0.3673
 4903TIP3    H236201   2.703   5.449   4.330 -0.9039 -1.5279  1.5062
 4904TIP3   OH236202   5.424   2.976   1.482 -0.3086 -0.2446 -0.8940
 4904TIP3    H136203   5.506   2.959   1.436  0.5971 -0.7662  0.8046
 4904TIP3    H236204   5.449   3.035   1.553 -1.6103  0.4114 -0.9620
 4905TIP3   OH236205   5.792   3.541  15.527 -0.3014 -0.0914 -0.0060
 4905TIP3    H136206   5.828   3.601  15.461  0.2909  0.1692  0.5480
 4905TIP3    H236207   5.779   3.596  15.604 -1.5818 -0.2529 -0.0813
 4906TIP3   OH236208   3.902   1.473   5.254  0.3724  0.0293 -0.3951
 4906TIP3    H136209   3.948   1.521   5.185 -1.1487  1.0071 -0.7890
 4906TIP3    H236210   3.848   1.410   5.207  1.2377 -1.0770  0.0558
 4907TIP3   OH236211   2.665   2.860   2.975 -0.1693  0.4624  0.6193
 4907TIP3    H136212   2.683   2.797   3.044 -1.8612 -0.6435  0.1080
 4907TIP3    H236213   2.733   2.843   2.909  0.2781  0.2105  1.1332
 4908TIP3   OH236214   2.647   1.210  13.341 -0.3308  0.2844 -0.5058
 4908TIP3    H136215   2.608   1.141  13.288 -1.2068 -1.1483  1.8431
 4908TIP3    H236216   2.741   1.204  13.323 -0.7175  1.7018 -3.8462
 4909TIP3   OH236217   0.849   1.391   2.706  0.4032  0.1456  0.4391
 4909TIP3    H136218   0.768   1.367   2.753  0.3153  0.0015  0.2163
 4909TIP3    H236219   0.874   1.475   2.743  0.1335  0.2051  0.4910
 4910TIP3   OH236220   1.010   6.808  13.588 -0.3058 -0.6128  0.6639
 4910TIP3    H136221   1.026   6.832  13.497  0.8676 -0.9771  0.7565
 4910TIP3    H236222   1.081   6.850  13.636 -3.1869  3.2166  2.0513
 4911TIP3   OH236223   3.953   4.331   1.097 -0.7539  0.4204  0.1816
 4911TIP3    H136224   3.949   4.344   1.192  0.8818 -0.2212  0.3789
 4911TIP3    H236225   3.862   4.333   1.069 -1.3340 -0.0329  1.8681
 4912TIP3   OH236226   0.791   3.792   6.503  0.2654  0.6135  0.3248
 4912TIP3    H136227   0.796   3.772   6.410 -2.2558 -0.4153  0.3145
 4912TIP3    H236228   0.859   3.737   6.543  1.1514  0.8240 -0.8607
 4913TIP3   OH236229   6.675   2.523   1.010  0.1918  0.1457 -0.5757
 4913TIP3    H136230   6.747   2.462   0.993 -1.0698 -0.7527 -3.2403
 4913TIP3    H236231   6.608   2.499   0.945 -1.3723  2.7606 -0.0465
 4914TIP3   OH236232   3.676   3.414  11.286  0.3329 -0.5109  0.8574
 4914TIP3    H136233   3.665   3.385  11.377  1.9209 -0.1239  1.2061
 4914TIP3    H236234   3.753   3.471  11.289  0.4451 -0.5497 -0.7462
 4915TIP3   OH236235   0.914   2.684  17.062 -0.2169 -0.6629 -0.2578
 4915TIP3    H136236   0.974   2.732  17.005  1.8600  0.2871  2.5333
 4915TIP3    H236237   0.832   2.733  17.057 -0.0622 -0.5228 -2.2278
 4916TIP3   OH236238   4.751   2.702   4.864 -0.2064  0.3177  0.0048
 4916TIP3    H136239   4.656   2.692   4.868 -0.2739  0.8274 -0.2856
 4916TIP3    H236240   4.767   2.796   4.871  0.2133  0.3293 -0.9217
 4917TIP3   OH236241   3.407   3.426   4.032  0.7744  0.1819 -0.2611
 4917TIP3    H136242   3.389   3.495   4.096  0.4486 -1.0997  1.0801
 4917TIP3    H236243   3.321   3.391   4.009  1.0387 -0.9935  0.4822
 4918TIP3   OH236244   0.139   2.361  12.293  0.2555 -0.0968 -0.1521
 4918TIP3    H136245   0.088   2.434  12.258  0.2317  0.1215  0.3315
 4918TIP3    H236246   0.136   2.295  12.224  0.5016  0.4581 -0.7102
 4919TIP3   OH236247   0.244   5.084  15.154  0.0637  0.5703 -0.3511
 4919TIP3    H136248   0.169   5.112  15.207  0.0046  1.3125 -0.8104
 4919TIP3    H236249   0.293   5.165  15.138  0.5349  0.2155 -0.7238
 4920TIP3   OH236250   6.338   0.120  11.445  0.5132  0.3552  1.0049
 4920TIP3    H136251   6.423   0.122  11.399 -0.5263  3.6148 -1.1080
 4920TIP3    H236252   6.358   0.079  11.529  4.0295  0.3459  0.3491
 4921TIP3   OH236253   1.964   1.554   1.704  0.0666 -1.1854  0.4678
 4921TIP3    H136254   1.922   1.620   1.648  0.8331 -0.7541  0.3760
 4921TIP3    H236255   1.905   1.479   1.702 -0.5109 -0.7300  0.0547
 4922TIP3   OH236256   6.123   5.360  15.258  0.3966  0.2702 -0.1371
 4922TIP3    H136257   6.101   5.411  15.179 -2.5040 -2.8178 -1.5537
 4922TIP3    H236258   6.173   5.285  15.225 -1.0022 -1.1577  0.8824
 4923TIP3   OH236259   3.231   0.209  12.140 -0.0279  0.1240  0.6432
 4923TIP3    H136260   3.177   0.160  12.078 -1.2681  0.4319  1.4485
 4923TIP3    H236261   3.283   0.142  12.184  0.8089 -0.1090 -0.6263
 4924TIP3   OH236262   5.064   0.061  16.062 -0.6433 -0.0115  0.8112
 4924TIP3    H136263   5.006   0.085  15.990 -1.0484 -2.3146  0.2917
 4924TIP3    H236264   5.147   0.038  16.019 -0.3780  0.1331  1.2390
 4925TIP3   OH236265   0.997   2.623   4.649  0.1188  0.1577 -0.2714
 4925TIP3    H136266   1.081   2.669   4.644  0.0938  0.2530  0.1742
 4925TIP3    H236267   1.020   2.533   4.672  0.0034  0.5458  1.4440
 4926TIP3   OH236268   1.886   0.610  15.558  0.7012 -0.0146 -0.1266
 4926TIP3    H136269   1.950   0.672  15.524 -0.2662 -0.0360 -2.1645
 4926TIP3    H236270   1.805   0.661  15.567  0.2780 -0.6221 -0.3733
 4927TIP3   OH236271   2.923   3.338   4.876 -0.4026 -0.1476  0.8499
 4927TIP3    H136272   2.918   3.383   4.960  0.3215  0.9013  0.3598
 4927TIP3    H236273   2.980   3.394   4.822  0.2836 -1.5034  0.1117
 4928TIP3   OH236274   3.161   2.276  12.209  0.3738 -0.1953  0.8218
 4928TIP3    H136275   3.198   2.359  12.237 -2.2874  1.5128 -0.3075
 4928TIP3    H236276   3.207   2.256  12.128  0.6983  0.4522  0.8384
 4929TIP3   OH236277   5.841   5.430  15.603 -0.0140  0.1984 -0.2153
 4929TIP3    H136278   5.928   5.461  15.578  0.6280 -2.1744 -1.2676
 4929TIP3    H236279   5.820   5.363  15.537 -1.7676 -0.6952  1.1701
 4930TIP3   OH236280   3.843   0.060   1.065 -0.1351 -0.7159 -0.4597
 4930TIP3    H136281   3.888   0.017   1.138 -1.6952 -1.1811  0.2656
 4930TIP3    H236282   3.829   0.150   1.095 -1.9418 -1.2414  0.4143
 4931TIP3   OH236283   4.638   5.508   2.938  0.2599 -0.0778 -0.1579
 4931TIP3    H136284   4.655   5.414   2.940  0.0868 -0.1008  0.2870
 4931TIP3    H236285   4.662   5.535   2.849  3.3098  0.0187  0.5888
 4932TIP3   OH236286   1.214   5.452  16.206  0.1730  0.0071 -0.1132
 4932TIP3    H136287   1.174   5.480  16.123  1.1438 -2.1489 -1.4023
 4932TIP3    H236288   1.193   5.359  16.211  2.0981 -0.4049  0.9151
 4933TIP3   OH236289   4.300   6.527  13.525 -0.1909  0.0874  0.0541
 4933TIP3    H136290   4.246   6.581  13.584 -1.6335 -0.2723 -0.9010
 4933TIP3    H236291   4.390   6.557  13.542 -0.7549  1.3349  1.0451
 4934TIP3   OH236292   3.710   1.882   3.658  0.4602  0.3670 -0.1520
 4934TIP3    H136293   3.715   1.893   3.563 -0.0171  0.6852 -0.1415
 4934TIP3    H236294   3.719   1.788   3.672 -1.2723  0.0960 -0.6401
 4935TIP3   OH236295   2.479   5.249  11.011 -0.1079 -0.3216 -0.1229
 4935TIP3    H136296   2.457   5.234  11.103 -1.5522  0.5557 -0.2976
 4935TIP3    H236297   2.508   5.164  10.979  0.1601 -0.6955  1.0754
 4936TIP3   OH236298   2.016   1.644  11.183 -0.2333  0.1520  0.0109
 4936TIP3    H136299   1.991   1.735  11.196  0.4396  0.7625 -2.4424
 4936TIP3    H236300   1.982   1.621  11.097  0.9030 -1.4306 -0.0782
 4937TIP3   OH236301   3.771   3.926   4.211  0.4746  0.4969  0.2539
 4937TIP3    H136302   3.760   3.833   4.191  1.9044  0.2259  0.6605
 4937TIP3    H236303   3.700   3.969   4.162 -0.4701 -0.8266  0.3870
 4938TIP3   OH236304   6.714   6.695   3.238  0.0802  0.1999  0.3560
 4938TIP3    H136305   6.792   6.661   3.194 -0.3559  0.3540 -0.5453
 4938TIP3    H236306   6.737   6.694   3.331  1.4409  0.9752  0.0530
 4939TIP3   OH236307   3.515   0.484  11.668 -0.4535 -0.1718  0.4505
 4939TIP3    H136308   3.472   0.497  11.583 -1.6871 -2.1363  0.7269
 4939TIP3    H236309   3.443   0.468  11.729  0.5547 -1.3636  1.3604
 4940TIP3   OH236310   6.526   6.401   4.095 -0.1018  0.2820  0.2580
 4940TIP3    H136311   6.620   6.418   4.084 -0.2118  3.4985  2.7208
 4940TIP3    H236312   6.483   6.470   4.046 -1.2614 -1.2691 -0.9901
 4941TIP3   OH236313   5.972   2.458   2.766  0.3707 -0.2246 -0.2570
 4941TIP3    H136314   5.913   2.500   2.704 -1.1237  1.0786  1.9322
 4941TIP3    H236315   5.983   2.521   2.837  0.9349 -2.1266  1.4799
 4942TIP3   OH236316   0.616   5.664   1.969  0.5358 -0.5555  0.1870
 4942TIP3    H136317   0.678   5.732   1.944  0.7393 -0.0500  1.9473
 4942TIP3    H236318   0.623   5.599   1.900  0.9898  0.7838 -1.0739
 4943TIP3   OH236319   0.381   4.005  11.373 -0.7947  0.2126 -0.4296
 4943TIP3    H136320   0.312   4.025  11.436 -1.3235  0.4811 -1.0850
 4943TIP3    H236321   0.382   4.081  11.314 -0.7492 -0.3250 -1.1296
 4944TIP3   OH236322   0.335   0.174  12.543 -0.2180 -0.7064  0.0936
 4944TIP3    H136323   0.279   0.235  12.495 -1.3111 -2.5940 -1.1965
 4944TIP3    H236324   0.281   0.147  12.617  0.1961 -0.2541  0.5640
 4945TIP3   OH236325   6.629   0.416   4.700  0.9587 -0.0496 -0.2655
 4945TIP3    H136326   6.566   0.466   4.752 -0.1157 -1.1609 -0.4705
 4945TIP3    H236327   6.684   0.371   4.765  2.4991  1.9908 -0.0554
 4946TIP3   OH236328   0.454   3.796  12.906  0.4160  0.2543 -0.1874
 4946TIP3    H136329   0.455   3.861  12.976  0.1766  0.3581 -0.2808
 4946TIP3    H236330   0.385   3.825  12.846  0.3722 -0.0324 -0.2792
 4947TIP3   OH236331   3.986   4.195  11.098 -0.5774  0.6563  0.0714
 4947TIP3    H136332   4.072   4.153  11.108 -0.0833  1.6648  0.1435
 4947TIP3    H236333   3.977   4.207  11.003 -2.6265 -3.4407 -0.4955
 4948TIP3   OH236334   5.507   5.153   3.233 -0.0374  0.2110 -0.0299
 4948TIP3    H136335   5.417   5.125   3.223 -0.7759  2.1909  0.4798
 4948TIP3    H236336   5.512   5.188   3.323  0.9622  0.9715 -0.3527
 4949TIP3   OH236337   5.044   3.249  15.533  0.6555  0.6669 -0.2614
 4949TIP3    H136338   5.062   3.187  15.604  0.1473  0.9029  0.0862
 4949TIP3    H236339   5.110   3.231  15.467  0.9831  0.2743  0.1717
 4950TIP3   OH236340   4.662   2.414   3.909  0.2463  0.4914  0.1439
 4950TIP3    H136341   4.609   2.335   3.895 -0.1596  0.6050  0.9753
 4950TIP3    H236342   4.692   2.407   4.000  4.8022 -1.4420 -1.2063
 4951TIP3   OH236343   5.931   6.539   2.573 -0.2369 -0.4762  0.1561
 4951TIP3    H136344   5.950   6.516   2.482 -1.7029  0.2981 -0.3876
 4951TIP3    H236345   6.017   6.551   2.614  0.6023  2.8218 -2.1115
 4952TIP3   OH236346   4.899   5.869   4.594  0.3744  0.2952  0.3020
 4952TIP3    H136347   4.893   5.810   4.518  3.2098  0.6891 -0.3278
 4952TIP3    H236348   4.862   5.951   4.562  0.1769  0.0314 -0.1709
 4953TIP3   OH236349   3.919   0.181   2.451  0.8035 -0.2657 -0.1857
 4953TIP3    H136350   3.896   0.199   2.542 -0.2083  1.0739 -0.6822
 4953TIP3    H236351   3.992   0.239   2.433  0.1987  0.3977 -0.5711
 4954TIP3   OH236352   5.507   1.562   4.130 -0.0497  0.3271 -0.3443
 4954TIP3    H136353   5.581   1.606   4.171  1.9186 -1.9839 -1.1981
 4954TIP3    H236354   5.534   1.548   4.039 -0.9476 -1.6824 -0.3625
 4955TIP3   OH236355   4.748   1.651   5.522 -0.5366 -0.2950  0.5792
 4955TIP3    H136356   4.738   1.636   5.616  0.3892 -1.6138  0.4922
 4955TIP3    H236357   4.842   1.657   5.509 -0.5759 -1.5878 -0.4598
 4956TIP3   OH236358   1.027   2.491   3.958 -0.7068  0.3316  0.4783
 4956TIP3    H136359   1.100   2.468   4.015  0.5227 -0.1110 -1.2013
 4956TIP3    H236360   1.066   2.503   3.872 -2.7490 -1.1514 -0.7567
 4957TIP3   OH236361   1.733   5.354  16.033  0.2390 -0.0708 -0.6579
 4957TIP3    H136362   1.692   5.318  15.954  1.4161 -0.2278 -1.2097
 4957TIP3    H236363   1.666   5.344  16.101 -2.1648  3.1647 -2.2736
 4958TIP3   OH236364   3.829   0.976   4.062  0.6274  0.4088 -0.1421
 4958TIP3    H136365   3.888   0.969   4.136  0.6990  1.2807 -0.1158
 4958TIP3    H236366   3.762   0.910   4.079  1.2009 -0.0989  0.1786
 4959TIP3   OH236367   2.135   5.752  15.808  0.3303 -0.5522  0.1435
 4959TIP3    H136368   2.099   5.663  15.807 -0.4163 -0.2674  0.6630
 4959TIP3    H236369   2.229   5.739  15.804  0.2185 -1.3547 -0.2445
 4960TIP3   OH236370   2.105   4.364   0.739 -0.3151  0.2773  0.1067
 4960TIP3    H136371   2.148   4.358   0.653  1.7118 -0.9025  1.1096
 4960TIP3    H236372   2.020   4.321   0.726  0.3860 -0.8470 -1.0860
 4961TIP3   OH236373   1.572   4.480  11.975 -0.3799  0.2935 -0.0390
 4961TIP3    H136374   1.572   4.386  11.962 -1.4255  0.1496  0.8056
 4961TIP3    H236375   1.628   4.515  11.905 -0.3566 -0.9044 -0.6374
 4962TIP3   OH236376   5.823   2.394  14.935 -0.5922  0.6245 -0.3277
 4962TIP3    H136377   5.747   2.452  14.945 -1.8111 -1.0364  0.4054
 4962TIP3    H236378   5.805   2.319  14.991 -0.1162 -1.5365 -2.8569
 4963TIP3   OH236379   5.419   5.056   0.753  0.6975 -0.2881  0.1001
 4963TIP3    H136380   5.418   4.962   0.736  0.5978  0.0147 -1.7048
 4963TIP3    H236381   5.444   5.096   0.670 -0.3101  1.3513  0.5259
 4964TIP3   OH236382   1.735   1.553  11.995  0.6665  0.6402  0.4552
 4964TIP3    H136383   1.716   1.472  11.948 -0.7181  0.9035  0.5355
 4964TIP3    H236384   1.767   1.613  11.927  0.7904  0.3207  0.2339
 4965TIP3   OH236385   0.887   4.019  15.619  0.0869 -0.6767 -0.5695
 4965TIP3    H136386   0.927   4.050  15.538  0.3638 -1.8243 -0.8787
 4965TIP3    H236387   0.798   3.996  15.594 -0.0547 -0.3448 -0.3815
 4966TIP3   OH236388   1.253   1.650   4.240  0.1452  0.1202 -0.2020
 4966TIP3    H136389   1.297   1.568   4.219 -0.0332 -0.4256  1.4074
 4966TIP3    H236390   1.171   1.624   4.282 -0.1015  1.1157 -0.0295
 4967TIP3   OH236391   0.014   4.383   2.254  0.0897 -0.0203  0.0353
 4967TIP3    H136392  -0.062   4.366   2.311  0.5058  1.4502  1.0934
 4967TIP3    H236393   0.059   4.456   2.296  2.0377 -0.7663 -0.6467
 4968TIP3   OH236394   4.014   2.324  11.514  0.0512 -0.5589  0.8460
 4968TIP3    H136395   4.073   2.306  11.440  0.8198  1.4249  0.9276
 4968TIP3    H236396   3.927   2.304  11.481  0.3419  0.6619 -0.7514
 4969TIP3   OH236397   0.333   0.533   0.964 -0.5564 -0.3247  0.2084
 4969TIP3    H136398   0.267   0.530   1.033 -0.4166 -2.4531  0.3286
 4969TIP3    H236399   0.321   0.450   0.917  2.1197 -0.8557  0.3411
 4970TIP3   OH236400   1.222   2.287   0.778  0.1165 -0.4945 -0.0078
 4970TIP3    H136401   1.292   2.348   0.801  0.0852 -0.3473 -0.3000
 4970TIP3    H236402   1.249   2.249   0.694 -1.7225  2.1031 -1.9623
 4971TIP3   OH236403   6.054   5.036  12.586 -0.2100 -0.3637  0.7333
 4971TIP3    H136404   6.130   5.093  12.573 -0.0186 -0.6101  0.7759
 4971TIP3    H236405   5.991   5.066  12.520 -0.1114 -0.0979  0.7586
 4972TIP3   OH236406   6.798   1.696  10.752 -0.3804  0.4795 -0.0335
 4972TIP3    H136407   6.859   1.734  10.689 -1.0842 -0.6962 -1.4759
 4972TIP3    H236408   6.764   1.617  10.709 -1.0127 -0.2762  1.7570
 4973TIP3   OH236409   0.246   5.166  14.621  0.4702 -0.0649 -0.0310
 4973TIP3    H136410   0.259   5.237  14.559  1.3488  1.4879  1.8024
 4973TIP3    H236411   0.311   5.182  14.690 -0.7795 -1.3844  1.5511
 4974TIP3   OH236412   6.643   2.690  12.801 -0.2897 -0.1008  0.0753
 4974TIP3    H136413   6.735   2.712  12.817  0.1645 -1.2549 -0.7603
 4974TIP3    H236414   6.594   2.768  12.829  0.9229  0.4939  0.6316
 4975TIP3   OH236415   5.908   3.094   4.991 -0.2350  0.7923  0.2903
 4975TIP3    H136416   5.902   3.173   5.045  0.6142  0.5898  0.7133
 4975TIP3    H236417   6.002   3.081   4.980 -0.3614 -0.3518  0.5159
 4976TIP3   OH236418   0.508   0.496   1.739 -0.2327  0.1305  0.4587
 4976TIP3    H136419   0.500   0.428   1.805 -0.5332  0.6674  0.9825
 4976TIP3    H236420   0.515   0.449   1.656  0.5062 -0.5597  0.9004
 4977TIP3   OH236421   2.644   6.322   3.216  0.0319  0.0227  0.3211
 4977TIP3    H136422   2.617   6.277   3.296  0.5977 -2.1554 -0.6391
 4977TIP3    H236423   2.607   6.410   3.224  1.1151  0.3007  3.5214
 4978TIP3   OH236424   6.103   4.981   0.453  0.4823  0.0848  0.6873
 4978TIP3    H136425   6.087   4.957   0.545  2.3390  1.6483  1.4958
 4978TIP3    H236426   6.163   4.914   0.421  1.9819  0.9755  1.5069
 4979TIP3   OH236427   4.835   3.526   1.773  0.2639  0.1668  0.1086
 4979TIP3    H136428   4.918   3.500   1.733  0.3669  0.8097 -0.1119
 4979TIP3    H236429   4.770   3.468   1.734  0.3243  0.9497 -1.2011
 4980TIP3   OH236430   2.758   6.214   5.372 -0.3904  0.4553  0.2260
 4980TIP3    H136431   2.816   6.232   5.298 -2.3693  1.1621 -1.2256
 4980TIP3    H236432   2.745   6.299   5.413 -0.5919  0.3453  0.3913
 4981TIP3   OH236433   3.570   2.646   1.628 -0.1565  0.2827 -0.0223
 4981TIP3    H136434   3.548   2.566   1.581 -0.2667 -0.1002  0.6660
 4981TIP3    H236435   3.664   2.656   1.618  0.2281 -1.0998  1.6326
 4982TIP3   OH236436   1.774   3.346   2.904  0.7090  0.8355 -0.6132
 4982TIP3    H136437   1.859   3.386   2.919  1.7682 -1.9703  1.9800
 4982TIP3    H236438   1.738   3.334   2.992 -0.1911 -2.2925 -1.2851
 4983TIP3   OH236439   0.315   5.475   4.308 -0.1678 -0.5770 -0.5490
 4983TIP3    H136440   0.339   5.560   4.343 -0.1786  0.1448 -2.2069
 4983TIP3    H236441   0.290   5.424   4.385 -1.6372  1.3892  0.3677
 4984TIP3   OH236442   2.369   4.703   5.099 -0.1039  0.3105  0.0950
 4984TIP3    H136443   2.447   4.757   5.098 -0.9943  1.6378 -0.4253
 4984TIP3    H236444   2.323   4.728   5.179 -1.2961  1.5367 -0.9219
 4985TIP3   OH236445   2.770   6.078   3.200  0.0654 -0.3253 -0.4153
 4985TIP3    H136446   2.711   6.153   3.212  1.2092  0.5207  0.1496
 4985TIP3    H236447   2.844   6.114   3.151  0.9552 -0.8981  0.4728
 4986TIP3   OH236448   5.656   2.677   5.347 -0.3473 -0.2316  0.5160
 4986TIP3    H136449   5.582   2.708   5.400 -0.2611 -0.9926  1.0859
 4986TIP3    H236450   5.723   2.653   5.411 -0.0181 -0.5891  0.0376
 4987TIP3   OH236451   2.359   0.832  12.345 -0.1687  0.1121 -0.5213
 4987TIP3    H136452   2.448   0.866  12.351  0.0647 -0.4441 -0.7583
 4987TIP3    H236453   2.317   0.862  12.425  0.8695 -1.4333  0.6516
 4988TIP3   OH236454   3.260   5.774  16.766  0.0096  0.0216 -0.1516
 4988TIP3    H136455   3.212   5.774  16.849  0.3637 -2.5448  0.1403
 4988TIP3    H236456   3.340   5.822  16.785 -0.0396 -0.2847  0.9375
 4989TIP3   OH236457   3.505   2.962  12.993 -0.6007  0.1786 -0.5215
 4989TIP3    H136458   3.426   3.015  12.998 -0.1908  0.7869 -0.4174
 4989TIP3    H236459   3.516   2.944  12.899 -1.1202 -0.3113 -0.4917
 4990TIP3   OH236460   3.935   5.456   1.062  0.0948 -0.5802  0.0919
 4990TIP3    H136461   3.989   5.487   1.136  0.9235  0.7243 -1.0129
 4990TIP3    H236462   3.897   5.536   1.026 -3.5704 -1.5257  1.4824
 4991TIP3   OH236463   4.984   2.236   5.018 -0.1571  0.0039 -0.4321
 4991TIP3    H136464   4.932   2.256   5.096 -1.2215 -0.5874 -0.9615
 4991TIP3    H236465   4.971   2.311   4.960  1.5983  1.0043  0.4032
 4992TIP3   OH236466   3.224   3.396   0.970 -0.0517 -0.4181 -0.3464
 4992TIP3    H136467   3.168   3.326   0.934 -1.0711  0.3135 -0.2369
 4992TIP3    H236468   3.257   3.360   1.052 -1.3973 -0.4362  0.2295
 4993TIP3   OH236469   4.245   5.305   2.089  0.2477 -0.0584  0.1559
 4993TIP3    H136470   4.302   5.337   2.019 -1.6246 -0.0568 -1.4597
 4993TIP3    H236471   4.199   5.230   2.051 -0.7286 -0.1503  1.4342
 4994TIP3   OH236472   5.086   1.236   4.129  0.3202  0.3208  0.5344
 4994TIP3    H136473   4.992   1.223   4.139  0.4447 -1.1576  0.0130
 4994TIP3    H236474   5.101   1.326   4.159 -1.0123  0.0596  2.1231
 4995TIP3   OH236475   0.087   5.611   4.465  0.1203 -0.0822  0.4212
 4995TIP3    H136476  -0.002   5.611   4.431  0.0275 -2.6211  0.4197
 4995TIP3    H236477   0.078   5.626   4.559 -0.4522 -1.4515  0.6012
 4996TIP3   OH236478   1.499   4.671  16.087  0.0134  0.2629 -0.0550
 4996TIP3    H136479   1.480   4.733  16.157  0.8945 -0.4152  0.8221
 4996TIP3    H236480   1.594   4.659  16.091  0.6387  2.6847 -3.5068
 4997TIP3   OH236481   2.668   2.851  10.702  0.2319 -0.2047 -0.4069
 4997TIP3    H136482   2.683   2.945  10.706 -1.0465 -0.0312  1.8075
 4997TIP3    H236483   2.755   2.813  10.694  0.8335  1.1349 -0.4314
 4998TIP3   OH236484   0.087   3.007  15.857 -0.4581  0.1138 -0.2354
 4998TIP3    H136485   0.179   3.035  15.863 -0.8556  1.2955  0.7924
 4998TIP3    H236486   0.091   2.912  15.870  0.6342  0.1293 -0.3207
 4999TIP3   OH236487   2.805   5.157   2.440 -0.2721  0.1214  0.2241
 4999TIP3    H136488   2.714   5.129   2.445 -0.7225  1.3497 -0.5975
 4999TIP3    H236489   2.852   5.096   2.497 -1.3627 -1.4907 -0.5228
 5000TIP3   OH236490   0.457   6.468   4.915 -0.5105  0.1800 -0.1530
 5000TIP3    H136491   0.488   6.378   4.922 -0.4472  0.1434 -0.8562
 5000TIP3    H236492   0.536   6.521   4.922 -0.5849  0.1997  0.5941
 5001TIP3   OH236493   6.297   2.549  10.940 -0.6373  0.3239  0.0811
 5001TIP3    H136494   6.321   2.609  10.869  0.8308 -1.4192 -0.9834
 5001TIP3    H236495   6.207   2.523  10.920 -0.4327  0.2924 -0.8395
 5002TIP3   OH236496   6.413   5.665  13.517 -0.0359  0.0638  0.9373
 5002TIP3    H136497   6.391   5.627  13.432 -1.7855 -0.1971  1.4742
 5002TIP3    H236498   6.329   5.677  13.561  0.7011  1.6941  2.0155
 5003TIP3   OH236499   4.445   2.134   0.925 -0.1133  0.4405  0.1710
 5003TIP3    H136500   4.525   2.096   0.961  1.4254  0.6036 -2.7121
 5003TIP3    H236501   4.379   2.064   0.933  0.9191 -0.5064  0.6671
 5004TIP3   OH236502   1.498   4.306  16.352  0.2786  0.1723 -0.1057
 5004TIP3    H136503   1.449   4.324  16.432  0.5175  0.6995 -0.0744
 5004TIP3    H236504   1.577   4.358  16.360  0.8597 -0.6738 -0.1520
 5005TIP3   OH236505   5.530   3.876  15.889  0.4310  0.5195  0.6833
 5005TIP3    H136506   5.596   3.807  15.898  1.0801  1.1357  0.7553
 5005TIP3    H236507   5.473   3.864  15.965 -0.2137 -0.7030  0.0403
 5006TIP3   OH236508   1.157   5.439   0.219  0.3292  0.1889  0.2659
 5006TIP3    H136509   1.165   5.522   0.266  0.4321 -0.4857  1.4726
 5006TIP3    H236510   1.188   5.458   0.130 -0.6511  1.6972  0.2122
 5007TIP3   OH236511   3.500   5.621   3.486 -0.0924  0.4633 -0.1742
 5007TIP3    H136512   3.421   5.619   3.432 -0.9962  0.3042  1.1236
 5007TIP3    H236513   3.471   5.652   3.571  1.2051  0.1691  0.4023
 5008TIP3   OH236514   6.324   5.592  10.709 -0.1471 -0.0622  0.1607
 5008TIP3    H136515   6.261   5.644  10.659  1.0533  0.7495 -0.5608
 5008TIP3    H236516   6.405   5.643  10.706  0.9910 -1.7922 -0.2744
 5009TIP3   OH236517   4.531   5.208   0.666 -0.2459 -0.1026 -0.4197
 5009TIP3    H136518   4.489   5.256   0.595  0.4268  0.2634 -0.5867
 5009TIP3    H236519   4.581   5.275   0.714 -0.2694 -0.4342  0.0760
 5010TIP3   OH236520   2.467   0.759  14.182 -0.5642  0.0777 -0.5780
 5010TIP3    H136521   2.408   0.804  14.122 -1.8276  0.0430  0.6046
 5010TIP3    H236522   2.554   0.790  14.157 -0.9806 -0.3630 -2.7640
 5011TIP3   OH236523   1.005   5.694   4.251 -0.3848  0.0638 -0.3777
 5011TIP3    H136524   1.061   5.712   4.175 -0.0488 -1.0273 -0.4114
 5011TIP3    H236525   0.940   5.764   4.250  0.2979  0.7097 -1.0054
 5012TIP3   OH236526   1.592   0.644  12.849  0.1307 -0.3805 -0.2441
 5012TIP3    H136527   1.571   0.566  12.900  0.2865  0.2782  0.8457
 5012TIP3    H236528   1.678   0.672  12.882  0.4028 -0.1360 -1.1137
 5013TIP3   OH236529   3.957   3.045   1.471 -0.0979 -0.1250  0.1231
 5013TIP3    H136530   4.010   3.011   1.543  1.5096  1.4092 -0.2661
 5013TIP3    H236531   3.877   3.077   1.513 -0.3351 -1.5778  0.8487
 5014TIP3   OH236532   2.897   6.460   3.724  0.1049 -0.3622 -0.0720
 5014TIP3    H136533   2.882   6.407   3.646  0.5175 -1.6901  0.7206
 5014TIP3    H236534   2.814   6.457   3.772 -0.7864  2.0205 -1.3133
 5015TIP3   OH236535   2.456   0.216   3.552 -0.8494 -0.1489 -0.8011
 5015TIP3    H136536   2.362   0.209   3.568 -0.5302 -0.2773  1.3833
 5015TIP3    H236537   2.496   0.158   3.617  0.8239  1.9472  0.1807
 5016TIP3   OH236538   0.466   4.101  14.189 -0.4096  0.1890  0.0417
 5016TIP3    H136539   0.482   4.021  14.240 -0.4380  0.3378  0.2859
 5016TIP3    H236540   0.451   4.070  14.100  0.4352 -0.0106 -0.0354
 5017TIP3   OH236541   1.664   4.542   0.734  0.2117  0.4974  0.6997
 5017TIP3    H136542   1.675   4.623   0.784  1.3983  0.5997  0.2943
 5017TIP3    H236543   1.572   4.518   0.748  0.0392  1.5066  1.4272
 5018TIP3   OH236544   5.562   4.966   1.768  0.0876  0.1516  0.2137
 5018TIP3    H136545   5.579   5.061   1.767 -0.6226  0.2963  0.9965
 5018TIP3    H236546   5.557   4.944   1.861 -1.5659 -0.3093  0.0380
 5019TIP3   OH236547   4.301   0.316   1.280  0.5493  0.2436  0.3562
 5019TIP3    H136548   4.241   0.330   1.206  1.2368  1.0640 -0.0635
 5019TIP3    H236549   4.243   0.297   1.353 -0.1375 -0.9041 -0.4443
 5020TIP3   OH236550   4.069   0.831   2.923 -0.0306  0.1387  0.3469
 5020TIP3    H136551   4.160   0.822   2.894 -0.3115  0.6591 -0.7659
 5020TIP3    H236552   4.025   0.754   2.885  0.0766 -0.5466  1.5454
 5021TIP3   OH236553   2.352   0.333  13.397 -0.1113  0.4834 -0.2792
 5021TIP3    H136554   2.447   0.331  13.408 -0.3426  1.2859  2.8106
 5021TIP3    H236555   2.330   0.426  13.403 -1.1059  0.2885 -0.7817
 5022TIP3   OH236556   0.430   6.694   5.490 -0.0158  0.5563 -1.0319
 5022TIP3    H136557   0.347   6.728   5.523  0.7408  0.6509  0.9391
 5022TIP3    H236558   0.438   6.730   5.402 -1.3197  1.8613 -0.6500
 5023TIP3   OH236559   4.354   0.837  11.737 -0.2684 -0.3345 -0.1023
 5023TIP3    H136560   4.355   0.784  11.657  0.5131  0.4617 -0.6379
 5023TIP3    H236561   4.266   0.825  11.773 -0.2775 -1.5431 -0.5080
 5024TIP3   OH236562   4.226   0.263  16.620 -0.0350  0.4531  0.1392
 5024TIP3    H136563   4.214   0.348  16.577 -0.5716  0.0610 -0.5157
 5024TIP3    H236564   4.271   0.284  16.701 -1.9582  1.6342  0.9956
 5025TIP3   OH236565   4.334   5.074   4.397  0.2282 -0.0837  0.2047
 5025TIP3    H136566   4.386   4.999   4.370  0.3327  0.1827 -0.3449
 5025TIP3    H236567   4.378   5.149   4.357 -0.1478  0.2222  0.3594
 5026TIP3   OH236568   5.196   5.660  12.986  0.7303  0.5187  0.7205
 5026TIP3    H136569   5.192   5.565  12.994  0.9885  0.2737 -1.4389
 5026TIP3    H236570   5.157   5.693  13.066 -1.3347 -1.4372  0.6061
 5027TIP3   OH236571   1.404   0.721  14.709 -0.0536 -0.4973  0.5232
 5027TIP3    H136572   1.472   0.743  14.773  0.2745  0.7768 -0.2340
 5027TIP3    H236573   1.427   0.772  14.631 -0.9611 -1.3181 -0.3076
 5028TIP3   OH236574   6.157   4.187  13.558  0.9146  0.8324  0.4089
 5028TIP3    H136575   6.182   4.107  13.512  1.2805  0.6645  0.8891
 5028TIP3    H236576   6.061   4.188  13.554  0.9311  0.6513 -0.0672
 5029TIP3   OH236577   0.181   6.574   3.449 -0.4487  0.9099 -0.0866
 5029TIP3    H136578   0.159   6.539   3.535 -1.5284  0.0769 -0.6643
 5029TIP3    H236579   0.260   6.528   3.423  0.1884  1.5632  0.6800
 5030TIP3   OH236580   0.479   3.259  13.086 -0.6349 -0.2649 -0.1602
 5030TIP3    H136581   0.485   3.354  13.076 -0.6277 -0.4879 -3.0523
 5030TIP3    H236582   0.386   3.239  13.073 -0.8331 -0.6125  1.5267
 5031TIP3   OH236583   1.766   0.180   4.949 -0.9222 -0.2435  0.6096
 5031TIP3    H136584   1.713   0.100   4.951  1.5601 -1.9742  0.8440
 5031TIP3    H236585   1.759   0.216   5.037  1.5018 -2.7516  1.9303
 5032TIP3   OH236586   2.413   5.993  10.389  0.5218  0.0526  0.1673
 5032TIP3    H136587   2.346   5.925  10.390  0.4425  0.1291 -0.0515
 5032TIP3    H236588   2.375   6.064  10.338  0.7239  0.1422  0.1421
 5033TIP3   OH236589   1.162   6.259   4.939  0.0132 -0.3126 -0.7480
 5033TIP3    H136590   1.136   6.352   4.936  0.3417 -0.2571 -2.2614
 5033TIP3    H236591   1.110   6.223   5.012 -1.8667  0.5508 -1.5758
 5034TIP3   OH236592   1.704   0.113   2.038 -0.2375 -0.2612  0.4023
 5034TIP3    H136593   1.637   0.103   1.970  0.8755  0.4912 -0.8443
 5034TIP3    H236594   1.691   0.037   2.095 -2.0010 -0.2489  0.0841
 5035TIP3   OH236595   0.273   0.041  13.967  0.3412  0.1763  0.6979
 5035TIP3    H136596   0.237  -0.037  14.007  1.3511 -0.5928  0.1497
 5035TIP3    H236597   0.226   0.050  13.884  1.3059 -0.7510  0.0418
 5036TIP3   OH236598   5.350   6.573   2.145  0.3354 -0.6858  0.0756
 5036TIP3    H136599   5.304   6.501   2.102  0.9131 -1.0206  0.0019
 5036TIP3    H236600   5.315   6.574   2.234 -1.1803  0.2942 -0.4946
 5037TIP3   OH236601   2.829   0.660   5.320  0.2385  0.1470 -0.3434
 5037TIP3    H136602   2.789   0.619   5.397  1.2624  0.7875  0.5629
 5037TIP3    H236603   2.793   0.749   5.319 -2.0808 -0.6972 -2.3800
 5038TIP3   OH236604   2.157   6.850   6.390 -0.4702 -0.3620 -0.3142
 5038TIP3    H136605   2.233   6.899   6.360 -0.9718  0.2966 -0.5283
 5038TIP3    H236606   2.091   6.917   6.409 -1.0133 -0.9269 -0.1860
 5039TIP3   OH236607   6.555   1.692  12.547  0.4464  0.0144 -0.1156
 5039TIP3    H136608   6.563   1.619  12.608  1.0232  0.9965  0.9993
 5039TIP3    H236609   6.462   1.692  12.523 -0.4033  1.1693  2.7647
 5040TIP3   OH236610   0.075   2.015   5.950 -0.2865  0.1945  0.7139
 5040TIP3    H136611   0.038   2.016   5.862  0.6477 -1.9538  0.2365
 5040TIP3    H236612   0.037   1.937   5.991 -0.2725  0.8509  2.0194
 5041TIP3   OH236613   2.059   0.138   2.641 -0.1923 -0.1538  0.1662
 5041TIP3    H136614   2.107   0.127   2.558 -0.8053  0.4610 -0.2833
 5041TIP3    H236615   2.003   0.214   2.626  1.8460  1.8997  2.1368
 5042TIP3   OH236616   4.337   3.183   2.925 -0.0921  0.2305  0.1743
 5042TIP3    H136617   4.261   3.149   2.973 -0.4578  2.0232  0.9209
 5042TIP3    H236618   4.405   3.116   2.937  0.2073  0.9887  4.1733
 5043TIP3   OH236619   6.051   1.177   3.880 -0.5192  0.0601 -0.3518
 5043TIP3    H136620   6.019   1.209   3.795 -0.9737  2.0045  0.4917
 5043TIP3    H236621   6.132   1.225   3.894 -0.5291 -0.1302  0.3715
 5044TIP3   OH236622   2.216   1.689   5.238 -0.4289  0.3313  0.0409
 5044TIP3    H136623   2.289   1.630   5.220 -0.0002  1.1132 -0.8869
 5044TIP3    H236624   2.254   1.758   5.292 -0.3982  0.8767 -0.6565
 5045TIP3   OH236625   3.905   6.706   1.288  0.4681  0.8925 -0.0088
 5045TIP3    H136626   3.981   6.722   1.232  0.2600 -0.8645 -0.8765
 5045TIP3    H236627   3.862   6.630   1.249 -1.1731  1.2142  1.0560
 5046TIP3   OH236628   3.195   6.536  13.919  0.2641  0.7281  0.4993
 5046TIP3    H136629   3.259   6.477  13.958 -0.6073  0.0271  0.8942
 5046TIP3    H236630   3.120   6.532  13.978 -0.8749  0.0664 -0.9474
 5047TIP3   OH236631   4.224   2.504   5.756 -0.0925 -0.2734 -0.0737
 5047TIP3    H136632   4.195   2.587   5.793 -1.0831 -0.7934  0.3546
 5047TIP3    H236633   4.203   2.511   5.663  0.6369  0.2930 -0.2010
 5048TIP3   OH236634   1.438   1.912   0.151  0.0417 -0.2326 -0.2974
 5048TIP3    H136635   1.409   1.969   0.080  0.2724  0.6566  0.3096
 5048TIP3    H236636   1.460   1.971   0.222 -0.3205 -1.1171  0.5793
 5049TIP3   OH236637   1.129   1.417   1.043 -0.2520 -0.0927 -0.1308
 5049TIP3    H136638   1.165   1.480   1.105  0.8526  0.8609 -1.6723
 5049TIP3    H236639   1.140   1.458   0.957 -0.2134 -2.0437 -1.1205
 5050TIP3   OH236640   5.803   2.400  11.423  0.6526 -0.1877  0.2837
 5050TIP3    H136641   5.723   2.439  11.389  1.2322 -0.2678 -1.2273
 5050TIP3    H236642   5.870   2.467  11.411  0.8761 -0.2106  1.3156
 5051TIP3   OH236643   6.265   6.146  16.228 -0.1076  0.4153  0.1926
 5051TIP3    H136644   6.190   6.148  16.168 -0.8173 -0.6653  1.0200
 5051TIP3    H236645   6.300   6.236  16.225 -0.9776  0.7422 -0.7547
 5052TIP3   OH236646   2.389   2.086  12.260 -0.2417 -0.1854  0.0567
 5052TIP3    H136647   2.319   2.136  12.301 -0.4865  1.1312 -1.8354
 5052TIP3    H236648   2.463   2.147  12.256  0.1530 -0.6842 -0.3563
 5053TIP3   OH236649   0.115   2.100   4.026  0.0942  0.1886  0.2721
 5053TIP3    H136650   0.026   2.066   4.038 -0.1292 -0.1560 -1.9033
 5053TIP3    H236651   0.143   2.064   3.942  1.2298  2.5137 -0.4292
 5054TIP3   OH236652   0.027   3.529  13.507  0.0399 -0.3561  0.2806
 5054TIP3    H136653   0.012   3.529  13.601 -0.7276 -2.0564  0.1909
 5054TIP3    H236654   0.122   3.523  13.497  0.0482 -1.8937  0.9909
 5055TIP3   OH236655   0.220   1.840  16.630 -0.4350  0.7726  0.3443
 5055TIP3    H136656   0.247   1.814  16.542 -2.2468 -1.2783  0.3345
 5055TIP3    H236657   0.194   1.932  16.620  0.5264  0.9369 -0.9689
 5056TIP3   OH236658   3.730   0.113   3.262 -0.1803 -0.1600 -0.5620
 5056TIP3    H136659   3.743   0.102   3.356 -1.7256 -1.2213 -0.4279
 5056TIP3    H236660   3.736   0.024   3.227 -3.4516 -0.4117 -0.8549
 5057TIP3   OH236661   2.249   4.397   5.420  0.5826 -0.3004 -0.0412
 5057TIP3    H136662   2.279   4.401   5.510 -1.6246  0.3887  0.7152
 5057TIP3    H236663   2.246   4.488   5.391 -1.2665 -0.2566  0.1432
 5058TIP3   OH236664   5.252   3.315  12.319 -0.3577  0.1095 -0.4303
 5058TIP3    H136665   5.341   3.336  12.348 -0.1692  0.3815 -1.1750
 5058TIP3    H236666   5.242   3.222  12.340  0.1218  0.0616 -0.3888
 5059TIP3   OH236667   3.517   0.782  16.682  0.2994 -0.3167 -0.1228
 5059TIP3    H136668   3.496   0.695  16.714  0.1120 -1.2406 -2.5501
 5059TIP3    H236669   3.449   0.838  16.720 -1.2782 -1.7305 -0.7235
 5060TIP3   OH236670   6.778   2.885   3.569  0.4940  0.3591  0.5782
 5060TIP3    H136671   6.793   2.909   3.660  0.2291  0.9129  0.4750
 5060TIP3    H236672   6.700   2.933   3.543  0.1368 -0.3622  0.2742
 5061TIP3   OH236673   0.618   1.870  11.650  0.3512  0.9832  0.4664
 5061TIP3    H136674   0.581   1.954  11.621  0.7269  1.0362  0.1368
 5061TIP3    H236675   0.665   1.892  11.731  0.9889  1.2147  0.0372
 5062TIP3   OH236676   5.108   1.005  12.700 -0.0822  0.0274  0.0045
 5062TIP3    H136677   5.107   1.024  12.607  0.6759 -0.4497 -0.1123
 5062TIP3    H236678   5.191   1.041  12.731 -0.4790  0.4754  0.5623
 5063TIP3   OH236679   1.538   2.575  12.365 -0.1050 -0.0793  0.2660
 5063TIP3    H136680   1.631   2.552  12.362 -0.2534 -0.7838  0.9003
 5063TIP3    H236681   1.538   2.671  12.369  0.6157 -0.0998  1.0905
 5064TIP3   OH236682   1.552   2.646  15.465 -0.8104  0.5832  0.3588
 5064TIP3    H136683   1.587   2.625  15.552  1.0057 -0.4678 -0.5559
 5064TIP3    H236684   1.470   2.692  15.483 -0.6484  0.1406  2.6146
 5065TIP3   OH236685   4.173   5.552  15.794 -0.2630 -0.0899  0.5496
 5065TIP3    H136686   4.208   5.540  15.883 -1.2110  0.5399  1.0193
 5065TIP3    H236687   4.102   5.487  15.787 -0.4276  0.1077  0.3829
 5066TIP3   OH236688   5.240   4.280   3.011 -0.0669  0.1043  0.0028
 5066TIP3    H136689   5.237   4.347   3.081 -1.8902 -1.1020  1.1803
 5066TIP3    H236690   5.332   4.274   2.988  0.4287  1.4834  1.3929
 5067TIP3   OH236691   1.384   0.377   2.995  0.5833  0.0092  0.0126
 5067TIP3    H136692   1.327   0.453   3.008 -0.4756 -0.9171  0.9652
 5067TIP3    H236693   1.454   0.389   3.060  1.2844  0.9329 -0.8774
 5068TIP3   OH236694   6.792   5.593   6.753  0.0267  0.0387  0.2955
 5068TIP3    H136695   6.853   5.638   6.812 -0.4251 -0.7992  1.4299
 5068TIP3    H236696   6.731   5.548   6.811 -1.7084  0.8692 -0.7989
 5069TIP3   OH236697   5.355   3.917   4.687 -0.0453  0.1722 -0.5060
 5069TIP3    H136698   5.437   3.966   4.687 -0.6770  1.3761  1.8809
 5069TIP3    H236699   5.295   3.971   4.635 -0.7035  2.0522  2.0091
 5070TIP3   OH236700   1.206   1.026   1.901 -0.2425 -0.0788 -0.1950
 5070TIP3    H136701   1.186   1.099   1.959  1.6787  0.4718 -0.1583
 5070TIP3    H236702   1.301   1.024   1.896 -0.3030 -0.9681 -2.2469
 5071TIP3   OH236703   6.531   2.714  12.320  0.2146  0.1255  0.1724
 5071TIP3    H136704   6.445   2.723  12.360 -0.5057 -1.5923 -0.8214
 5071TIP3    H236705   6.585   2.672  12.387 -0.2780 -0.4993  0.1907
 5072TIP3   OH236706   1.125   4.114  15.809  0.0386 -0.1208  0.2129
 5072TIP3    H136707   1.169   4.184  15.760 -2.3448  0.6877 -0.9310
 5072TIP3    H236708   1.036   4.112  15.773 -0.8103 -1.8417  2.2018
 5073TIP3   OH236709   3.268   4.762  10.972 -0.1693  0.6712 -0.1527
 5073TIP3    H136710   3.180   4.776  11.007 -1.0963 -0.9506 -1.6574
 5073TIP3    H236711   3.295   4.848  10.940 -2.7998  0.6002 -3.0151
 5074TIP3   OH236712   4.028   1.050  13.348 -0.7117  0.4947  0.5686
 5074TIP3    H136713   3.970   0.977  13.371 -1.6768  0.8380 -0.6479
 5074TIP3    H236714   3.985   1.127  13.385 -0.5169  0.6397  0.4962
 5075TIP3   OH236715   6.853   3.862  13.802  0.0906  0.1557 -0.1041
 5075TIP3    H136716   6.804   3.791  13.763 -0.1264  0.3527 -0.1908
 5075TIP3    H236717   6.915   3.819  13.861 -1.2564 -0.0253  1.2402
 5076TIP3   OH236718   2.073   1.225  11.759  0.2352  0.0989  0.1529
 5076TIP3    H136719   2.064   1.311  11.801  1.7504  0.1677  0.3930
 5076TIP3    H236720   2.119   1.171  11.823 -0.6371 -0.8881 -0.0268
 5077TIP3   OH236721   3.808   2.517   4.382  0.0844  0.2893 -0.0370
 5077TIP3    H136722   3.847   2.589   4.332 -0.6547  0.7225 -0.0104
 5077TIP3    H236723   3.882   2.462   4.407  0.7461  1.3403  0.4170
 5078TIP3   OH236724   6.463   6.775   5.254  0.2101  0.2986 -0.3934
 5078TIP3    H136725   6.433   6.693   5.215 -0.7374  0.2887  0.3126
 5078TIP3    H236726   6.546   6.794   5.211 -1.2166  0.7965 -3.1440
 5079TIP3   OH236727   5.365   0.143   0.684  0.1664  0.0532  0.1568
 5079TIP3    H136728   5.277   0.116   0.709 -0.2374  2.2415  1.2834
 5079TIP3    H236729   5.382   0.095   0.603 -1.5888 -1.2778  0.5069
 5080TIP3   OH236730   2.034   1.413   2.126  0.2928  0.0969 -0.5609
 5080TIP3    H136731   1.997   1.488   2.078 -0.0924 -0.9229 -1.9151
 5080TIP3    H236732   2.040   1.344   2.061 -1.7246 -1.8694  1.1838
 5081TIP3   OH236733   1.774   1.152   3.222 -0.5031  0.2018 -0.4745
 5081TIP3    H136734   1.764   1.127   3.130  0.2440 -0.3788 -0.4034
 5081TIP3    H236735   1.742   1.076   3.271 -2.5706  1.1628 -0.2149
 5082TIP3   OH236736   5.561   6.601   4.403  0.1868 -0.0844 -0.2053
 5082TIP3    H136737   5.642   6.625   4.448 -0.1270  2.7706 -0.9971
 5082TIP3    H236738   5.501   6.673   4.422 -0.7953 -0.0667 -3.0182
 5083TIP3   OH236739   6.204   2.111   3.086  0.5936 -0.1131  0.4919
 5083TIP3    H136740   6.223   2.177   3.020  0.9125 -0.1329  0.5621
 5083TIP3    H236741   6.110   2.094   3.077  0.7680 -0.6654 -0.4579
 5084TIP3   OH236742   3.393   2.513   2.218  0.0462 -0.3142  0.0024
 5084TIP3    H136743   3.485   2.510   2.243  0.1069  0.3404 -0.1097
 5084TIP3    H236744   3.394   2.515   2.122  0.0629  2.3315 -0.0152
 5085TIP3   OH236745   2.439   2.059  11.137 -0.0866  0.6507 -0.5031
 5085TIP3    H136746   2.372   2.085  11.073 -1.1563 -0.8864 -0.0442
 5085TIP3    H236747   2.495   1.998  11.090  0.8164  1.6747 -0.7843
 5086TIP3   OH236748   0.153   3.172  10.681  0.4188  0.8168  0.7166
 5086TIP3    H136749   0.206   3.220  10.745  0.7404 -0.7058  1.6482
 5086TIP3    H236750   0.090   3.124  10.734 -0.7307  1.1985 -0.2759
 5087TIP3   OH236751   0.749   0.773   5.788 -0.6954  0.3980 -0.0534
 5087TIP3    H136752   0.806   0.710   5.831  0.1449  1.8478  1.0657
 5087TIP3    H236753   0.660   0.750   5.817 -0.3030  0.3225  1.1243
 5088TIP3   OH236754   6.151   3.773   0.834 -0.2410  0.1154 -0.1606
 5088TIP3    H136755   6.232   3.749   0.879  0.2464  0.6961 -0.7110
 5088TIP3    H236756   6.111   3.689   0.810  1.4252 -0.2204 -2.0522
 5089TIP3   OH236757   5.206   6.231  15.061  0.2325 -0.0381  0.2561
 5089TIP3    H136758   5.207   6.138  15.038  0.4787 -0.1501  0.6876
 5089TIP3    H236759   5.192   6.277  14.979 -3.1641 -0.5618  0.3966
 5090TIP3   OH236760   4.186   6.273   4.814 -0.7131 -0.2369 -0.3482
 5090TIP3    H136761   4.097   6.296   4.842  0.0365  1.3080  0.9370
 5090TIP3    H236762   4.234   6.258   4.895 -0.0425 -2.1860 -1.0632
 5091TIP3   OH236763   3.811   5.720  13.094  0.0261 -0.6748  0.1083
 5091TIP3    H136764   3.770   5.717  13.007  0.2502 -0.9468  0.0069
 5091TIP3    H236765   3.897   5.760  13.078 -0.0391 -0.4796  0.2507
 5092TIP3   OH236766   6.169   2.283  14.843 -0.0591  0.7765  0.2921
 5092TIP3    H136767   6.144   2.200  14.885  1.9773  1.1160  2.3797
 5092TIP3    H236768   6.220   2.329  14.910  0.7000  2.7868 -1.5603
 5093TIP3   OH236769   2.506   0.690   0.860 -0.1050  0.2265 -0.1967
 5093TIP3    H136770   2.473   0.734   0.781 -0.1687  0.5784  0.0250
 5093TIP3    H236771   2.566   0.623   0.826  1.2300  1.5112 -0.5033
 5094TIP3   OH236772   6.394   6.066   4.772 -0.2116 -0.3834 -0.4438
 5094TIP3    H136773   6.358   6.015   4.844  1.8933 -2.1670 -0.5510
 5094TIP3    H236774   6.320   6.077   4.711 -0.9040 -2.8630 -0.1506
 5095TIP3   OH236775   6.081   0.941   4.193 -0.6565 -0.5169 -0.9499
 5095TIP3    H136776   6.079   1.006   4.263 -1.1285 -0.3970 -1.0659
 5095TIP3    H236777   5.996   0.951   4.150 -0.7622 -1.2561 -0.9283
 5096TIP3   OH236778   3.697   1.105  12.031  0.0877 -0.1517  0.4132
 5096TIP3    H136779   3.636   1.099  12.104 -2.4665  2.5162 -1.3239
 5096TIP3    H236780   3.739   1.190  12.040  1.8493 -0.9368  0.2128
 5097TIP3   OH236781   5.095   3.408  11.259  0.3283 -0.3230  0.0861
 5097TIP3    H136782   4.999   3.399  11.264  0.2480 -0.3070 -1.0403
 5097TIP3    H236783   5.109   3.482  11.200  1.0544  0.7922  1.5888
 5098TIP3   OH236784   5.605   2.341  14.215  1.0254 -0.5256 -0.2349
 5098TIP3    H136785   5.581   2.257  14.177  1.1040 -0.1061 -1.2286
 5098TIP3    H236786   5.521   2.382  14.238  0.8650 -0.0516 -1.5697
 5099TIP3   OH236787   3.105   6.047   3.252  0.1125 -0.2506  0.1005
 5099TIP3    H136788   3.143   6.071   3.168  0.8964 -0.6237  0.3344
 5099TIP3    H236789   3.175   6.000   3.297 -0.9947 -2.0407  0.0739
 5100TIP3   OH236790   2.158   3.739   0.529 -0.6936  0.8114  0.2131
 5100TIP3    H136791   2.191   3.826   0.553 -0.3026  0.7807 -0.2247
 5100TIP3    H236792   2.203   3.717   0.448 -0.7519  0.1703  0.3518
 5101TIP3   OH236793   1.671   0.758  15.627  0.6461 -0.3390  0.1191
 5101TIP3    H136794   1.741   0.824  15.633  1.0923 -0.8814  1.4355
 5101TIP3    H236795   1.613   0.779  15.700 -1.7980  1.3774 -2.1346
 5102TIP3   OH236796   5.660   4.626   2.015  0.7965  0.4658 -0.5640
 5102TIP3    H136797   5.665   4.533   2.034 -2.2411  0.4856  1.0340
 5102TIP3    H236798   5.594   4.633   1.946  0.5565  1.4664 -0.2572
 5103TIP3   OH236799   6.509   0.849   1.577  0.6766 -0.2713 -0.8249
 5103TIP3    H136800   6.577   0.858   1.643 -0.4220 -0.2321  0.3533
 5103TIP3    H236801   6.465   0.767   1.598  1.0446 -0.8529 -2.2412
 5104TIP3   OH236802   0.971   5.197   2.259 -0.5448 -0.1377  0.0326
 5104TIP3    H136803   0.952   5.212   2.351  1.8605 -0.4142  0.6538
 5104TIP3    H236804   0.979   5.102   2.250  1.8337 -0.0279  0.2219
 5105TIP3   OH236805   0.916   5.066   5.500 -0.1784  0.1671  0.7205
 5105TIP3    H136806   0.868   5.147   5.483 -0.5743 -0.5333 -2.1560
 5105TIP3    H236807   0.849   5.006   5.534  0.0353  0.8625  2.4801
 5106TIP3   OH236808   0.967   4.294   0.065 -0.5359  0.3554  0.0412
 5106TIP3    H136809   1.055   4.257   0.056 -0.2231  0.7441  1.2038
 5106TIP3    H236810   0.931   4.250   0.142 -1.3029  0.3198 -0.3312
 5107TIP3   OH236811   1.855   2.769   0.119  0.0236 -0.0194 -0.7776
 5107TIP3    H136812   1.792   2.818   0.173  0.2935  2.5451 -2.6046
 5107TIP3    H236813   1.934   2.764   0.173 -0.1303  1.3403 -0.3808
 5108TIP3   OH236814   0.975   0.395  15.958  0.1160 -0.0288  0.2665
 5108TIP3    H136815   0.969   0.313  16.007  0.4315 -0.2731 -0.0918
 5108TIP3    H236816   0.902   0.392  15.897 -0.8184  0.6966  1.3315
 5109TIP3   OH236817   4.674   0.464  13.257  0.2029 -0.2119  0.2991
 5109TIP3    H136818   4.657   0.439  13.167 -0.5594 -0.8635  0.6149
 5109TIP3    H236819   4.767   0.486  13.259  0.2488 -0.3191 -0.6098
 5110TIP3   OH236820   2.307   3.799  16.240  0.0466  0.0824 -0.6190
 5110TIP3    H136821   2.313   3.704  16.227  0.9142 -0.3842  2.3001
 5110TIP3    H236822   2.385   3.834  16.196  1.8454 -1.0943  1.4130
 5111TIP3   OH236823   0.831   1.471   3.546  0.3548  0.4932  0.3787
 5111TIP3    H136824   0.894   1.405   3.518 -1.4614 -2.3879  2.5028
 5111TIP3    H236825   0.790   1.501   3.465 -0.8638 -3.3664 -0.6599
 5112TIP3   OH236826   3.202   1.721   2.785 -0.1100  0.3686  0.1987
 5112TIP3    H136827   3.151   1.778   2.843  1.5721  0.3377  1.8051
 5112TIP3    H236828   3.261   1.781   2.739  0.3490  0.1334  0.4746
 5113TIP3   OH236829   5.285   3.479  16.075 -0.2121 -0.8922  0.0647
 5113TIP3    H136830   5.363   3.522  16.111 -0.4269  0.0808 -0.6127
 5113TIP3    H236831   5.313   3.444  15.990 -0.4490 -0.7666 -0.0654
 5114TIP3   OH236832   2.513   5.488   4.813 -0.1581 -0.4767  0.3797
 5114TIP3    H136833   2.576   5.540   4.863 -0.9241  0.1236  0.7348
 5114TIP3    H236834   2.429   5.530   4.829 -0.5479 -0.8020 -0.7020
 5115TIP3   OH236835   5.214   3.694  16.299 -0.3116  0.5585  0.4980
 5115TIP3    H136836   5.266   3.697  16.380 -0.3253  0.9794  0.4932
 5115TIP3    H236837   5.202   3.601  16.282 -0.9828  0.4606  1.4239
 5116TIP3   OH236838   2.325   3.742  11.561 -0.1271  0.5271  0.2953
 5116TIP3    H136839   2.245   3.694  11.540 -0.9201  0.8658  2.2572
 5116TIP3    H236840   2.317   3.761  11.655  3.0261 -0.8691  0.9773
 5117TIP3   OH236841   4.434   5.998  15.483  0.0038 -0.7610 -1.0142
 5117TIP3    H136842   4.460   6.026  15.395 -1.5629  1.0335 -0.9765
 5117TIP3    H236843   4.381   6.071  15.517 -2.5496 -2.9018 -0.0147
 5118TIP3   OH236844   4.681   5.977  16.804  0.1191 -0.3777  0.1135
 5118TIP3    H136845   4.680   6.050  16.866 -0.4819  1.0335 -1.4727
 5118TIP3    H236846   4.745   6.002  16.738 -0.5681 -0.9614 -0.8019
 5119TIP3   OH236847   3.876   2.554  15.122 -0.7178 -0.1494 -0.6049
 5119TIP3    H136848   3.908   2.563  15.211 -1.4404  0.9125 -0.4334
 5119TIP3    H236849   3.834   2.638  15.102 -1.0141 -0.5410 -1.7615
 5120TIP3   OH236850   5.988   5.262   4.517 -0.8135 -0.0789 -0.0759
 5120TIP3    H136851   6.056   5.204   4.551 -0.6349  0.5133  0.6141
 5120TIP3    H236852   5.949   5.301   4.596 -0.7224  0.9663 -0.5324
 5121TIP3   OH236853   2.882   5.055  16.923 -0.4834  0.2871  0.1740
 5121TIP3    H136854   2.807   5.087  16.974 -1.1398 -0.8557 -0.0189
 5121TIP3    H236855   2.877   5.102  16.840 -0.9794  0.2516  0.1802
 5122TIP3   OH236856   1.277   2.662  13.781 -0.2295 -0.0247  0.3473
 5122TIP3    H136857   1.272   2.626  13.869 -1.1371  1.0057  0.7364
 5122TIP3    H236858   1.371   2.663  13.760 -0.1547 -2.9055  0.1542
 5123TIP3   OH236859   6.296   6.068  16.962 -0.0917 -0.4206 -0.3079
 5123TIP3    H136860   6.309   6.061  16.868 -1.5183 -0.4193 -0.5210
 5123TIP3    H236861   6.216   6.018  16.980  0.3951 -0.7941  0.9741
 5124TIP3   OH236862   1.080   0.455   3.427  0.2954  0.2258 -0.1905
 5124TIP3    H136863   1.016   0.488   3.490 -0.3261  3.5834 -2.3390
 5124TIP3    H236864   1.058   0.363   3.417 -0.9761  0.0950  2.7799
 5125TIP3   OH236865   5.968   6.269   3.928 -0.8837 -0.4210 -0.2265
 5125TIP3    H136866   6.004   6.302   4.010  1.6505 -0.5732 -1.1898
 5125TIP3    H236867   5.877   6.299   3.929 -0.5524  0.8056  1.9657
 5126TIP3   OH236868   1.026   5.837  12.350 -0.5373 -0.1630  0.4760
 5126TIP3    H136869   1.076   5.839  12.268  0.5599  1.6017  1.1049
 5126TIP3    H236870   1.070   5.771  12.403 -1.8149 -1.9785 -0.6328
 5127TIP3   OH236871   3.097   1.405   3.001 -0.1212 -0.2881 -0.0453
 5127TIP3    H136872   3.160   1.434   3.068  0.2585 -0.7211 -0.2082
 5127TIP3    H236873   3.137   1.432   2.918 -0.2931 -0.3029 -0.1329
 5128TIP3   OH236874   4.448   5.763   2.104  0.3036 -0.0866  0.1231
 5128TIP3    H136875   4.503   5.779   2.180 -0.4818  0.7468  0.5372
 5128TIP3    H236876   4.509   5.750   2.032  1.0455  0.7917  0.5711
 5129TIP3   OH236877   4.824   1.597   2.436  0.7780 -0.3627 -0.1635
 5129TIP3    H136878   4.752   1.592   2.373  0.0808 -1.6347  0.6929
 5129TIP3    H236879   4.866   1.680   2.417  0.3658 -0.5394 -2.0703
 5130TIP3   OH236880   5.410   1.259  15.912 -0.1357  0.3263  0.2641
 5130TIP3    H136881   5.426   1.179  15.960 -0.2806  0.2260  0.1458
 5130TIP3    H236882   5.485   1.315  15.933  0.5765 -0.2747 -0.5766
 5131TIP3   OH236883   5.566   0.276  12.116  0.0868  0.1077 -0.1978
 5131TIP3    H136884   5.503   0.218  12.073 -1.8525 -0.4970  3.0990
 5131TIP3    H236885   5.565   0.356  12.063 -2.2463 -0.5167 -1.2119
 5132TIP3   OH236886   1.596   4.452   4.138  0.6220 -0.1561 -0.4077
 5132TIP3    H136887   1.544   4.531   4.118  1.0390 -0.0818 -1.2492
 5132TIP3    H236888   1.611   4.456   4.232  0.0892  0.4369 -0.3427
 5133TIP3   OH236889   6.176   0.755  12.580 -0.5847  0.0488 -0.9492
 5133TIP3    H136890   6.165   0.785  12.671  1.1134  0.7836 -0.9491
 5133TIP3    H236891   6.209   0.665  12.589  1.9739  0.9183 -0.6968
 5134TIP3   OH236892   0.239   4.397  16.558  0.3905 -0.5259  0.1567
 5134TIP3    H136893   0.287   4.318  16.585 -0.7087 -0.7793  1.4910
 5134TIP3    H236894   0.151   4.366  16.538  0.5661  0.0293 -1.6416
 5135TIP3   OH236895   1.844   5.887   2.452 -0.2965  0.0168  0.4813
 5135TIP3    H136896   1.824   5.821   2.519 -0.2877 -1.3267 -0.7620
 5135TIP3    H236897   1.768   5.945   2.451 -0.2625  0.0888  1.6796
 5136TIP3   OH236898   6.371   4.046  16.900 -0.2681 -0.3092 -0.1416
 5136TIP3    H136899   6.457   4.028  16.862 -1.4153 -1.7235 -2.2876
 5136TIP3    H236900   6.334   4.113  16.844 -0.5876  0.2776  0.7587
 5137TIP3   OH236901   0.722   0.877   4.461  0.0138  1.1813 -0.6233
 5137TIP3    H136902   0.656   0.903   4.526 -0.4095  1.7187 -1.2484
 5137TIP3    H236903   0.773   0.956   4.446  2.7476  0.0997  1.9763
 5138TIP3   OH236904   0.190   0.197   2.765  0.0291  0.1084  0.2685
 5138TIP3    H136905   0.131   0.127   2.790 -0.7724 -0.2194 -2.3114
 5138TIP3    H236906   0.133   0.272   2.748  0.1989 -0.3496 -2.7398
 5139TIP3   OH236907   5.383   2.973   6.649  0.1632  0.1008  0.1951
 5139TIP3    H136908   5.430   2.889   6.654 -1.1587 -0.6535  0.4298
 5139TIP3    H236909   5.436   3.026   6.589  1.7232 -0.4156  1.0488
 5140TIP3   OH236910   0.775   1.119  14.457  0.5124 -0.0287  0.1156
 5140TIP3    H136911   0.701   1.062  14.438 -0.9805  2.0748 -0.7228
 5140TIP3    H236912   0.816   1.135  14.372 -0.4653  1.8903 -0.0393
 5141TIP3   OH236913   0.063   6.116   4.767  0.0844  0.0743 -0.2143
 5141TIP3    H136914   0.108   6.108   4.683 -0.0048  0.6751 -0.3238
 5141TIP3    H236915   0.114   6.062   4.827  1.0619  0.8975 -0.2938
 5142TIP3   OH236916   0.889   3.906   0.378 -0.1641 -0.0995 -0.0914
 5142TIP3    H136917   0.910   3.857   0.457 -0.0663 -0.9664 -0.6474
 5142TIP3    H236918   0.954   3.877   0.313 -0.4062  0.4070 -0.5719
 5143TIP3   OH236919   4.516   3.799  11.544  0.1399  0.5023 -0.2844
 5143TIP3    H136920   4.505   3.774  11.635 -1.4783  2.1441  0.0377
 5143TIP3    H236921   4.580   3.871  11.546  0.7758 -0.0357 -0.5823
 5144TIP3   OH236922   2.234   3.030  10.493 -0.1748  0.0781 -0.1640
 5144TIP3    H136923   2.219   2.963  10.560 -0.8509  0.0286 -0.3550
 5144TIP3    H236924   2.205   2.989  10.411  2.5416 -0.6071 -0.8619
 5145TIP3   OH236925   3.714   2.563   4.654 -0.3602  0.0832  0.1014
 5145TIP3    H136926   3.746   2.515   4.578 -1.7953  0.4904 -0.7961
 5145TIP3    H236927   3.634   2.518   4.679 -1.2274  1.4216 -0.1784
 5146TIP3   OH236928   0.279   4.589   0.851  0.5119  0.6394  0.0934
 5146TIP3    H136929   0.261   4.532   0.925  1.0453 -1.2165 -1.1335
 5146TIP3    H236930   0.212   4.656   0.855 -0.6466 -0.5427  1.1488
 5147TIP3   OH236931   1.305   2.794   1.063  0.3170  0.0331  0.1842
 5147TIP3    H136932   1.379   2.784   1.003 -0.5886  1.0220 -1.1597
 5147TIP3    H236933   1.253   2.715   1.050 -0.0323  0.3791 -0.5872
 5148TIP3   OH236934   2.641   3.689  16.258 -0.1274  0.2819 -0.0125
 5148TIP3    H136935   2.625   3.647  16.174 -2.0426  0.6395  0.1242
 5148TIP3    H236936   2.632   3.782  16.241 -0.0966  0.3810  0.4988
 5149TIP3   OH236937   5.575   3.316  13.951 -0.4259 -0.5073 -0.0182
 5149TIP3    H136938   5.508   3.352  14.009  1.4560  2.4491  0.5381
 5149TIP3    H236939   5.631   3.264  14.008  0.6151  1.2578  0.6640
 5150TIP3   OH236940   2.491   4.751  14.817 -0.1952 -0.2928 -0.2000
 5150TIP3    H136941   2.425   4.784  14.756  0.7983  1.8904 -0.2225
 5150TIP3    H236942   2.565   4.728  14.761 -0.9588 -3.0381 -0.2077
 5151TIP3   OH236943   0.211   5.141   0.378 -0.4604  0.1783 -0.3039
 5151TIP3    H136944   0.272   5.132   0.305  0.5234  1.1340  0.3716
 5151TIP3    H236945   0.175   5.229   0.369 -0.8298  0.0625  0.0068
 5152TIP3   OH236946   4.142   2.345   0.606 -0.0552 -0.0148  0.1705
 5152TIP3    H136947   4.226   2.332   0.562 -0.2412 -0.1351 -0.1533
 5152TIP3    H236948   4.079   2.356   0.535 -0.1967  0.8390  0.4168
 5153TIP3   OH236949   4.787   0.802  15.855  0.2643 -0.5416 -0.0575
 5153TIP3    H136950   4.829   0.882  15.823 -0.7249  0.6020  1.3640
 5153TIP3    H236951   4.731   0.831  15.927 -0.3958 -2.4793  0.2832
 5154TIP3   OH236952   4.001   0.275  13.972 -0.2037  0.1595  0.0706
 5154TIP3    H136953   4.048   0.346  14.015 -0.0271  0.0492  0.0584
 5154TIP3    H236954   3.921   0.265  14.024 -0.4436  0.6679 -0.1898
 5155TIP3   OH236955   4.369   0.314   0.091 -0.1012 -0.2809 -0.0720
 5155TIP3    H136956   4.381   0.270   0.175 -0.9701 -1.8749 -0.7574
 5155TIP3    H236957   4.301   0.379   0.108  1.2579  0.9508  0.9663
 5156TIP3   OH236958   0.127   3.956   2.971 -0.2289  0.2694  0.3204
 5156TIP3    H136959   0.087   4.025   2.919  3.6953  0.3771 -3.0208
 5156TIP3    H236960   0.084   3.876   2.941 -1.8923  0.8142  1.1546
 5157TIP3   OH236961   4.004   0.993  16.917  0.1648  0.0165 -0.5669
 5157TIP3    H136962   4.053   0.945  16.850 -2.1137 -0.5996 -1.8789
 5157TIP3    H236963   4.031   1.084  16.905 -0.1099 -0.0876 -2.3130
 5158TIP3   OH236964   0.223   5.849   4.410 -0.0758  0.0079  0.0411
 5158TIP3    H136965   0.294   5.785   4.417 -0.1785 -0.5640 -2.8474
 5158TIP3    H236966   0.149   5.807   4.453 -0.2582 -2.1464 -2.1542
 5159TIP3   OH236967   4.525   5.613  12.129  0.0341  0.2316 -0.0746
 5159TIP3    H136968   4.436   5.648  12.142 -0.7547 -1.7011  0.1023
 5159TIP3    H236969   4.519   5.523  12.159  2.3499  0.3331  0.8400
 5160TIP3   OH236970   5.565   1.138  16.967 -0.2453  0.0956 -0.2586
 5160TIP3    H136971   5.547   1.045  16.978  1.0774 -0.0031  1.2645
 5160TIP3    H236972   5.540   1.178  17.050  0.4559  0.9017 -0.4170
 5161TIP3   OH236973   4.440   2.249   4.623 -0.1155  0.2583 -0.1036
 5161TIP3    H136974   4.424   2.341   4.641  1.0264  0.4035  0.2515
 5161TIP3    H236975   4.369   2.223   4.564 -0.7898  1.1981  0.2755
 5162TIP3   OH236976   1.160   0.215  11.941 -0.1766  0.6203 -0.4579
 5162TIP3    H136977   1.127   0.302  11.963  1.2932  1.1606 -0.2257
 5162TIP3    H236978   1.095   0.155  11.975 -0.1268  1.5787  1.4523
 5163TIP3   OH236979   0.893   5.808   5.869  0.3166  0.0861  0.2793
 5163TIP3    H136980   0.872   5.880   5.810  0.9210  0.2855  0.2995
 5163TIP3    H236981   0.950   5.847   5.935 -0.1659 -0.1829  0.8740
 5164TIP3   OH236982   5.922   0.018  11.709 -0.7875 -0.4631 -0.0885
 5164TIP3    H136983   5.852  -0.045  11.690 -0.6271 -1.0096  1.0471
 5164TIP3    H236984   5.877   0.092  11.750 -0.7750 -0.5872  0.1542
 5165TIP3   OH236985   2.729   4.567   5.971 -0.3326 -0.1063  0.5985
 5165TIP3    H136986   2.737   4.633   6.041  1.5333  0.7395 -0.3362
 5165TIP3    H236987   2.682   4.494   6.012 -0.4812  0.9092  2.3287
 5166TIP3   OH236988   1.563   2.359   1.741 -0.0454  0.1977  0.1385
 5166TIP3    H136989   1.655   2.351   1.766 -0.6246 -1.1153  2.0838
 5166TIP3    H236990   1.563   2.349   1.646  1.6890 -1.4029  0.2596
 5167TIP3   OH236991   5.843   3.301  15.059 -0.4871  0.1524 -0.3031
 5167TIP3    H136992   5.854   3.366  14.990 -0.3203 -0.4015 -0.8085
 5167TIP3    H236993   5.816   3.222  15.013 -1.3853  0.0455  0.3719
 5168TIP3   OH236994   4.494   6.052  15.217  0.3427  0.5003 -0.4435
 5168TIP3    H136995   4.434   6.087  15.151 -0.3888  3.0591  1.3811
 5168TIP3    H236996   4.561   6.120  15.227  1.5121 -0.6885  0.1334
 5169TIP3   OH236997   6.479   0.818   0.277  0.2616  1.0535 -0.2232
 5169TIP3    H136998   6.417   0.763   0.324  1.1797  0.0326 -0.1689
 5169TIP3    H236999   6.513   0.879   0.344  0.2841  0.7546  0.0389
 5170TIP3   OH237000   1.460   2.036   4.026  0.0725 -0.1227 -0.0038
 5170TIP3    H137001   1.553   2.011   4.027 -0.0694 -0.6545  0.1105
 5170TIP3    H237002   1.439   2.047   3.934 -0.3426 -2.2894 -0.2151
 5171TIP3   OH237003   4.700   3.587   3.515 -0.2508 -0.2384 -0.0658
 5171TIP3    H137004   4.610   3.578   3.483 -0.2656  0.9815 -0.3963
 5171TIP3    H237005   4.744   3.640   3.450  0.5111 -0.1864  0.4802
 5172TIP3   OH237006   2.381   4.599  13.328  0.6247  0.5930 -0.2620
 5172TIP3    H137007   2.319   4.669  13.309 -1.0971 -0.1344  2.1799
 5172TIP3    H237008   2.447   4.606  13.258 -0.3579  3.5320 -1.0611
 5173TIP3   OH237009   6.501   1.292  14.748 -0.1805 -0.1226 -0.1141
 5173TIP3    H137010   6.490   1.216  14.691  0.2036  0.3246 -0.8012
 5173TIP3    H237011   6.511   1.255  14.835 -0.1178 -0.8584 -0.4236
 5174TIP3   OH237012   0.872   4.508  16.525 -0.4144  0.9491  0.0716
 5174TIP3    H137013   0.799   4.493  16.465 -0.2748  0.2432  0.0696
 5174TIP3    H237014   0.909   4.421  16.540  0.3313  1.2768  0.1938
 5175TIP3   OH237015   6.793   3.007   5.002  0.5005  0.2570 -0.0206
 5175TIP3    H137016   6.740   3.071   5.049  1.7293  0.1804  1.5210
 5175TIP3    H237017   6.836   3.058   4.933  1.1647  1.0278  0.9453
 5176TIP3   OH237018   4.656   1.273   5.657  0.1216  0.4552  0.5791
 5176TIP3    H137019   4.693   1.308   5.576 -0.6103  1.1801  0.5363
 5176TIP3    H237020   4.577   1.227   5.629 -0.7697  1.6909  0.9682
 5177TIP3   OH237021   1.921   4.738   1.614  0.7944  0.3631 -0.1330
 5177TIP3    H137022   1.843   4.734   1.668  0.3552 -1.1607 -0.8194
 5177TIP3    H237023   1.926   4.829   1.585 -1.1089  0.3645 -0.6006
 5178TIP3   OH237024   3.669   3.676  11.144  0.4495 -0.2618 -0.3629
 5178TIP3    H137025   3.606   3.747  11.132 -0.3403 -0.7978  0.4925
 5178TIP3    H237026   3.629   3.618  11.209  0.8235 -1.7847 -1.4156
 5179TIP3   OH237027   2.695   3.073   6.652 -0.8076 -0.0140 -0.6477
 5179TIP3    H137028   2.750   2.995   6.652 -1.0080 -0.1677  0.1032
 5179TIP3    H237029   2.683   3.094   6.560  0.9086  0.3152 -0.8409
 5180TIP3   OH237030   4.647   6.853   1.380 -0.2647  0.0513 -0.1555
 5180TIP3    H137031   4.565   6.823   1.417  0.6930 -2.1143  0.3365
 5180TIP3    H237032   4.700   6.774   1.371  0.7300  0.9191 -3.1833
 5181TIP3   OH237033   4.846   3.352  11.353 -0.3146  0.3347 -0.3363
 5181TIP3    H137034   4.845   3.261  11.382 -0.9989  0.3076 -0.4170
 5181TIP3    H237035   4.754   3.372  11.336  0.0263  0.4313 -2.2563
 5182TIP3   OH237036   0.243   1.481   0.039 -0.0279 -0.2134  0.8742
 5182TIP3    H137037   0.336   1.467   0.053 -0.0933 -1.4326  0.1725
 5182TIP3    H237038   0.235   1.503  -0.053 -0.4173  0.0345  0.9639
 5183TIP3   OH237039   4.946   1.341   4.975  0.2092  0.2716  0.0485
 5183TIP3    H137040   4.868   1.289   4.993 -0.2151  0.9998  0.3530
 5183TIP3    H237041   4.924   1.393   4.898  0.1497  0.9461  0.5061
 5184TIP3   OH237042   6.786   3.905   3.166  0.0565 -0.3023 -0.0156
 5184TIP3    H137043   6.731   3.827   3.159 -2.5098  1.4392 -0.7089
 5184TIP3    H237044   6.802   3.932   3.076  1.5978 -0.4036  0.1952
 5185TIP3   OH237045   2.658   4.666   1.976 -0.2621 -0.0771  0.7042
 5185TIP3    H137046   2.687   4.675   2.067  0.5406  1.1898  0.3592
 5185TIP3    H237047   2.734   4.693   1.924 -0.7899 -0.5417 -0.3400
 5186TIP3   OH237048   0.188   0.675   3.566 -0.3344  0.0276  0.3208
 5186TIP3    H137049   0.121   0.673   3.498 -0.8905  0.5428  0.8283
 5186TIP3    H237050   0.269   0.650   3.522 -0.8102 -0.3182 -0.3716
 5187TIP3   OH237051   3.812   0.378   3.420  0.7396 -0.0068  0.3292
 5187TIP3    H137052   3.737   0.324   3.397  0.6171  1.1356 -2.3651
 5187TIP3    H237053   3.884   0.344   3.366  1.0962  1.3647 -0.1267
 5188TIP3   OH237054   4.457   3.645  11.977 -0.0330 -0.1179 -0.1402
 5188TIP3    H137055   4.481   3.717  11.919  0.7007 -0.5583 -0.4018
 5188TIP3    H237056   4.513   3.572  11.950 -3.0362 -1.8992 -2.1573
 5189TIP3   OH237057   0.830   0.191   4.877 -0.5578 -0.4936 -0.5130
 5189TIP3    H137058   0.784   0.196   4.793 -0.5840 -0.3793 -0.4929
 5189TIP3    H237059   0.890   0.117   4.867 -0.1433 -0.1210 -0.8433
 5190TIP3   OH237060   0.796   0.367  15.681 -0.3601  0.2258  0.2366
 5190TIP3    H137061   0.816   0.275  15.662  2.1417  0.3524  1.8135
 5190TIP3    H237062   0.737   0.364  15.756  0.1421 -0.0929  0.6222
 5191TIP3   OH237063   4.660   4.685   1.477  0.0041 -0.4782 -0.1233
 5191TIP3    H137064   4.653   4.622   1.549  1.0183 -1.6084 -0.9675
 5191TIP3    H237065   4.577   4.676   1.429 -0.1291 -0.6821  0.1416
 5192TIP3   OH237066   1.839   0.803   4.947  0.4565  0.0507  0.6552
 5192TIP3    H137067   1.768   0.861   4.975  0.4093  0.1590  0.3128
 5192TIP3    H237068   1.864   0.835   4.861 -1.1481 -1.8159 -0.5854
 5193TIP3   OH237069   5.122   2.093   2.883 -0.8045 -0.6244 -0.1701
 5193TIP3    H137070   5.095   2.137   2.963 -2.3059  0.8829 -1.4179
 5193TIP3    H237071   5.214   2.117   2.872 -0.8981  0.0888  0.5321
 5194TIP3   OH237072   6.145   2.450  11.160 -0.0924  0.2031  0.2341
 5194TIP3    H137073   6.123   2.524  11.217 -0.4007  0.8602 -0.7121
 5194TIP3    H237074   6.215   2.484  11.104 -0.6131 -0.0459 -0.5713
 5195TIP3   OH237075   1.007   1.268  13.604  0.0572  0.0918 -0.0994
 5195TIP3    H137076   0.974   1.233  13.686  1.7298  1.7147  1.3658
 5195TIP3    H237077   1.057   1.196  13.565  1.8651  0.1709  1.9079
 5196TIP3   OH237078   4.050   5.481  14.018  0.1666 -0.1699 -0.6223
 5196TIP3    H137079   4.095   5.542  14.075 -0.6711 -0.5545  0.4805
 5196TIP3    H237080   4.049   5.398  14.066 -0.5117 -0.5139 -1.2032
 5197TIP3   OH237081   4.916   2.565  16.653 -0.2773  0.1669  0.0971
 5197TIP3    H137082   4.942   2.652  16.682 -0.4172  0.8042 -1.5502
 5197TIP3    H237083   4.821   2.563  16.663 -0.2579  0.1486  0.2743
 5198TIP3   OH237084   5.340   0.062  15.596 -0.3928 -0.0390  0.5147
 5198TIP3    H137085   5.314  -0.030  15.601  0.3269 -0.2438  0.6471
 5198TIP3    H237086   5.297   0.095  15.518 -0.3275 -0.6052  0.2317
 5199TIP3   OH237087   0.664   4.703  14.045  0.7708  0.5229  0.1713
 5199TIP3    H137088   0.655   4.608  14.050 -0.4700  0.5308 -1.1216
 5199TIP3    H237089   0.580   4.736  14.078  0.1653  1.0440 -1.7233
 5200TIP3   OH237090   2.946   0.041  12.931 -0.2255 -0.0959  0.4873
 5200TIP3    H137091   2.981   0.017  12.846  0.1929  0.4281  0.4994
 5200TIP3    H237092   2.922   0.134  12.922  0.2566  0.0969  1.0621
 5201TIP3   OH237093   1.931   6.189  12.506  0.4220  0.4625 -0.0806
 5201TIP3    H137094   1.974   6.243  12.573 -0.3937  0.6071  0.3400
 5201TIP3    H237095   1.998   6.126  12.480  0.9265  0.7512  0.4722
 5202TIP3   OH237096   5.449   4.233  13.430 -0.3567  0.1905 -0.1967
 5202TIP3    H137097   5.515   4.164  13.433 -1.3149 -0.9882 -2.6865
 5202TIP3    H237098   5.497   4.313  13.410  0.5105 -0.2456  0.1107
 5203TIP3   OH237099   3.462   6.838   5.903 -0.0104  0.4644 -0.6248
 5203TIP3    H137100   3.398   6.860   5.835 -0.5293  0.1126 -0.2547
 5203TIP3    H237101   3.445   6.901   5.973 -0.4536 -0.0916 -0.2182
 5204TIP3   OH237102   2.354   4.112  16.339 -0.1821 -0.0743 -0.0074
 5204TIP3    H137103   2.382   4.190  16.292 -0.0068  0.1779  0.5133
 5204TIP3    H237104   2.261   4.103  16.316 -0.7687  1.4570  1.4962
 5205TIP3   OH237105   1.783   1.489  15.154  0.1347  0.0093 -0.2356
 5205TIP3    H137106   1.722   1.561  15.136  0.6256  0.5077  0.0619
 5205TIP3    H237107   1.730   1.424  15.200 -0.9577 -0.9593 -2.6878
 5206TIP3   OH237108   5.218   5.935   5.284  0.3043  0.2765  0.2788
 5206TIP3    H137109   5.206   5.862   5.345 -1.2153  0.4639  0.2448
 5206TIP3    H237110   5.139   5.988   5.295  1.1000  1.5706 -0.1655
 5207TIP3   OH237111   4.898   0.753  16.143 -0.0180  0.3308  0.3897
 5207TIP3    H137112   4.817   0.800  16.121 -0.6240 -0.3715  1.0746
 5207TIP3    H237113   4.900   0.678  16.083  1.7305  1.9457 -1.7847
 5208TIP3   OH237114   1.697   2.293  16.454  0.1694  0.3232  0.1708
 5208TIP3    H137115   1.728   2.243  16.530 -3.0164  1.4958  2.4734
 5208TIP3    H237116   1.625   2.240  16.419  0.2263  0.8212 -0.7247
 5209TIP3   OH237117   1.922   0.028  12.735 -0.6449 -0.5809  0.0793
 5209TIP3    H137118   1.930   0.036  12.640  1.7214 -0.9543  0.1834
 5209TIP3    H237119   1.836   0.064  12.755 -0.5404  1.0295 -2.0374
 5210TIP3   OH237120   4.089   4.570  15.938 -0.0235  0.4042 -0.1775
 5210TIP3    H137121   4.036   4.646  15.963 -0.3326  0.5979 -1.3370
 5210TIP3    H237122   4.163   4.572  15.998  0.1040  1.7876 -0.3339
 5211TIP3   OH237123   0.678   0.931   5.449  0.1490 -0.5484  0.4527
 5211TIP3    H137124   0.612   0.864   5.428  0.6160 -0.5975 -0.9320
 5211TIP3    H237125   0.746   0.884   5.496  0.3213 -0.9780 -0.2272
 5212TIP3   OH237126   4.597   5.755  16.977  0.5827 -0.0608  0.0820
 5212TIP3    H137127   4.545   5.801  17.043 -2.3668  1.3043 -2.8693
 5212TIP3    H237128   4.651   5.823  16.938  0.4635 -0.2955 -0.5060
 5213TIP3   OH237129   6.335   0.800   2.828  0.2095  0.9545  0.3241
 5213TIP3    H137130   6.390   0.727   2.856 -1.0346 -0.2492 -0.2636
 5213TIP3    H237131   6.370   0.827   2.744  0.9803  1.3906  0.7729
 5214TIP3   OH237132   1.966   3.863   1.768 -0.0335 -0.0723 -0.2769
 5214TIP3    H137133   1.942   3.770   1.764 -0.1076 -0.2727  2.6182
 5214TIP3    H237134   1.885   3.908   1.791  0.0395  0.7317 -1.4909
 5215TIP3   OH237135   0.496   2.208   1.470 -0.3082  0.4491 -0.1102
 5215TIP3    H137136   0.458   2.121   1.454  0.6375  0.1825 -1.0031
 5215TIP3    H237137   0.432   2.269   1.433 -1.7525  0.2711  1.9149
 5216TIP3   OH237138   0.660   3.047  14.243  0.6082 -0.2008 -0.4354
 5216TIP3    H137139   0.736   3.102  14.225 -0.8484  1.9679 -0.2386
 5216TIP3    H237140   0.676   3.011  14.330  1.3061  0.3629 -0.3229
 5217TIP3   OH237141   1.296   3.631   5.196 -0.5856 -0.0523  0.5879
 5217TIP3    H137142   1.282   3.725   5.185  1.9484  0.4421  0.8277
 5217TIP3    H237143   1.209   3.594   5.206 -1.7060  2.1516 -0.3688
 5218TIP3   OH237144   3.394   6.357  14.001 -0.7794 -0.2637 -0.0754
 5218TIP3    H137145   3.481   6.365  13.962 -0.7503  0.2310  0.0906
 5218TIP3    H237146   3.375   6.263  13.997 -0.1067 -0.4178  0.1699
 5219TIP3   OH237147   2.733   1.604   4.937  0.0927 -0.4892  0.3663
 5219TIP3    H137148   2.811   1.642   4.977  0.5189 -0.6667 -0.2858
 5219TIP3    H237149   2.670   1.677   4.932 -0.0605 -0.5289  1.5823
 5220TIP3   OH237150   1.676   5.017  12.381  0.1158  0.1149  0.6093
 5220TIP3    H137151   1.637   4.992  12.297  0.4981 -0.8410  0.7027
 5220TIP3    H237152   1.699   5.109  12.370  0.1604  0.0038 -0.3400
 5221TIP3   OH237153   4.119   2.584  17.022  0.1262  0.0159 -0.1091
 5221TIP3    H137154   4.043   2.627  17.060  0.1650  0.4957 -0.5557
 5221TIP3    H237155   4.193   2.617  17.073  0.0882 -0.0264 -0.0271
 5222TIP3   OH237156   2.951   6.690  16.848 -0.2663  0.4709 -0.7581
 5222TIP3    H137157   2.929   6.681  16.755 -0.3573  0.8369 -0.7726
 5222TIP3    H237158   2.868   6.709  16.891 -0.1761  0.6109 -0.6448
 5223TIP3   OH237159   0.367   2.666  17.065  0.2000 -0.1316 -0.0026
 5223TIP3    H137160   0.388   2.608  17.138 -0.0381  0.4273  0.5164
 5223TIP3    H237161   0.410   2.749  17.087  1.8496 -0.5386 -1.4866
 5224TIP3   OH237162   6.113   6.453  11.730 -0.5126  0.5676 -0.0687
 5224TIP3    H137163   6.207   6.474  11.734 -0.5822  0.8673  0.0291
 5224TIP3    H237164   6.110   6.358  11.722 -0.2261  0.3474  1.9038
 5225TIP3   OH237165   0.710   1.712  14.311  0.3519  0.1779 -0.9760
 5225TIP3    H137166   0.647   1.709  14.383 -0.1298  1.0436 -1.3539
 5225TIP3    H237167   0.672   1.653  14.244  1.2369 -1.3304 -0.2040
 5226TIP3   OH237168   2.041   4.406   2.130  0.3379  0.0057 -0.1468
 5226TIP3    H137169   2.010   4.398   2.040  1.6248  0.3752 -0.6493
 5226TIP3    H237170   2.136   4.413   2.122  0.4112  0.9090  1.1896
 5227TIP3   OH237171   2.196   5.172  15.919 -0.2263 -0.0507 -0.9761
 5227TIP3    H137172   2.118   5.181  15.865 -1.2390  2.0330  0.7122
 5227TIP3    H237173   2.166   5.127  15.998  0.4800  0.0163 -0.6641
 5228TIP3   OH237174   4.664   2.123  11.794  0.1572  0.3662 -0.2928
 5228TIP3    H137175   4.740   2.118  11.852 -0.1013  0.8861  0.0984
 5228TIP3    H237176   4.695   2.174  11.719  0.7180 -0.9532 -0.9952
 5229TIP3   OH237177   6.344   3.648   1.004 -0.3361  0.3367  0.1018
 5229TIP3    H137178   6.413   3.614   1.061 -0.0828  1.6783  0.6416
 5229TIP3    H237179   6.262   3.621   1.046 -0.1404  0.0621  0.3050
 5230TIP3   OH237180   6.522   2.043  11.575 -0.0073 -0.0601  0.1572
 5230TIP3    H137181   6.585   2.030  11.646  0.3353  0.0764 -0.1140
 5230TIP3    H237182   6.446   1.990  11.598  0.7300 -1.2796 -0.1565
 5231TIP3   OH237183   2.526   2.059   5.614  0.5853  0.3039  0.0548
 5231TIP3    H137184   2.460   2.036   5.679 -0.8081  2.3244 -0.5760
 5231TIP3    H237185   2.483   2.044   5.530  1.2603  0.7734 -0.3797
 5232TIP3   OH237186   3.205   4.624  15.316  0.2656 -1.3532 -0.5137
 5232TIP3    H137187   3.150   4.703  15.322 -0.5249 -1.9648  2.3681
 5232TIP3    H237188   3.174   4.579  15.238 -2.0544 -0.6807 -0.0763
 5233TIP3   OH237189   6.258   0.315   1.696  0.0134 -0.2210 -0.4864
 5233TIP3    H137190   6.193   0.323   1.765 -1.5006  0.9743 -1.9582
 5233TIP3    H237191   6.282   0.405   1.674  2.4699 -0.6208  0.2190
 5234TIP3   OH237192   4.055   4.035   1.124 -0.0153 -0.0050 -0.0489
 5234TIP3    H137193   4.013   3.994   1.048 -1.2937  3.0552 -1.1954
 5234TIP3    H237194   4.045   4.129   1.107 -0.2674  0.8193  3.8913
 5235TIP3   OH237195   2.386   6.379   5.699 -0.1778  0.0399  0.3245
 5235TIP3    H137196   2.411   6.342   5.783 -1.0342  0.4264  0.7558
 5235TIP3    H237197   2.293   6.400   5.708 -0.0092  1.1374 -0.3265
 5236TIP3   OH237198   0.079   4.045   4.576 -0.3405 -0.4603  0.3598
 5236TIP3    H137199   0.101   4.031   4.668 -2.1999 -1.5390  0.7021
 5236TIP3    H237200   0.027   4.126   4.576 -0.7589 -0.7257  0.3452
 5237TIP3   OH237201   6.624   5.986   5.119 -0.3341  0.6823  0.2500
 5237TIP3    H137202   6.646   5.934   5.041 -0.6887  1.1816 -0.1937
 5237TIP3    H237203   6.628   6.077   5.088 -1.4458  0.8523  0.5639
 5238TIP3   OH237204   6.601   3.489   1.192  0.7979  0.1375  0.2455
 5238TIP3    H137205   6.658   3.550   1.238  1.6905  0.0327 -0.6788
 5238TIP3    H237206   6.632   3.402   1.218  2.5019  0.0433 -1.8628
 5239TIP3   OH237207   0.137   6.535  14.348  0.6858  0.1989  0.2829
 5239TIP3    H137208   0.088   6.524  14.430 -0.6109  1.7008 -0.2229
 5239TIP3    H237209   0.140   6.630  14.336 -2.4454  0.0774 -3.2446
 5240TIP3   OH237210   4.084   2.991   6.299  0.6563  0.0370 -0.6208
 5240TIP3    H137211   4.178   2.997   6.279  0.7916  0.4619  0.1208
 5240TIP3    H237212   4.064   3.071   6.346  0.1879 -0.6217  0.3270
 5241TIP3   OH237213   6.815   6.277   5.033 -0.5089  0.2871  0.1773
 5241TIP3    H137214   6.836   6.270   5.126 -1.8746  1.8194  0.6440
 5241TIP3    H237215   6.774   6.193   5.012  0.9835 -0.5963  0.5781
 5242TIP3   OH237216   4.669   5.751  11.940  0.2032 -0.8112  0.3265
 5242TIP3    H137217   4.607   5.707  11.999 -2.0004  1.3794 -0.1790
 5242TIP3    H237218   4.713   5.815  11.996 -2.0169  1.3939 -0.2477
 5243TIP3   OH237219   5.931   1.384   5.558 -0.9028 -0.3695 -0.2708
 5243TIP3    H137220   5.948   1.476   5.539 -1.1247 -0.1077  0.7856
 5243TIP3    H237221   5.865   1.384   5.627 -3.4051 -1.3485 -2.4796
 5244TIP3   OH237222   4.639   2.335  12.077  0.5931  0.0640 -0.0927
 5244TIP3    H137223   4.634   2.376  11.990 -0.4788  1.4495  0.5805
 5244TIP3    H237224   4.573   2.266  12.073 -0.7814  1.3114  0.1745
 5245TIP3   OH237225   5.527   0.051   2.040 -0.1520 -0.2208  0.6736
 5245TIP3    H137226   5.480   0.124   2.080  3.8255  2.4045  1.0716
 5245TIP3    H237227   5.567   0.004   2.113  1.4130  0.3545  0.2350
 5246TIP3   OH237228   4.184   1.159   2.696  0.0778  0.2889 -0.0691
 5246TIP3    H137229   4.153   1.233   2.643 -1.8000 -0.9102 -0.7644
 5246TIP3    H237230   4.218   1.096   2.632 -1.2642 -0.7394  0.1837
 5247TIP3   OH237231   0.804   6.699  14.658  0.6450  0.6571  0.3872
 5247TIP3    H137232   0.711   6.715  14.643  0.6395 -0.4962 -0.9494
 5247TIP3    H237233   0.825   6.753  14.735 -0.9235  1.5539  0.2296
 5248TIP3   OH237234   0.643   4.906  10.458 -0.0023 -0.5386  0.4689
 5248TIP3    H137235   0.569   4.908  10.397 -0.1175  1.1544  0.6215
 5248TIP3    H237236   0.612   4.852  10.531 -1.0335 -0.0262  0.4376
 5249TIP3   OH237237   5.208   1.172  15.740  0.2963 -0.3269  0.3054
 5249TIP3    H137238   5.226   1.078  15.736 -0.3315 -0.4346 -0.1845
 5249TIP3    H237239   5.259   1.203  15.814  2.2917 -0.6471 -0.8485
 5250TIP3   OH237240   3.332   1.993  11.784 -0.2671 -0.0466  0.0820
 5250TIP3    H137241   3.395   1.928  11.754  0.3672  1.1890 -1.4382
 5250TIP3    H237242   3.247   1.955  11.765  0.0418 -1.0834  0.7084
 5251TIP3   OH237243   5.388   6.200  14.019  0.0829  0.2084 -0.1492
 5251TIP3    H137244   5.384   6.167  14.108  2.4351 -1.6156 -0.6045
 5251TIP3    H237245   5.297   6.214  13.994 -0.7023 -0.5221  2.0726
 5252TIP3   OH237246   3.900   2.622  12.766 -0.1939 -1.3066 -0.0767
 5252TIP3    H137247   3.813   2.631  12.807 -1.5903 -0.8782 -2.8753
 5252TIP3    H237248   3.899   2.684  12.693  3.3398  0.2561  1.0007
 5253TIP3   OH237249   6.168   0.966  13.169 -0.0408 -0.1632  1.0697
 5253TIP3    H137250   6.192   1.040  13.224  0.8663 -0.9290  1.7333
 5253TIP3    H237251   6.164   1.002  13.080  1.9678  0.3678  1.1534
 5254TIP3   OH237252   2.423   5.812  16.110 -0.2424  0.3760  0.1493
 5254TIP3    H137253   2.390   5.889  16.155 -1.2266 -1.1688  2.2406
 5254TIP3    H237254   2.345   5.764  16.083  0.3436 -0.2227 -0.5293
 5255TIP3   OH237255   6.556   2.972  12.855  0.0351 -0.0509 -0.2807
 5255TIP3    H137256   6.617   3.044  12.838  1.0556 -1.0364 -0.9570
 5255TIP3    H237257   6.571   2.948  12.946  2.3428 -1.7457 -1.0308
 5256TIP3   OH237258   2.683   3.449  12.763 -0.6599  0.2644  0.4103
 5256TIP3    H137259   2.698   3.410  12.677 -0.5931  4.9398 -2.0309
 5256TIP3    H237260   2.759   3.423  12.815  0.3830 -1.0141 -1.6188
 5257TIP3   OH237261   6.717   5.723   3.059 -0.2732 -0.4719 -0.3197
 5257TIP3    H137262   6.691   5.635   3.032 -0.3280 -0.1253 -1.4326
 5257TIP3    H237263   6.812   5.716   3.074 -0.3355 -0.8002 -0.0862
 5258TIP3   OH237264   0.777   5.775   2.767 -0.3069  0.2225 -0.9372
 5258TIP3    H137265   0.854   5.725   2.793 -0.0149  2.0523  2.2632
 5258TIP3    H237266   0.702   5.721   2.793 -0.0638 -0.0552 -0.8216
 5259TIP3   OH237267   2.890   0.800  10.658  0.6948 -0.5976 -0.2505
 5259TIP3    H137268   2.867   0.709  10.677  1.7644 -1.0427 -0.9600
 5259TIP3    H237269   2.880   0.846  10.741  0.4091 -1.4255  0.1794
 5260TIP3   OH237270   6.267   6.797  13.912  0.1730  0.1758  0.0269
 5260TIP3    H137271   6.292   6.752  13.832 -1.6340  0.4798 -0.7555
 5260TIP3    H237272   6.206   6.738  13.956  0.3957  0.4254  0.6979
 5261TIP3   OH237273   1.303   1.606   1.680  0.3292  0.6682 -0.4669
 5261TIP3    H137274   1.375   1.667   1.664 -0.5307  1.4318 -1.5817
 5261TIP3    H237275   1.325   1.564   1.763  2.2636  0.5710 -0.9779
 5262TIP3   OH237276   0.659   2.696   4.874 -0.1550  0.0571  0.0126
 5262TIP3    H137277   0.694   2.770   4.823 -0.5728 -0.3821 -0.9219
 5262TIP3    H237278   0.714   2.622   4.848 -0.7891 -0.3070 -0.3008
 5263TIP3   OH237279   4.129   3.595   5.976  0.2427 -0.4171  0.2093
 5263TIP3    H137280   4.206   3.614   5.922 -0.3078  1.3473 -0.0395
 5263TIP3    H237281   4.148   3.511   6.016  1.6413 -0.7299 -1.0109
 5264TIP3   OH237282   0.750   5.964  16.682 -0.8112 -0.1870 -0.0915
 5264TIP3    H137283   0.709   6.019  16.748 -0.0817 -0.3284  0.4869
 5264TIP3    H237284   0.720   6.001  16.598 -1.8422 -0.0894  0.3025
 5265TIP3   OH237285   1.348   6.625   2.597 -0.3750 -0.0448 -0.0196
 5265TIP3    H137286   1.373   6.534   2.607 -1.8442 -0.2674  2.4522
 5265TIP3    H237287   1.426   6.675   2.623  0.1682 -0.5825 -0.5856
 5266TIP3   OH237288   3.585   1.252   5.267  0.3266 -0.2859  0.1593
 5266TIP3    H137289   3.611   1.170   5.307 -0.1614  0.6577  2.5636
 5266TIP3    H237290   3.489   1.249   5.263  0.2579  0.4292  0.9439
 5267TIP3   OH237291   4.842   6.826  11.813  0.0142  0.1325 -0.7254
 5267TIP3    H137292   4.780   6.762  11.779  1.7205 -1.8585 -0.3121
 5267TIP3    H237293   4.800   6.861  11.891 -1.3400  0.2070 -1.4599
 5268TIP3   OH237294   3.963   6.269  15.603  0.0573 -0.3774  0.5406
 5268TIP3    H137295   3.963   6.246  15.696  1.3910  2.4449  1.3596
 5268TIP3    H237296   3.908   6.347  15.597  0.4750 -0.1584 -0.9045
 5269TIP3   OH237297   3.564   5.632  14.631  0.0957 -0.3935  0.2991
 5269TIP3    H137298   3.639   5.584  14.666 -0.2687  1.2567  3.7778
 5269TIP3    H237299   3.493   5.617  14.694 -1.0212  1.8659 -0.2905
 5270TIP3   OH237300   3.968   2.632   0.260 -0.3344  0.6099 -0.7102
 5270TIP3    H137301   3.933   2.657   0.175  1.5213  1.1211 -1.3629
 5270TIP3    H237302   4.051   2.679   0.267  0.6702 -1.2256  0.3801
 5271TIP3   OH237303   6.692   3.870   4.656  0.1887  0.2986  0.3477
 5271TIP3    H137304   6.779   3.907   4.672  0.4363 -0.9504  2.0715
 5271TIP3    H237305   6.703   3.776   4.669 -1.3305  0.0722  0.1147
 5272TIP3   OH237306   6.721   0.789  16.309  0.2632  0.5461 -0.0911
 5272TIP3    H137307   6.784   0.717  16.299 -0.3589  0.0284 -0.2754
 5272TIP3    H237308   6.643   0.760  16.263 -0.3390  0.9176  0.6752
 5273TIP3   OH237309   6.452   0.670   3.422 -0.2234 -0.7893 -0.0433
 5273TIP3    H137310   6.524   0.731   3.439  0.9521 -1.2987 -2.7358
 5273TIP3    H237311   6.385   0.724   3.380 -1.2106 -0.4687  1.8179
 5274TIP3   OH237312   4.808   2.178   4.553 -0.7897 -0.4583 -0.2029
 5274TIP3    H137313   4.823   2.213   4.641 -1.7332  0.1281 -0.2586
 5274TIP3    H237314   4.770   2.092   4.568 -1.1012 -0.2922 -0.0351
 5275TIP3   OH237315   0.817   2.147   5.598  0.3100  0.2610 -0.0468
 5275TIP3    H137316   0.911   2.165   5.607  0.1487  0.6046  1.0269
 5275TIP3    H237317   0.814   2.073   5.538  1.2374  0.6358 -0.5848
 5276TIP3   OH237318   2.955   3.297  11.872 -0.4539  0.2555 -0.5329
 5276TIP3    H137319   3.011   3.224  11.899 -0.4138  0.0110 -1.2494
 5276TIP3    H237320   3.003   3.375  11.898 -0.2325  0.0337 -0.2670
 5277TIP3   OH237321   0.654   3.298   4.428  0.1937  0.0105 -0.1598
 5277TIP3    H137322   0.631   3.391   4.429  1.0908  0.2347 -0.0885
 5277TIP3    H237323   0.581   3.256   4.382 -0.5773  0.6431  0.4686
 5278TIP3   OH237324   2.396   5.814   2.598 -0.4160 -0.0634  0.2207
 5278TIP3    H137325   2.428   5.843   2.512 -0.4696 -0.8836 -0.0909
 5278TIP3    H237326   2.329   5.748   2.577 -0.3626 -0.3337  0.8931
 5279TIP3   OH237327   4.887   4.046   5.132  0.2266  0.3167  0.0829
 5279TIP3    H137328   4.841   4.111   5.080 -0.6363 -1.4616 -1.4831
 5279TIP3    H237329   4.827   3.972   5.137  1.6788 -0.8773  0.6666
 5280TIP3   OH237330   4.722   1.134  12.635  0.3958  0.2813 -0.6713
 5280TIP3    H137331   4.758   1.074  12.570 -0.9066 -0.3597 -0.8158
 5280TIP3    H237332   4.629   1.139  12.615  0.3462  1.7782 -0.1905
 5281TIP3   OH237333   2.529   4.698  15.753  0.1375  0.3265 -0.8079
 5281TIP3    H137334   2.434   4.694  15.744 -0.1365  0.4566  1.4395
 5281TIP3    H237335   2.543   4.751  15.832  2.0287 -0.4499 -0.5779
 5282TIP3   OH237336   4.127   0.776  13.708  0.0321 -0.0982  0.6241
 5282TIP3    H137337   4.077   0.760  13.788 -0.1773  0.7069  0.6570
 5282TIP3    H237338   4.195   0.838  13.733  0.3740 -0.3465  0.3239
 5283TIP3   OH237339   0.896   4.422  11.162  0.3973 -0.2921  0.2979
 5283TIP3    H137340   0.975   4.370  11.156  0.7028  0.2281 -0.3087
 5283TIP3    H237341   0.860   4.423  11.074 -0.3013 -0.5396  0.5684
 5284TIP3   OH237342   6.237   1.856  16.520 -0.0734 -0.3085 -0.3161
 5284TIP3    H137343   6.292   1.922  16.563  0.5237 -0.7587 -0.3892
 5284TIP3    H237344   6.246   1.778  16.574 -1.9261  0.0491  0.6081
 5285TIP3   OH237345   2.245   0.746   3.522  1.0131 -0.3089 -0.2718
 5285TIP3    H137346   2.224   0.683   3.590  0.7938  1.1417  1.0619
 5285TIP3    H237347   2.207   0.710   3.442 -1.2130 -0.7191  0.8987
 5286TIP3   OH237348   2.023   6.435   0.809 -0.1932 -0.1611  0.2383
 5286TIP3    H137349   2.003   6.347   0.839 -0.7235 -0.5832 -1.2644
 5286TIP3    H237350   1.956   6.490   0.850 -1.5854 -0.8834 -0.9535
 5287TIP3   OH237351   1.775   3.820  16.308  0.7464 -0.1003 -0.0660
 5287TIP3    H137352   1.825   3.859  16.236 -0.7745 -0.5387 -1.4133
 5287TIP3    H237353   1.714   3.888  16.335 -0.1830 -0.6656 -0.7002
 5288TIP3   OH237354   0.464   2.930  16.774 -0.2994  0.8076 -0.7227
 5288TIP3    H137355   0.429   3.013  16.742 -2.1533  0.3372 -0.0493
 5288TIP3    H237356   0.448   2.867  16.703  0.4369  0.8544 -0.9414
 5289TIP3   OH237357   3.031   5.555   3.856 -0.2583 -0.2648 -0.3562
 5289TIP3    H137358   3.072   5.496   3.793  0.5068 -4.3876  3.4911
 5289TIP3    H237359   3.091   5.630   3.861 -0.0820 -0.0187 -3.8933
 5290TIP3   OH237360   1.981   5.397  13.102  0.3911 -0.5709 -0.4163
 5290TIP3    H137361   2.027   5.467  13.056 -0.8820  0.3789 -0.3054
 5290TIP3    H237362   1.888   5.420  13.093  0.0672 -0.3720  2.5445
 5291TIP3   OH237363   1.402   2.911  14.515 -0.3192 -0.1489  0.2163
 5291TIP3    H137364   1.476   2.944  14.565 -0.1282 -0.8842  0.4283
 5291TIP3    H237365   1.341   2.985  14.510 -0.2478  0.0044  1.3420
 5292TIP3   OH237366   4.925   4.034  13.241 -0.5800 -0.4629 -0.0160
 5292TIP3    H137367   4.976   4.113  13.223 -1.4114 -0.2022 -1.4174
 5292TIP3    H237368   4.975   3.963  13.200 -0.3637 -0.4971  0.3109
 5293TIP3   OH237369   4.959   1.758   0.497  0.0230 -0.0801  0.4019
 5293TIP3    H137370   4.876   1.780   0.454  0.7024  1.9963  0.0346
 5293TIP3    H237371   4.998   1.692   0.439 -0.3737  0.5855 -0.6692
 5294TIP3   OH237372   4.513   3.665   2.054  0.4981  0.4475  0.5947
 5294TIP3    H137373   4.477   3.585   2.017  0.1975  0.6968  0.3425
 5294TIP3    H237374   4.524   3.646   2.147 -1.5039  0.7847  0.9464
 5295TIP3   OH237375   5.569   0.387   5.912  0.1507 -0.0445 -0.5018
 5295TIP3    H137376   5.527   0.371   5.827  0.3410  0.9048 -0.7861
 5295TIP3    H237377   5.649   0.334   5.909  0.1410 -0.0438 -0.9060
 5296TIP3   OH237378   3.359   2.831  10.949  0.2927 -0.2009  0.0572
 5296TIP3    H137379   3.290   2.802  10.889  0.5319  0.3458 -0.5015
 5296TIP3    H237380   3.409   2.895  10.898 -0.5116  1.5565  1.3901
 5297TIP3   OH237381   1.108   0.481  12.082 -0.1543 -0.2781  0.2969
 5297TIP3    H137382   1.018   0.465  12.112 -0.3414  2.5547  1.5220
 5297TIP3    H237383   1.163   0.452  12.155 -0.0985 -1.0243 -0.0284
 5298TIP3   OH237384   4.003   4.683   4.690 -0.3433 -0.0732 -0.6145
 5298TIP3    H137385   3.946   4.699   4.765 -0.5132  1.4531 -1.0320
 5298TIP3    H237386   4.089   4.664   4.729 -0.4912  0.4490 -0.0141
 5299TIP3   OH237387   3.344   1.474   0.368  0.1485  0.2724  0.2328
 5299TIP3    H137388   3.429   1.448   0.402  0.3759  0.7465  0.0305
 5299TIP3    H237389   3.346   1.570   0.367 -0.5084  0.2963  0.5364
 5300TIP3   OH237390   1.912   0.485  16.472 -0.3635  0.6375  0.1740
 5300TIP3    H137391   1.820   0.460  16.477 -0.0543 -0.5028  0.5286
 5300TIP3    H237392   1.915   0.555  16.407 -1.3024 -0.1542 -0.7527
 5301TIP3   OH237393   4.112   5.086   5.701 -0.1154  0.0397 -0.5186
 5301TIP3    H137394   4.059   5.065   5.624  0.2474  2.2151 -1.4333
 5301TIP3    H237395   4.050   5.092   5.773 -0.4452 -2.1784 -0.5220
 5302TIP3   OH237396   1.942   2.993  12.464 -0.5861  0.1503  0.5350
 5302TIP3    H137397   1.950   3.021  12.556 -0.2047 -1.5064  1.0367
 5302TIP3    H237398   1.906   2.905  12.469 -2.1896  0.6633 -1.0083
 5303TIP3   OH237399   3.882   1.479  16.949 -0.5109  0.2985 -0.1490
 5303TIP3    H137400   3.817   1.471  17.018 -0.9966  2.8204 -0.2173
 5303TIP3    H237401   3.836   1.453  16.869 -0.4451 -1.0026  0.2196
 5304TIP3   OH237402   6.079   5.842   2.362 -0.2283 -0.8241 -0.4923
 5304TIP3    H137403   6.027   5.796   2.295  0.3769 -0.9554 -0.8784
 5304TIP3    H237404   6.092   5.930   2.326 -1.1440 -0.4166  0.1196
 5305TIP3   OH237405   1.268   2.359   3.382 -0.0246 -0.1610  0.2046
 5305TIP3    H137406   1.240   2.428   3.441  2.9489  1.8230 -0.4598
 5305TIP3    H237407   1.328   2.306   3.434  1.2727  0.5762 -0.4916
 5306TIP3   OH237408   1.895   2.277   0.589  0.2070 -0.0540  0.0007
 5306TIP3    H137409   1.963   2.319   0.537  1.1538  0.8120  1.8526
 5306TIP3    H237410   1.859   2.347   0.643 -1.3609 -0.7468 -0.0710
 5307TIP3   OH237411   2.897   0.084  12.210 -0.1356  0.7727 -0.2421
 5307TIP3    H137412   2.853   0.003  12.236 -1.1535  1.3777 -0.0325
 5307TIP3    H237413   2.963   0.056  12.147 -1.1968 -0.1104 -1.0181
 5308TIP3   OH237414   6.397   0.165  16.357  0.0771 -0.2432 -0.2028
 5308TIP3    H137415   6.427   0.170  16.448  0.8391 -1.2721 -0.3893
 5308TIP3    H237416   6.396   0.256  16.328 -1.5224  0.2665  1.2499
 5309TIP3   OH237417   5.562   2.200  15.313 -0.1171 -0.3134  0.1785
 5309TIP3    H137418   5.506   2.266  15.274  0.5520 -0.1032 -0.4343
 5309TIP3    H237419   5.603   2.156  15.239  0.6788 -0.3310  0.6210
 5310TIP3   OH237420   6.460   2.903   1.578  0.4822 -0.4161  0.3456
 5310TIP3    H137421   6.487   2.817   1.544 -0.9082 -0.9268  0.4622
 5310TIP3    H237422   6.506   2.911   1.661  0.0550 -1.4024  0.6961
 5311TIP3   OH237423   4.362   5.321   5.290 -0.2624  0.5739 -0.9969
 5311TIP3    H137424   4.427   5.375   5.244 -0.3918 -0.5112 -2.5084
 5311TIP3    H237425   4.339   5.373   5.367  1.0540  1.7950 -1.3771
 5312TIP3   OH237426   6.821   2.155   0.550  0.6786  0.5578  0.0875
 5312TIP3    H137427   6.786   2.068   0.533 -0.1946  0.9763 -0.3121
 5312TIP3    H237428   6.795   2.173   0.641 -1.9850  1.6709 -0.8090
 5313TIP3   OH237429   5.511   3.687   5.906  0.5305 -0.4169  0.1038
 5313TIP3    H137430   5.448   3.748   5.945 -0.0349 -0.3030 -0.9519
 5313TIP3    H237431   5.579   3.677   5.973 -0.0719  0.2794  0.8462
 5314TIP3   OH237432   6.761   5.096   3.605 -0.0866 -0.4386 -0.4893
 5314TIP3    H137433   6.814   5.175   3.614  1.1881 -1.2449 -0.6478
 5314TIP3    H237434   6.750   5.065   3.694 -0.4610 -0.1719 -0.4399
 5315TIP3   OH237435   6.686   3.655   6.397  0.0323 -0.2018  0.0791
 5315TIP3    H137436   6.647   3.621   6.317  0.2278  2.2126 -1.1157
 5315TIP3    H237437   6.622   3.718   6.430  1.4351  1.3589 -0.0932
 5316TIP3   OH237438   0.231   4.689   1.906  0.3839 -0.1680  0.2692
 5316TIP3    H137439   0.233   4.603   1.864  0.1068  1.0597 -2.4983
 5316TIP3    H237440   0.144   4.723   1.888  1.1240  1.4726 -0.4676
 5317TIP3   OH237441   1.421   2.606  12.058 -0.1898  0.1078  0.2926
 5317TIP3    H137442   1.335   2.592  12.019 -0.2528  0.4485  0.3068
 5317TIP3    H237443   1.424   2.547  12.133  1.2937 -3.3581 -2.1945
 5318TIP3   OH237444   5.686   0.178   1.819 -0.3343  0.5504 -0.0614
 5318TIP3    H137445   5.621   0.129   1.869 -0.2654 -0.5435 -1.0017
 5318TIP3    H237446   5.726   0.113   1.761  0.6267  1.4824 -0.4829
 5319TIP3   OH237447   2.472   0.821   4.220  0.2026  0.0493 -0.4230
 5319TIP3    H137448   2.529   0.799   4.294 -0.5973  0.3429  0.2993
 5319TIP3    H237449   2.529   0.817   4.143  1.1308  0.0729  0.2507
 5320TIP3   OH237450   2.389   5.566   0.009 -0.7283 -0.0467 -0.0975
 5320TIP3    H137451   2.299   5.598   0.016 -0.4146  0.9325 -0.4752
 5320TIP3    H237452   2.420   5.599  -0.075 -0.0910 -0.5884 -0.0822
 5321TIP3   OH237453   4.302   3.130   5.349 -0.2175  1.0141 -0.8401
 5321TIP3    H137454   4.266   3.213   5.318  0.6856  0.3635 -3.8705
 5321TIP3    H237455   4.337   3.151   5.436 -0.7975  3.5680 -1.1401
 5322TIP3   OH237456   3.808   3.502  13.316  0.4718 -0.1103 -0.1316
 5322TIP3    H137457   3.797   3.497  13.411 -0.3271  1.0368 -0.1370
 5322TIP3    H237458   3.899   3.476  13.300  0.2846 -1.4002  0.8292
 5323TIP3   OH237459   0.304   6.161  12.771 -0.6708  0.0830  0.1777
 5323TIP3    H137460   0.224   6.147  12.821 -1.6158 -0.1295 -1.3307
 5323TIP3    H237461   0.321   6.076  12.729  1.4048 -0.4460  1.8749
 5324TIP3   OH237462   2.669   6.820   0.145 -0.0212 -0.1882 -0.3981
 5324TIP3    H137463   2.728   6.850   0.214 -2.2051  0.3733  1.3190
 5324TIP3    H237464   2.654   6.898   0.091 -0.3934  0.0679  0.0735
 5325TIP3   OH237465   1.733   6.463  12.191 -0.0521 -0.9128  0.3833
 5325TIP3    H137466   1.641   6.444  12.213 -0.1515 -1.5768 -0.5562
 5325TIP3    H237467   1.731   6.549  12.149 -0.2892 -1.0605  0.0895
 5326TIP3   OH237468   5.627   4.351   5.033 -0.3148  0.0082  0.0103
 5326TIP3    H137469   5.541   4.308   5.038 -0.7724  0.8867 -0.1178
 5326TIP3    H237470   5.667   4.315   4.954 -0.9960  0.3386 -0.4970
 5327TIP3   OH237471   5.877   0.750   2.230  0.4041  0.0823 -0.3334
 5327TIP3    H137472   5.935   0.826   2.221  0.7885 -0.2884 -1.1163
 5327TIP3    H237473   5.794   0.786   2.260  1.1977  0.5623  1.4197
 5328TIP3   OH237474   5.953   2.764  14.234  0.2133  0.1645 -0.4356
 5328TIP3    H137475   5.938   2.701  14.305 -0.9440 -0.1203 -0.9093
 5328TIP3    H237476   6.048   2.781  14.237  0.2214  0.0305  1.0543
 5329TIP3   OH237477   6.270   1.143   6.174  0.3119  0.2063  0.2820
 5329TIP3    H137478   6.214   1.212   6.210  0.8900  0.8702 -0.0705
 5329TIP3    H237479   6.295   1.090   6.250  0.5088  0.8525  0.6716
 5330TIP3   OH237480   5.317   1.691  10.579  0.6554 -0.5321 -0.2421
 5330TIP3    H137481   5.395   1.678  10.632  2.1719  0.1535 -2.1847
 5330TIP3    H237482   5.257   1.622  10.607  2.9816 -2.7954 -0.4877
 5331TIP3   OH237483   5.079   5.266   4.324  0.6850  0.0478 -0.0869
 5331TIP3    H137484   5.074   5.193   4.386  2.6752 -0.4308 -0.4257
 5331TIP3    H237485   5.164   5.255   4.281  0.0790  1.3344 -1.7063
 5332TIP3   OH237486   5.207   6.063   0.126 -0.7489  0.4029  0.0298
 5332TIP3    H137487   5.181   6.050   0.035 -1.1426  0.9195  0.0598
 5332TIP3    H237488   5.190   5.980   0.169  0.1981 -0.1068 -0.5336
 5333TIP3   OH237489   1.105   3.672  16.897  0.1816  0.4722 -0.5024
 5333TIP3    H137490   1.020   3.712  16.877 -0.6137 -0.8973  0.0285
 5333TIP3    H237491   1.141   3.648  16.812 -0.2453  0.4987 -0.6921
 5334TIP3   OH237492   3.334   5.154  15.243  0.2105 -0.5142  0.2080
 5334TIP3    H137493   3.322   5.138  15.337  0.7215 -0.7111  0.2418
 5334TIP3    H237494   3.415   5.205  15.238  0.7600 -1.4028 -0.1948
 5335TIP3   OH237495   5.371   0.179  10.737  0.4977 -0.2905  0.1129
 5335TIP3    H137496   5.299   0.188  10.799  0.5965  1.7172  0.0139
 5335TIP3    H237497   5.330   0.152  10.655  0.1844 -1.5090  0.6502
 5336TIP3   OH237498   3.451   0.853  11.722 -0.0688 -0.3919  0.6398
 5336TIP3    H137499   3.538   0.833  11.686 -0.7595 -0.4390 -1.1017
 5336TIP3    H237500   3.468   0.917  11.792  1.1390  2.7018 -2.2064
 5337TIP3   OH237501   4.507   6.480  16.938 -0.4065  0.5089  0.1579
 5337TIP3    H137502   4.486   6.408  16.997 -0.1698  2.0795  2.2704
 5337TIP3    H237503   4.592   6.455  16.899 -1.6707 -1.6473 -1.4833
 5338TIP3   OH237504   6.299   3.760   4.190 -0.5884 -0.0664 -0.0302
 5338TIP3    H137505   6.206   3.741   4.179 -0.9385  1.1886  0.5522
 5338TIP3    H237506   6.322   3.722   4.275 -0.5225 -0.5173 -0.2470
 5339TIP3   OH237507   3.449   6.773   1.248  0.3795  0.3708 -0.0677
 5339TIP3    H137508   3.520   6.826   1.285 -0.8158  1.3499  0.8928
 5339TIP3    H237509   3.371   6.827   1.259 -0.4026 -0.3154 -1.9121
 5340TIP3   OH237510   0.035   1.808  12.432  0.5700 -0.6240  0.1460
 5340TIP3    H137511   0.111   1.808  12.490  0.9172 -1.6796 -0.2806
 5340TIP3    H237512   0.024   1.716  12.407  0.7383 -0.1495 -1.8470
 5341TIP3   OH237513   4.133   1.792   2.569 -0.6334  0.2325 -0.3377
 5341TIP3    H137514   4.183   1.713   2.550 -0.4291  0.0500  0.8524
 5341TIP3    H237515   4.045   1.772   2.537 -0.5761 -0.4826 -0.0896
 5342TIP3   OH237516   2.008   4.430  13.194  0.0770 -0.4586 -0.3985
 5342TIP3    H137517   2.099   4.412  13.214  0.4487 -1.0347 -2.3455
 5342TIP3    H237518   1.959   4.362  13.240  0.8127 -1.4049 -0.9712
 5343TIP3   OH237519   0.436   2.865  13.999  0.5991 -0.0447 -0.2883
 5343TIP3    H137520   0.467   2.812  13.926  2.9373 -1.7488  1.7846
 5343TIP3    H237521   0.436   2.806  14.074  0.0525  2.0662  1.4933
 5344TIP3   OH237522   3.488   6.456   4.899 -0.1570  0.2704 -0.5777
 5344TIP3    H137523   3.427   6.444   4.972  0.6638 -0.6389 -0.0136
 5344TIP3    H237524   3.476   6.378   4.844  1.0891 -0.3711  0.0069
 5345TIP3   OH237525   0.132   0.054   1.479  0.0923  0.1654  0.0804
 5345TIP3    H137526   0.084   0.030   1.558 -2.8545 -0.2701 -1.7042
 5345TIP3    H237527   0.159  -0.030   1.442 -0.8003  0.1979 -0.6642
 5346TIP3   OH237528   1.347   2.985  10.613 -0.6189 -0.5113  0.6930
 5346TIP3    H137529   1.422   3.029  10.653 -0.5762  0.0294  0.0297
 5346TIP3    H237530   1.383   2.904  10.577 -0.5066 -0.6264  1.0612
 5347TIP3   OH237531   6.807   5.639  12.109 -0.5773 -0.3424 -0.2471
 5347TIP3    H137532   6.846   5.591  12.037 -0.0991 -1.2769  0.6061
 5347TIP3    H237533   6.722   5.669  12.076  0.5339  1.1773 -1.9190
 5348TIP3   OH237534   0.092   1.090  15.744  0.2685  0.0824  0.1593
 5348TIP3    H137535   0.017   1.147  15.725  0.5320  0.3496 -0.0928
 5348TIP3    H237536   0.134   1.131  15.820  0.6740  0.4430 -0.2512
 5349TIP3   OH237537   1.125   0.529   4.704  0.1822  0.3538  0.3263
 5349TIP3    H137538   1.162   0.515   4.791 -0.7133 -2.1943  0.3772
 5349TIP3    H237539   1.080   0.447   4.683 -0.2907  1.1653 -2.2323
 5350TIP3   OH237540   6.739   2.619  13.833 -0.6569  0.1803  0.1043
 5350TIP3    H137541   6.660   2.598  13.882  0.1218  0.1463  1.4111
 5350TIP3    H237542   6.795   2.542  13.843 -0.7337 -0.1083 -1.4496
 5351TIP3   OH237543   2.890   1.396   4.422 -0.1866 -0.0908  0.2185
 5351TIP3    H137544   2.876   1.340   4.499  0.5303 -0.3712  0.1506
 5351TIP3    H237545   2.825   1.465   4.431 -0.0893 -0.1016  1.0966
 5352TIP3   OH237546   2.103   2.629  12.113  0.3496 -0.0905  0.0313
 5352TIP3    H137547   2.066   2.633  12.024  2.3866 -1.1278 -0.9515
 5352TIP3    H237548   2.069   2.706  12.157 -1.5501 -0.0959 -1.3072
 5353TIP3   OH237549   1.291   4.828  12.754 -0.1137 -0.1115  0.0684
 5353TIP3    H137550   1.308   4.920  12.734 -0.4889 -0.5395 -2.7461
 5353TIP3    H237551   1.214   4.829  12.811  1.4271  1.3388  2.2867
 5354TIP3   OH237552   4.776   3.223  14.551  0.3127 -0.2687  0.3946
 5354TIP3    H137553   4.807   3.276  14.624 -0.4068  0.9905 -0.1942
 5354TIP3    H237554   4.824   3.140  14.560 -0.2289 -0.3992  2.6640
 5355TIP3   OH237555   0.618   2.761  12.934  0.5576 -0.2866 -0.0588
 5355TIP3    H137556   0.539   2.795  12.892 -0.0668  0.2978  1.4751
 5355TIP3    H237557   0.690   2.793  12.881 -0.2358 -2.0636 -2.3549
 5356TIP3   OH237558   4.554   5.192  16.428  0.2092  0.3805  0.1934
 5356TIP3    H137559   4.568   5.120  16.367  1.1694 -0.7498  1.6757
 5356TIP3    H237560   4.496   5.252  16.381  0.6829 -0.5625 -1.6929
 5357TIP3   OH237561   5.984   6.795  12.909  0.3220  0.0386 -0.1147
 5357TIP3    H137562   6.066   6.763  12.947  0.9551  1.8167  0.1068
 5357TIP3    H237563   5.999   6.791  12.814  0.8563  0.7634 -0.0723
 5358TIP3   OH237564   0.390   1.005   4.901 -0.6431 -0.1681  0.0167
 5358TIP3    H137565   0.362   0.984   4.990 -1.4154  0.4142 -0.0786
 5358TIP3    H237566   0.316   1.052   4.863  0.1856  0.7743 -0.4858
 5359TIP3   OH237567   2.465   1.453   3.703  0.2041 -0.1540  0.1259
 5359TIP3    H137568   2.460   1.383   3.638 -0.8016 -0.4060  0.4501
 5359TIP3    H237569   2.551   1.442   3.744  0.2946 -0.8325 -0.2350
 5360TIP3   OH237570   4.077   3.838   5.784 -0.3031  0.3617  0.5099
 5360TIP3    H137571   4.155   3.831   5.731 -0.2777 -1.4852  0.7335
 5360TIP3    H237572   4.037   3.921   5.758  0.1398 -0.0789 -1.7814
 5361TIP3   OH237573   1.041   1.048  16.582  0.7027 -0.2922 -0.0588
 5361TIP3    H137574   1.000   0.967  16.553 -0.3262  0.2026 -0.0510
 5361TIP3    H237575   0.969   1.099  16.619  1.8494 -0.6280  2.8520
 5362TIP3   OH237576   5.273   4.519  12.553  0.0698 -0.0218  0.3091
 5362TIP3    H137577   5.200   4.543  12.497 -0.8554 -1.1544  0.9653
 5362TIP3    H237578   5.296   4.600  12.599  1.1789  1.0510 -1.9923
 5363TIP3   OH237579   5.397   5.328  10.341  0.5921 -0.3152 -0.0580
 5363TIP3    H137580   5.449   5.252  10.370 -1.3744 -1.3112  1.0027
 5363TIP3    H237581   5.323   5.290  10.295  0.9355  1.1060 -1.9347
 5364TIP3   OH237582   1.840   0.558   1.878 -0.2019 -0.1578  0.3015
 5364TIP3    H137583   1.895   0.495   1.926 -0.5294 -2.4368 -2.0803
 5364TIP3    H237584   1.751   0.522   1.885 -0.0218 -1.8987 -3.6152
 5365TIP3   OH237585   4.650   4.109  12.459  0.3937 -0.3884  0.0588
 5365TIP3    H137586   4.635   4.073  12.371  2.0662  1.0278 -0.8710
 5365TIP3    H237587   4.565   4.146  12.484 -0.6014 -2.4092 -0.1332
 5366TIP3   OH237588   1.532   2.726  11.384  0.5358  0.2751 -0.3507
 5366TIP3    H137589   1.511   2.816  11.407  1.5047  0.6377 -0.8239
 5366TIP3    H237590   1.627   2.720  11.395  0.6461 -0.3307 -1.5284
 5367TIP3   OH237591   3.934   2.150   6.338 -0.2360  0.3592  0.1894
 5367TIP3    H137592   3.871   2.219   6.317  0.3318  0.1877 -2.3955
 5367TIP3    H237593   4.013   2.196   6.365 -0.9061  0.5957  1.8803
 5368TIP3   OH237594   1.463   4.001   4.933 -0.1417 -0.1839 -0.3141
 5368TIP3    H137595   1.544   3.963   4.897 -0.3847 -0.7816 -0.2393
 5368TIP3    H237596   1.484   4.093   4.947  0.1819 -0.0848 -1.3482
 5369TIP3   OH237597   5.810   3.198   2.274  0.1433 -0.6063  0.2904
 5369TIP3    H137598   5.895   3.156   2.281  1.0375  1.0755  0.0183
 5369TIP3    H237599   5.817   3.255   2.198 -1.4446 -0.8922 -0.1105
 5370TIP3   OH237600   5.257   6.818   2.082 -0.0861  0.6086 -0.5017
 5370TIP3    H137601   5.326   6.844   2.021  1.0269  0.1212  0.5007
 5370TIP3    H237602   5.283   6.731   2.112 -0.7153  0.7367  0.4905
 5371TIP3   OH237603   1.329   1.668   4.711 -0.0716  0.2952 -0.3116
 5371TIP3    H137604   1.385   1.652   4.634  1.3305  0.0593  0.7183
 5371TIP3    H237605   1.242   1.638   4.684  0.1629  1.0680 -2.1148
 5372TIP3   OH237606   2.368   5.209  16.883  0.7056 -0.4382  0.4229
 5372TIP3    H137607   2.310   5.248  16.948  1.3810  0.7490  0.3426
 5372TIP3    H237608   2.309   5.170  16.818 -0.1947  3.5199 -1.4106
 5373TIP3   OH237609   3.557   3.822  16.823 -0.6010 -0.3603  0.2408
 5373TIP3    H137610   3.559   3.851  16.732 -1.6914  0.3226  0.4111
 5373TIP3    H237611   3.581   3.900  16.873  0.2790 -0.8128  0.5234
 5374TIP3   OH237612   6.768   6.063   3.836 -0.4619  0.2553 -0.9046
 5374TIP3    H137613   6.815   6.116   3.772 -1.2411 -0.3816 -2.0520
 5374TIP3    H237614   6.821   5.984   3.845  0.4151  0.9670  0.3881
 5375TIP3   OH237615   1.420   4.318  16.095  0.8413  0.0654 -0.9624
 5375TIP3    H137616   1.398   4.228  16.070 -1.7871  0.8435 -1.7314
 5375TIP3    H237617   1.426   4.316  16.190 -0.8681 -0.6363 -0.8352
 5376TIP3   OH237618   2.402   0.754  11.859 -0.0405  0.3952  0.1371
 5376TIP3    H137619   2.389   0.717  11.946 -0.5633  0.9361  0.2983
 5376TIP3    H237620   2.327   0.812  11.847  0.3600  0.8015 -0.4163
 5377TIP3   OH237621   5.560   4.465  12.570  0.2307 -0.0402 -0.3811
 5377TIP3    H137622   5.595   4.494  12.654 -0.6085 -0.2329  0.0431
 5377TIP3    H237623   5.478   4.513  12.561  0.8470  0.8465 -1.6308
 5378TIP3   OH237624   1.606   2.391   3.940 -0.4501 -0.3306 -1.1247
 5378TIP3    H137625   1.631   2.364   3.851 -0.3891 -2.4804 -0.5190
 5378TIP3    H237626   1.686   2.384   3.991 -0.4945  0.8604 -0.8627
 5379TIP3   OH237627   6.458   2.373  13.403 -0.3849  0.1303 -0.2370
 5379TIP3    H137628   6.539   2.389  13.451  0.4711 -1.1080 -1.1992
 5379TIP3    H237629   6.410   2.310  13.456  0.3486 -0.8848 -0.7617
 5380TIP3   OH237630   5.147   3.123  14.670  0.1539 -0.2227 -0.0188
 5380TIP3    H137631   5.146   3.213  14.639  1.7905 -0.1870 -0.0907
 5380TIP3    H237632   5.228   3.087  14.634  0.4879 -1.1445  1.5467
 5381TIP3   OH237633   6.168   6.837  12.262  0.6100  0.1878 -0.5379
 5381TIP3    H137634   6.244   6.894  12.278 -0.0515  1.8205 -2.7759
 5381TIP3    H237635   6.095   6.882  12.306  0.8978 -1.6274  2.0359
 5382TIP3   OH237636   6.041   5.955   2.933 -0.4424  0.1099 -0.4071
 5382TIP3    H137637   5.965   5.978   2.880  0.1271 -1.9405 -2.2491
 5382TIP3    H237638   6.114   5.954   2.870  0.4362 -1.4704  0.5907
 5383TIP3   OH237639   3.585   4.639  11.262 -0.3844 -0.1689  0.2390
 5383TIP3    H137640   3.629   4.576  11.205 -0.1597 -0.4473  0.7142
 5383TIP3    H237641   3.601   4.606  11.351  0.2215  0.8669  0.5252
 5384TIP3   OH237642   4.286   3.385  13.701  0.5550 -0.0703 -0.6795
 5384TIP3    H137643   4.317   3.377  13.791 -0.7640 -0.2982 -0.2240
 5384TIP3    H237644   4.264   3.477  13.691 -0.6935 -0.3013 -0.2644
 5385TIP3   OH237645   0.104   4.553   1.587 -0.0733 -0.0830 -0.0714
 5385TIP3    H137646   0.077   4.537   1.497 -0.0732  0.3484 -0.1491
 5385TIP3    H237647   0.155   4.634   1.583  0.0403 -0.1332  0.2942
 5386TIP3   OH237648   0.474   6.188   3.498  0.3737 -0.2842  0.2671
 5386TIP3    H137649   0.472   6.094   3.518 -1.4392 -0.3140  0.0889
 5386TIP3    H237650   0.417   6.228   3.564 -0.4775  0.4260 -0.8583
 5387TIP3   OH237651   0.622   4.267  11.422 -0.2525  0.5678  0.2286
 5387TIP3    H137652   0.630   4.363  11.420 -0.7145  0.7437  3.1505
 5387TIP3    H237653   0.550   4.250  11.483 -0.9076 -1.6585 -1.0640
 5388TIP3   OH237654   3.290   2.596  12.317  0.1656 -0.7217  0.3686
 5388TIP3    H137655   3.286   2.622  12.409  0.0681 -0.9554  0.4315
 5388TIP3    H237656   3.381   2.573  12.302  0.6513  1.3191 -0.1536
 5389TIP3   OH237657   4.944   1.424  11.803 -0.5360  0.0896  0.6449
 5389TIP3    H137658   4.863   1.458  11.764 -0.2830  1.3361  1.1435
 5389TIP3    H237659   5.006   1.497  11.797  0.0473 -0.2874  1.7641
 5390TIP3   OH237660   3.920   0.083  10.940 -0.1561 -0.3306 -0.1546
 5390TIP3    H137661   3.828   0.058  10.953  0.0799 -0.5646  1.2805
 5390TIP3    H237662   3.953   0.096  11.029  1.1106  0.0992 -0.6744
 5391TIP3   OH237663   2.711   4.776   3.866 -0.1559 -0.6794  0.1513
 5391TIP3    H137664   2.741   4.688   3.842  2.4901  0.7142 -2.1023
 5391TIP3    H237665   2.653   4.802   3.795  0.8216  0.1786 -0.3645
 5392TIP3   OH237666   0.243   1.348   4.690 -0.8889  0.1028  0.4311
 5392TIP3    H137667   0.225   1.398   4.610 -2.5064 -1.7534 -0.4734
 5392TIP3    H237668   0.216   1.258   4.669  2.3804 -1.3655  1.7620
 5393TIP3   OH237669   3.191   3.803   5.511  0.1539 -0.0601 -0.0378
 5393TIP3    H137670   3.165   3.711   5.503 -0.7258 -0.0590  2.0355
 5393TIP3    H237671   3.283   3.804   5.485 -0.6338 -0.8801 -3.2468
 5394TIP3   OH237672   2.680   0.981  16.675 -0.3248  0.5055 -0.5126
 5394TIP3    H137673   2.729   0.902  16.698 -1.8313  0.2039  2.0139
 5394TIP3    H237674   2.725   1.052  16.721 -1.7737  0.3127  1.3281
 5395TIP3   OH237675   0.304   2.011   2.471  0.4806  0.0814  0.3120
 5395TIP3    H137676   0.280   1.938   2.414  1.8900 -0.0103 -0.2180
 5395TIP3    H237677   0.222   2.040   2.510 -0.0320 -2.3705  1.2446
 5396TIP3   OH237678   4.609   6.375  16.564 -0.7613  0.2239  0.0714
 5396TIP3    H137679   4.553   6.449  16.539  0.0414  0.5498 -0.8445
 5396TIP3    H237680   4.567   6.299  16.524 -1.2684  0.2671  0.5156
 5397TIP3   OH237681   1.206   5.691   1.461 -0.1423  0.3345  0.0412
 5397TIP3    H137682   1.196   5.644   1.378  0.2160  0.2588  0.0387
 5397TIP3    H237683   1.218   5.783   1.435  0.8614  0.1919 -0.0409
 5398TIP3   OH237684   5.996   1.553  12.351  0.3402 -0.6045 -0.4572
 5398TIP3    H137685   5.940   1.559  12.428  0.0684 -1.7432 -0.5451
 5398TIP3    H237686   5.938   1.523  12.281  0.9759 -1.4411 -0.6371
 5399TIP3   OH237687   2.412   5.703  15.793 -0.4600 -0.0639 -0.7134
 5399TIP3    H137688   2.390   5.756  15.716 -1.1395  0.5615 -0.1084
 5399TIP3    H237689   2.500   5.731  15.816 -0.1126 -0.5057 -1.4585
 5400TIP3   OH237690   6.676   1.844  11.362  0.2507  0.1470  0.1116
 5400TIP3    H137691   6.593   1.846  11.410 -0.4291  0.3561 -1.0318
 5400TIP3    H237692   6.700   1.936  11.351 -0.3636  0.1762 -1.1897
 5401TIP3   OH237693   3.290   5.883   2.308  0.5269  0.3962 -0.0918
 5401TIP3    H137694   3.251   5.807   2.352  0.3697 -0.2162 -1.2515
 5401TIP3    H237695   3.335   5.847   2.232 -1.7147  1.6541 -2.1604
 5402TIP3   OH237696   1.823   0.312   6.540  0.2881  0.0839  0.1538
 5402TIP3    H137697   1.772   0.391   6.560  0.8392  0.3773  0.4219
 5402TIP3    H237698   1.757   0.245   6.524 -0.1890  0.4719  0.4424
 5403TIP3   OH237699   4.431   2.382   2.126 -0.1180  0.1534  0.0340
 5403TIP3    H137700   4.444   2.470   2.091 -0.6342  0.7361  1.2326
 5403TIP3    H237701   4.490   2.378   2.202  2.5603 -1.8128 -1.9567
 5404TIP3   OH237702   3.239   6.148   2.348  0.1805 -0.1247  0.0722
 5404TIP3    H137703   3.309   6.090   2.317 -0.6961  0.1451 -2.7522
 5404TIP3    H237704   3.214   6.112   2.433  0.3304 -3.3813 -1.0912
 5405TIP3   OH237705   6.099   2.669  16.204  0.0792 -0.4363  0.5190
 5405TIP3    H137706   6.026   2.730  16.219  0.4914  0.4101 -0.7565
 5405TIP3    H237707   6.177   2.720  16.229  0.3041 -1.0861  1.1780
 5406TIP3   OH237708   1.892   0.358   2.517 -0.0677 -0.2995  0.0448
 5406TIP3    H137709   1.891   0.441   2.469 -2.1836  0.2205  0.8888
 5406TIP3    H237710   1.854   0.294   2.457  0.8673 -0.5312 -0.3277
 5407TIP3   OH237711   1.601   0.454  12.417 -0.0234 -0.2942 -0.5146
 5407TIP3    H137712   1.542   0.511  12.467 -0.7914 -1.1378 -0.4244
 5407TIP3    H237713   1.686   0.497  12.422 -0.5843  0.8267 -0.4403
 5408TIP3   OH237714   5.585   6.262  13.337 -0.2730  0.3763 -0.4369
 5408TIP3    H137715   5.582   6.258  13.432 -0.4853  1.0066 -0.4177
 5408TIP3    H237716   5.494   6.249  13.309  0.0360 -1.7401 -0.6415
 5409TIP3   OH237717   2.439   0.014   6.284  0.0824 -0.2036 -0.2700
 5409TIP3    H137718   2.464   0.088   6.340 -1.7227  0.9764 -0.9563
 5409TIP3    H237719   2.507   0.011   6.216  1.9037 -1.2037  1.4512
 5410TIP3   OH237720   0.004   3.798   5.635 -0.3066 -0.1558 -0.0410
 5410TIP3    H137721  -0.019   3.814   5.543  1.3006  0.5043 -0.3675
 5410TIP3    H237722   0.070   3.864   5.655  1.9992 -2.4596  0.4987
 5411TIP3   OH237723   4.703   1.292   1.195 -0.1664  0.3089  0.2673
 5411TIP3    H137724   4.682   1.368   1.140 -1.8802  0.1252  0.5880
 5411TIP3    H237725   4.736   1.226   1.133 -0.1617  0.7892 -0.2487
 5412TIP3   OH237726   0.156   2.348  15.894  0.5260  0.1794  1.0923
 5412TIP3    H137727   0.094   2.352  15.967  1.2196  0.4758  1.6742
 5412TIP3    H237728   0.190   2.259  15.896 -0.4945 -0.2490  0.2418
 5413TIP3   OH237729   1.930   4.989   4.401 -0.4010  0.4215  0.5288
 5413TIP3    H137730   1.915   5.067   4.348 -2.5552 -0.3015 -0.0459
 5413TIP3    H237731   1.925   4.917   4.338  1.9818 -0.2193  0.9708
 5414TIP3   OH237732   3.601   6.065   2.426  0.2685 -0.4874 -0.4344
 5414TIP3    H137733   3.691   6.054   2.459 -0.3097  0.5686  1.6905
 5414TIP3    H237734   3.548   6.011   2.484 -0.8433  1.7222  0.7164
 5415TIP3   OH237735   6.735   4.096  15.600 -0.2489 -0.3556  0.7044
 5415TIP3    H137736   6.692   4.013  15.618  1.0207 -0.8439  1.6573
 5415TIP3    H237737   6.798   4.107  15.672  0.5127  0.7890 -0.0935
 5416TIP3   OH237738   3.007   0.450   0.514  0.3833  0.8142  0.0040
 5416TIP3    H137739   3.096   0.477   0.537  0.8588 -2.5242  2.9534
 5416TIP3    H237740   3.015   0.415   0.425  1.5267  2.3009 -0.5262
 5417TIP3   OH237741   6.160   3.673   2.584 -0.1353 -0.4819  0.6109
 5417TIP3    H137742   6.172   3.586   2.622  0.0112 -0.2567  1.0990
 5417TIP3    H237743   6.172   3.661   2.490  2.0362 -0.6367  0.8523
 5418TIP3   OH237744   6.155   5.787  16.474 -0.4580 -0.1533  0.4323
 5418TIP3    H137745   6.205   5.746  16.404 -0.3848 -0.0054  0.3943
 5418TIP3    H237746   6.122   5.869  16.436  0.9362  0.7357  1.0281
 5419TIP3   OH237747   2.221   0.354  16.905 -0.8222  0.2206 -0.1741
 5419TIP3    H137748   2.198   0.404  16.828  0.4472 -0.6951 -1.1922
 5419TIP3    H237749   2.187   0.266  16.888  0.7907 -0.3962 -0.4386
 5420TIP3   OH237750   1.017   1.212   4.069  0.1265 -0.0670 -0.1904
 5420TIP3    H137751   0.960   1.290   4.066 -0.3792 -0.4105  0.3209
 5420TIP3    H237752   1.005   1.171   3.983  0.5031  0.4851 -0.5187
 5421TIP3   OH237753   0.407   2.485   0.170 -0.1776 -0.5319  0.2461
 5421TIP3    H137754   0.420   2.551   0.238 -1.0372  0.5226 -0.5882
 5421TIP3    H237755   0.332   2.434   0.201 -0.5939 -0.0273  0.0786
 5422TIP3   OH237756   4.727   2.510  14.592  0.0291 -0.3348 -0.0792
 5422TIP3    H137757   4.770   2.551  14.517  2.7207 -0.6026  1.2060
 5422TIP3    H237758   4.706   2.584  14.649  0.8042 -0.3518  0.2440
 5423TIP3   OH237759   3.983   2.456   5.470  0.3267 -0.0112 -0.6565
 5423TIP3    H137760   3.981   2.478   5.377  0.5342  0.0723 -0.6420
 5423TIP3    H237761   4.069   2.417   5.484  0.8062  1.1485 -0.2389
 5424TIP3   OH237762   4.238   1.483   5.405 -0.4076  0.3470  0.3177
 5424TIP3    H137763   4.173   1.518   5.466  0.9037  1.4660  1.1300
 5424TIP3    H237764   4.269   1.403   5.448 -0.1911  0.6112  0.6623
 5425TIP3   OH237765   3.025   1.589  13.820 -0.3402  0.0231 -0.2796
 5425TIP3    H137766   3.049   1.513  13.873  1.3993  0.1229 -0.8502
 5425TIP3    H237767   2.989   1.652  13.883 -0.8364 -0.8698  0.3495
 5426TIP3   OH237768   4.253   6.535   4.735  0.3685 -0.6304 -0.7143
 5426TIP3    H137769   4.231   6.442   4.739  0.9666 -0.7542 -0.1620
 5426TIP3    H237770   4.346   6.537   4.712  0.8520 -0.2390  1.0649
 5427TIP3   OH237771   2.367   1.800   5.961 -0.0747  0.2095  0.2017
 5427TIP3    H137772   2.320   1.750   6.027 -0.5490 -0.3769 -0.5621
 5427TIP3    H237773   2.423   1.736   5.918 -2.2342 -0.2137 -2.2206
 5428TIP3   OH237774   1.615   3.423  12.455  0.0979  0.3840  0.2032
 5428TIP3    H137775   1.561   3.501  12.469 -0.2646  0.4430 -1.3398
 5428TIP3    H237776   1.684   3.430  12.521  0.4521  2.3636 -0.2880
 5429TIP3   OH237777   6.055   0.232   1.396 -0.1728  0.0256  0.3824
 5429TIP3    H137778   6.028   0.181   1.472 -0.7437  0.5144  0.5087
 5429TIP3    H237779   6.148   0.248   1.410 -0.2539  0.0344  0.9331
 5430TIP3   OH237780   0.978   6.434  11.500  0.1576  0.3023 -0.0512
 5430TIP3    H137781   1.033   6.498  11.455  2.0270 -0.8046  0.5668
 5430TIP3    H237782   1.039   6.381  11.551 -1.5854 -0.4256  1.3933
 5431TIP3   OH237783   4.969   4.504  15.072 -0.3165 -0.4906 -0.0600
 5431TIP3    H137784   4.989   4.415  15.041 -0.5020 -1.9004  3.3876
 5431TIP3    H237785   5.047   4.555  15.050 -0.7635 -1.0277 -3.4056
 5432TIP3   OH237786   0.851   2.197   1.111  0.3291  0.3291  0.6479
 5432TIP3    H137787   0.795   2.249   1.052  0.0921  0.2799  0.8272
 5432TIP3    H237788   0.807   2.203   1.196  1.0717  1.0291  0.9909
 5433TIP3   OH237789   4.747   1.915  15.490  0.0801  0.0674 -0.4789
 5433TIP3    H137790   4.830   1.893  15.447  0.7193  1.8156 -0.2115
 5433TIP3    H237791   4.682   1.912  15.419  1.0316  2.3978 -1.5660
 5434TIP3   OH237792   3.208   4.201  11.370  0.0698 -0.0759 -0.3834
 5434TIP3    H137793   3.280   4.252  11.405 -0.3640  0.7776 -0.7217
 5434TIP3    H237794   3.180   4.249  11.292 -1.0209 -0.2631 -0.1237
 5435TIP3   OH237795   3.760   0.612  11.788 -0.0950  0.0238  0.0170
 5435TIP3    H137796   3.748   0.691  11.737 -0.2968  0.6317  0.9840
 5435TIP3    H237797   3.677   0.565  11.780 -0.6221  0.7767  0.8735
 5436TIP3   OH237798   5.531   4.457  13.096 -0.1018  0.2783  0.1887
 5436TIP3    H137799   5.624   4.435  13.084  0.1853  1.8338 -0.7383
 5436TIP3    H237800   5.532   4.543  13.138 -1.1478 -0.1662  1.1770
 5437TIP3   OH237801   6.539   3.232  13.407  0.2085  0.0323  0.5255
 5437TIP3    H137802   6.621   3.282  13.415 -0.3309  1.4069 -1.7028
 5437TIP3    H237803   6.562   3.158  13.350 -0.0738  0.4898 -0.2092
 5438TIP3   OH237804   5.649   5.845   5.051 -0.0895  0.0597 -0.4228
 5438TIP3    H137805   5.589   5.779   5.087 -0.1388 -0.8136 -2.0378
 5438TIP3    H237806   5.608   5.874   4.970  0.2950  1.5865 -0.1132
 5439TIP3   OH237807   5.830   5.040  11.483  0.5188 -0.2151 -0.4341
 5439TIP3    H137808   5.848   5.029  11.577  1.9787 -1.5770 -0.8291
 5439TIP3    H237809   5.752   4.987  11.467  0.2422  0.0530  0.0067
 5440TIP3   OH237810   1.652   0.694  11.630  0.6555 -0.7810  0.0460
 5440TIP3    H137811   1.708   0.723  11.558  1.2636 -0.5182  0.6088
 5440TIP3    H237812   1.566   0.682  11.591  0.4313  1.5334 -0.2804
 5441TIP3   OH237813   5.091   2.416  16.824 -0.0709 -0.0471 -0.1879
 5441TIP3    H137814   5.045   2.457  16.751  0.3984  0.9352  0.0617
 5441TIP3    H237815   5.024   2.406  16.892 -0.1709  0.3839 -0.2203
 5442TIP3   OH237816   6.788   2.871   3.238 -0.1022 -0.0645 -0.3735
 5442TIP3    H137817   6.825   2.832   3.317  0.7129  3.8902  1.4974
 5442TIP3    H237818   6.716   2.925   3.270  1.0013  2.6110 -2.0393
 5443TIP3   OH237819   3.373   3.156  14.958 -0.0314  0.5757  0.0607
 5443TIP3    H137820   3.371   3.226  15.024  0.5843  1.7429 -1.1066
 5443TIP3    H237821   3.455   3.109  14.977  0.0465  0.7851  0.2566
 5444TIP3   OH237822   1.703   6.250   6.343  0.4130 -0.0319  0.5049
 5444TIP3    H137823   1.670   6.217   6.260 -1.5810  0.8902  0.8852
 5444TIP3    H237824   1.798   6.256   6.331  0.2907 -1.1736 -1.2217
 5445TIP3   OH237825   0.586   2.778   5.902 -0.2186  0.4714 -0.3896
 5445TIP3    H137826   0.574   2.862   5.946 -0.0949  0.4793 -0.3699
 5445TIP3    H237827   0.607   2.802   5.811 -0.7515  0.4491 -0.5201
 5446TIP3   OH237828   5.784   4.034   0.842 -0.3054  0.0973 -0.2206
 5446TIP3    H137829   5.870   4.020   0.881 -0.2326  0.1341 -0.3698
 5446TIP3    H237830   5.775   4.130   0.837 -0.1674  0.0906 -0.6232
 5447TIP3   OH237831   0.758   5.105   4.817 -0.0150 -0.1424 -0.4564
 5447TIP3    H137832   0.761   5.171   4.748 -3.2042  0.0197 -0.5463
 5447TIP3    H237833   0.784   5.024   4.773 -2.2198 -0.0977 -2.0201
 5448TIP3   OH237834   0.590   4.055   4.875  0.1723  0.4496 -0.2905
 5448TIP3    H137835   0.680   4.045   4.842 -0.3708  1.1898 -2.1537
 5448TIP3    H237836   0.563   3.966   4.896 -0.3119 -0.6750 -4.6027
 5449TIP3   OH237837   6.464   1.850  16.174 -0.1418  0.7248  0.2834
 5449TIP3    H137838   6.492   1.808  16.255  0.6249 -3.0271 -1.7215
 5449TIP3    H237839   6.542   1.850  16.119 -1.0886  1.5135 -1.1151
 5450TIP3   OH237840   0.870   0.777  11.488  0.1435  0.2531  0.3530
 5450TIP3    H137841   0.940   0.735  11.438 -0.7731 -2.4503  1.1242
 5450TIP3    H237842   0.914   0.810  11.567  0.9597  1.0714 -0.4225
 5451TIP3   OH237843   6.332   4.883  12.668  0.1905  0.4032 -0.0727
 5451TIP3    H137844   6.403   4.879  12.604  0.4315  0.1082  0.2117
 5451TIP3    H237845   6.367   4.937  12.739  0.5029 -0.5740  0.5283
 5452TIP3   OH237846   5.280   4.121   0.630 -0.7604 -0.0922 -0.3302
 5452TIP3    H137847   5.351   4.148   0.688 -0.5954 -2.3531  0.5979
 5452TIP3    H237848   5.321   4.107   0.545 -0.0545 -1.4440  0.2162
 5453TIP3   OH237849   0.604   5.370   4.827 -0.1498 -0.0927 -0.0111
 5453TIP3    H137850   0.682   5.417   4.797  0.4213 -1.9521 -1.6933
 5453TIP3    H237851   0.587   5.306   4.758 -1.3712 -1.7707  1.7303
 5454TIP3   OH237852   3.952   2.255  16.024 -0.5097 -0.3608 -0.1868
 5454TIP3    H137853   3.986   2.209  15.948 -0.7368 -1.4826  0.3624
 5454TIP3    H237854   4.024   2.254  16.087 -0.9857 -1.3041  0.3725
 5455TIP3   OH237855   4.763   5.861   1.088 -0.1399  0.1339  0.0041
 5455TIP3    H137856   4.817   5.863   1.009 -0.1163  1.8756  0.0209
 5455TIP3    H237857   4.785   5.779   1.131  0.0989 -0.6891 -1.6232
 5456TIP3   OH237858   6.822   6.723   2.482 -0.1777  0.4914  0.2024
 5456TIP3    H137859   6.885   6.795   2.483 -0.8686  1.1062  0.8343
 5456TIP3    H237860   6.737   6.766   2.488 -0.5711 -0.4248  1.4928
 5457TIP3   OH237861   3.750   2.166  11.165  0.0959  0.3614 -0.2527
 5457TIP3    H137862   3.732   2.109  11.090  0.4445 -0.3733  0.2072
 5457TIP3    H237863   3.696   2.130  11.235  0.6726  0.2991  0.1701
 5458TIP3   OH237864   5.675   2.986   1.336 -0.0854 -0.6372 -0.3988
 5458TIP3    H137865   5.736   2.933   1.388  1.2917  0.0724 -1.2314
 5458TIP3    H237866   5.704   2.975   1.246  1.3043  2.7000 -0.5008
 5459TIP3   OH237867   3.758   1.894  13.344  0.0758 -0.4925 -0.1559
 5459TIP3    H137868   3.751   1.849  13.429 -0.1302 -0.5273 -0.1911
 5459TIP3    H237869   3.760   1.823  13.280 -0.1878 -0.4537 -0.2072
 5460TIP3   OH237870   6.180   4.447  13.294  0.1803  0.2835  0.0637
 5460TIP3    H137871   6.113   4.406  13.239  0.7316  0.2841 -0.6230
 5460TIP3    H237872   6.259   4.396  13.277  0.2390 -0.0787  1.3024
 5461TIP3   OH237873   0.547   5.912  10.695 -0.0040 -0.1521 -0.7544
 5461TIP3    H137874   0.544   5.988  10.637  0.9439  0.2768 -0.2644
 5461TIP3    H237875   0.584   5.946  10.776 -0.9831 -0.8239 -0.0108
 5462TIP3   OH237876   1.632   6.081   0.861  0.1998 -0.1651  0.4052
 5462TIP3    H137877   1.623   6.160   0.808  0.6389  0.7497  1.6405
 5462TIP3    H237878   1.700   6.031   0.817 -1.4299 -0.8303 -1.4921
 5463TIP3   OH237879   4.419   2.047  12.307 -0.1836  0.5180  0.0436
 5463TIP3    H137880   4.392   1.969  12.260  3.4893 -0.9718  0.0589
 5463TIP3    H237881   4.402   2.027  12.399 -0.2083  0.1455 -0.0432
 5464TIP3   OH237882   3.388   5.049   3.929 -0.0838  0.7268 -0.0516
 5464TIP3    H137883   3.385   5.142   3.954  0.8496  0.6974  0.1972
 5464TIP3    H237884   3.359   5.002   4.007 -0.1529  0.7833 -0.0426
 5465TIP3   OH237885   4.511   2.401  10.252  0.2052  0.0946  0.4672
 5465TIP3    H137886   4.584   2.400  10.313  0.5025  0.9523  0.1417
 5465TIP3    H237887   4.478   2.312  10.253  1.9889 -0.6166 -0.2705
 5466TIP3   OH237888   0.902   2.843  11.293 -0.1981  0.0563  0.4198
 5466TIP3    H137889   0.987   2.865  11.332 -0.2968  0.7314  0.2512
 5466TIP3    H237890   0.916   2.757  11.253  0.3359  0.0548  0.6017
 5467TIP3   OH237891   2.457   1.038   1.682  0.0545 -0.2296 -0.4924
 5467TIP3    H137892   2.526   1.053   1.617 -2.1748 -3.7801 -4.1450
 5467TIP3    H237893   2.498   0.980   1.746  1.1018 -0.4803 -1.3549
 5468TIP3   OH237894   2.188   5.554   1.466 -0.4449 -0.2476  0.3824
 5468TIP3    H137895   2.139   5.548   1.547 -1.0611 -0.8051 -0.0181
 5468TIP3    H237896   2.176   5.644   1.437 -0.7734 -0.2299  0.5728
 5469TIP3   OH237897   1.637   6.240   2.935 -0.2503  0.2422 -0.3814
 5469TIP3    H137898   1.549   6.200   2.938  0.0613 -0.4410  0.1302
 5469TIP3    H237899   1.634   6.307   3.004 -0.3816  0.2397 -0.3828
 5470TIP3   OH237900   5.193   0.766   3.307 -0.3878 -0.2609 -0.1223
 5470TIP3    H137901   5.115   0.810   3.341 -0.1413  0.2666 -0.2361
 5470TIP3    H237902   5.221   0.709   3.379  0.2760  1.0338  0.7077
 5471TIP3   OH237903   2.333   3.521   1.288 -0.3132 -0.0401  0.1539
 5471TIP3    H137904   2.284   3.506   1.369  0.9562  0.3239  1.0130
 5471TIP3    H237905   2.423   3.537   1.316  0.1537  0.1431 -1.3311
 5472TIP3   OH237906   5.354   0.586  11.091 -0.1610  0.3066 -0.2469
 5472TIP3    H137907   5.394   0.543  11.166  0.9067  2.1125  0.2663
 5472TIP3    H237908   5.423   0.586  11.024 -1.1834 -1.5299 -1.3918
 5473TIP3   OH237909   1.626   1.779  12.078  0.0459 -0.0770 -0.3368
 5473TIP3    H137910   1.672   1.696  12.072  0.0071 -0.0665 -0.7876
 5473TIP3    H237911   1.602   1.801  11.988  0.1468  0.4721 -0.2390
 5474TIP3   OH237912   6.623   4.516   2.172  0.0493 -0.1103 -0.8711
 5474TIP3    H137913   6.634   4.444   2.234  0.8107 -0.3287 -1.2473
 5474TIP3    H237914   6.598   4.591   2.226 -0.7752 -0.6557 -0.4797
 5475TIP3   OH237915   2.501   2.595  16.359  0.2583  0.3538 -0.1983
 5475TIP3    H137916   2.434   2.633  16.416  0.2789 -1.3975  1.0669
 5475TIP3    H237917   2.496   2.501  16.376  1.1110 -0.1052 -2.2094
 5476TIP3   OH237918   2.140   5.177   4.787  0.4484 -0.1213  0.1311
 5476TIP3    H137919   2.207   5.132   4.735  0.4359 -0.7347  0.6259
 5476TIP3    H237920   2.171   5.267   4.795  0.9320 -0.2662 -0.1225
 5477TIP3   OH237921   6.079   4.801  13.030  0.1556  0.7016 -0.8137
 5477TIP3    H137922   6.000   4.798  12.977 -1.9011  3.6359  1.7125
 5477TIP3    H237923   6.128   4.875  12.996  1.2648 -0.3395 -1.5638
 5478TIP3   OH237924   0.047   4.712   5.694 -0.7779 -0.1289  0.2726
 5478TIP3    H137925   0.010   4.797   5.718  1.8951  1.1431  0.1964
 5478TIP3    H237926   0.076   4.674   5.776  0.2803  0.1878  0.0588
 5479TIP3   OH237927   2.794   3.668   4.691 -0.2006  0.0248 -0.3118
 5479TIP3    H137928   2.762   3.580   4.671 -0.1069 -0.1925  0.4724
 5479TIP3    H237929   2.725   3.726   4.660 -0.3551 -0.3335 -0.6490
 5480TIP3   OH237930   4.795   2.045   5.833  0.0394  0.2480 -0.4405
 5480TIP3    H137931   4.782   1.996   5.752 -0.4941  1.2303 -0.9584
 5480TIP3    H237932   4.807   2.136   5.805  1.7317  0.3483  0.4526
 5481TIP3   OH237933   1.905   5.960   4.148 -0.1865 -0.1953 -0.5230
 5481TIP3    H137934   1.923   6.019   4.222 -0.8327 -0.9821  0.2700
 5481TIP3    H237935   1.876   5.879   4.188 -0.8148 -0.5495 -1.6637
 5482TIP3   OH237936   1.449   4.531   2.117  0.0398  0.3014  0.8230
 5482TIP3    H137937   1.499   4.470   2.062 -0.2501  0.3469  0.5070
 5482TIP3    H237938   1.514   4.595   2.147  0.6557 -0.9255  2.2941
 5483TIP3   OH237939   4.921   4.768   4.395  0.1674 -0.1265  0.1951
 5483TIP3    H137940   4.867   4.731   4.465 -2.2319  3.0551  0.2389
 5483TIP3    H237941   4.861   4.780   4.322  1.3508  1.5075 -0.5675
 5484TIP3   OH237942   5.135   3.549  15.610 -0.4958 -0.7374  0.7360
 5484TIP3    H137943   5.077   3.617  15.645 -0.5769 -1.0145  1.1487
 5484TIP3    H237944   5.076   3.475  15.594 -0.5546 -0.4497 -0.4844
 5485TIP3   OH237945   4.337   5.573  15.409  0.4017 -0.3962  0.7787
 5485TIP3    H137946   4.246   5.601  15.424  0.8043  0.8475  1.0111
 5485TIP3    H237947   4.371   5.554  15.496  0.8659  0.8034  0.8765
 5486TIP3   OH237948   6.642   0.349  11.657  0.2061  0.2007  0.6532
 5486TIP3    H137949   6.671   0.413  11.722  0.3403 -0.1209  0.9179
 5486TIP3    H237950   6.547   0.354  11.658  0.2341  1.4909 -0.4475
 5487TIP3   OH237951   0.282   1.201  10.778  0.1566 -0.3624  0.1255
 5487TIP3    H137952   0.356   1.236  10.728 -1.6291  3.0053 -0.4625
 5487TIP3    H237953   0.252   1.126  10.727  0.5977  0.8216 -2.0020
 5488TIP3   OH237954   0.168   3.000  13.533 -0.1677  0.0093  0.1854
 5488TIP3    H137955   0.115   3.047  13.597  0.0244 -0.0446  0.3869
 5488TIP3    H237956   0.250   3.050  13.528  0.9435 -1.4649  2.0370
 5489TIP3   OH237957   5.167   0.821  11.080 -0.1060  0.2767 -0.1784
 5489TIP3    H137958   5.124   0.894  11.036 -0.1719  0.9465  0.9371
 5489TIP3    H237959   5.228   0.785  11.015 -0.2802  1.1437 -0.8373
 5490TIP3   OH237960   0.219   0.725  10.805  0.3799 -0.7286 -0.2355
 5490TIP3    H137961   0.220   0.630  10.818 -0.8522 -1.0867 -2.3101
 5490TIP3    H237962   0.129   0.744  10.777  1.2588  0.6662 -2.2988
 5491TIP3   OH237963   5.664   6.141   5.026 -0.0258 -0.0859  0.1149
 5491TIP3    H137964   5.655   6.046   5.032  2.4730 -0.3189  1.7225
 5491TIP3    H237965   5.645   6.173   5.114 -1.9347  1.0933 -0.6614
 5492TIP3   OH237966   5.048   5.456  16.499 -0.0894  0.0346  0.0807
 5492TIP3    H137967   4.976   5.404  16.464 -0.7416  1.1075 -0.2204
 5492TIP3    H237968   5.088   5.399  16.566 -2.0190 -0.1289  1.1793
 5493TIP3   OH237969   0.814   2.185  15.590  0.5467 -0.4766 -0.4314
 5493TIP3    H137970   0.858   2.268  15.605 -1.1123  0.2643  0.6732
 5493TIP3    H237971   0.807   2.146  15.677  1.4557 -1.8900 -0.9570
 5494TIP3   OH237972   5.577   5.267   2.343  0.2070 -0.5481 -0.7653
 5494TIP3    H137973   5.632   5.342   2.368  0.0803 -0.5817 -0.3827
 5494TIP3    H237974   5.556   5.284   2.251 -0.5387  0.3425 -0.4452
 5495TIP3   OH237975   4.115   1.147  10.968 -0.0937 -0.4617 -0.0698
 5495TIP3    H137976   4.022   1.126  10.971 -0.2328 -0.2505 -1.8520
 5495TIP3    H237977   4.120   1.239  10.996 -0.0555 -1.2430  2.7557
 5496TIP3   OH237978   1.128   2.822  15.333  0.0481 -0.2756 -0.8257
 5496TIP3    H137979   1.220   2.832  15.308 -0.2597  1.9217 -1.3602
 5496TIP3    H237980   1.099   2.745  15.286  1.8079 -1.5547  0.0509
 5497TIP3   OH237981   4.186   6.122   2.136  0.2864  0.4442  0.1982
 5497TIP3    H137982   4.100   6.151   2.105  0.3067 -0.2232 -0.5339
 5497TIP3    H237983   4.187   6.146   2.228 -1.0940 -0.3930  0.4762
 5498TIP3   OH237984   1.884   0.012  15.692  0.7327  0.3519  0.0678
 5498TIP3    H137985   1.818  -0.050  15.721  0.5699  0.9541  1.0200
 5498TIP3    H237986   1.905   0.064  15.769  2.2359  0.2662 -0.2517
 5499TIP3   OH237987   1.545   0.886  12.423  0.1733  0.2256 -0.4335
 5499TIP3    H137988   1.452   0.878  12.403  0.4677 -1.7815 -1.2495
 5499TIP3    H237989   1.577   0.951  12.360 -0.1793 -1.1684 -2.1248
 5500TIP3   OH237990   4.011   5.304  16.705 -0.1051 -0.5425  0.6629
 5500TIP3    H137991   3.992   5.233  16.766  1.6659 -2.1380 -0.5478
 5500TIP3    H237992   4.102   5.327  16.723 -0.4493  0.9954  0.5747
 5501TIP3   OH237993   4.802   2.636  14.347  0.4326  0.3101 -0.1586
 5501TIP3    H137994   4.838   2.628  14.259 -1.7395  0.8753 -1.1570
 5501TIP3    H237995   4.807   2.729  14.367 -1.1773  0.5605 -0.7042
 5502TIP3   OH237996   5.457   1.140   3.949  0.0630 -0.3955  0.4178
 5502TIP3    H137997   5.484   1.168   4.037 -0.8124 -1.5051  1.0522
 5502TIP3    H237998   5.524   1.076   3.923 -0.3105 -0.9249  0.7554
 5503TIP3   OH237999   1.341   1.824   0.946  0.3853 -0.0859 -0.1303
 5503TIP3    H138000   1.293   1.842   0.866 -0.1338  1.0261  0.3980
 5503TIP3    H238001   1.410   1.890   0.948  0.2125  0.0900  0.4620
 5504TIP3   OH238002   5.739   3.159  11.677 -0.7192 -0.1276  0.4328
 5504TIP3    H138003   5.754   3.240  11.627  1.1430 -0.9821 -0.4973
 5504TIP3    H238004   5.655   3.127  11.644 -0.9242  0.8312 -0.0355
 5505TIP3   OH238005   1.844   0.884   2.086  0.5633  0.2574  0.3031
 5505TIP3    H138006   1.891   0.923   2.160  0.4070  1.7680 -0.3467
 5505TIP3    H238007   1.864   0.942   2.012 -2.0692  0.8430 -0.0535
 5506TIP3   OH238008   1.947   0.747   1.728 -0.1825  0.0417  0.0231
 5506TIP3    H138009   1.914   0.670   1.774  0.4596  0.1607  0.7102
 5506TIP3    H238010   2.017   0.780   1.784 -0.2711  0.9763 -0.3891
 5507TIP3   OH238011   4.672   0.066   0.237  0.3731  0.5237  0.1788
 5507TIP3    H138012   4.687   0.002   0.308  3.3948 -0.3260 -1.0595
 5507TIP3    H238013   4.582   0.050   0.210  1.0062 -3.5492 -0.2538
 5508TIP3   OH238014   2.752   0.143   2.629 -0.0050 -0.5286  0.0908
 5508TIP3    H138015   2.815   0.212   2.644  0.0735 -0.9277  1.8857
 5508TIP3    H238016   2.796   0.082   2.570  0.1965  0.5642 -0.9179
 5509TIP3   OH238017   4.365   2.836  11.142  0.5999 -0.4642  0.1802
 5509TIP3    H138018   4.353   2.765  11.206 -1.0746 -1.6568 -1.3692
 5509TIP3    H238019   4.435   2.804  11.085 -0.3659 -1.0607 -0.7046
 5510TIP3   OH238020   5.352   2.660   2.459 -0.3898 -0.4848 -0.6617
 5510TIP3    H138021   5.272   2.609   2.442 -1.7978  0.6627  1.8952
 5510TIP3    H238022   5.324   2.751   2.454  1.0238 -0.0263 -0.6608
 5511TIP3   OH238023   1.211   2.409  11.189  0.2594 -0.2514  0.1667
 5511TIP3    H138024   1.177   2.497  11.170 -0.9846 -0.5950  0.7351
 5511TIP3    H238025   1.274   2.423  11.260 -3.6682 -0.2778  4.1242
 5512TIP3   OH238026   2.510   1.584  13.711  0.9471 -0.0819  0.1944
 5512TIP3    H138027   2.521   1.667  13.664 -0.2596  0.3496  0.6293
 5512TIP3    H238028   2.539   1.517  13.649 -0.7499  0.4461 -1.2466
 5513TIP3   OH238029   3.698   3.944  15.717 -0.3953  0.4423 -0.9645
 5513TIP3    H138030   3.683   3.850  15.729 -0.0942  0.6120  1.2156
 5513TIP3    H238031   3.712   3.954  15.623 -2.1130 -1.4310 -1.4930
 5514TIP3   OH238032   0.718   1.807  10.959 -0.1515 -0.3127  0.4021
 5514TIP3    H138033   0.677   1.760  11.031 -0.8855 -0.1200  0.1216
 5514TIP3    H238034   0.692   1.899  10.972  2.1141  0.2376  1.5351
 5515TIP3   OH238035   4.033   4.161  12.687  0.4649  0.0528  0.3437
 5515TIP3    H138036   4.085   4.223  12.634 -0.4554  0.0247 -0.6337
 5515TIP3    H238037   4.088   4.143  12.763  1.6142  0.5177 -0.3427
 5516TIP3   OH238038   2.658   4.053  11.664  0.6386  0.5498 -0.0397
 5516TIP3    H138039   2.640   4.139  11.700  2.2185  0.1974  1.7465
 5516TIP3    H238040   2.641   3.992  11.736  1.2372 -0.4538 -0.7201
 5517TIP3   OH238041   5.938   5.113  15.866 -0.0435 -0.5113  0.4217
 5517TIP3    H138042   5.867   5.177  15.857  1.3213  0.7479 -3.5193
 5517TIP3    H238043   5.899   5.031  15.837 -0.3635 -0.2097 -0.0257
 5518TIP3   OH238044   4.634   2.052  15.022  0.3186  0.1410  0.2341
 5518TIP3    H138045   4.720   2.010  15.025 -0.0004 -0.5721 -0.2426
 5518TIP3    H238046   4.653   2.146  15.015  1.0780 -0.0849 -1.0469
 5519TIP3   OH238047   3.554   4.746   5.726 -0.3626  0.8794 -0.0661
 5519TIP3    H138048   3.471   4.746   5.677 -0.6189 -0.4716  0.3150
 5519TIP3    H238049   3.550   4.667   5.780  0.9227  1.1128  0.4132
 5520TIP3   OH238050   1.390   1.070   2.462  0.8994 -0.0904 -0.2895
 5520TIP3    H138051   1.318   1.121   2.426  0.3943 -0.2602  0.4480
 5520TIP3    H238052   1.415   1.010   2.392  0.7870  0.4416 -0.7883
 5521TIP3   OH238053   2.730   0.184   0.945 -0.0901 -0.3321 -0.9967
 5521TIP3    H138054   2.757   0.198   0.855  0.3474  0.4669 -0.7424
 5521TIP3    H238055   2.784   0.243   0.997 -1.1605  0.0987 -0.3227
 5522TIP3   OH238056   3.382   3.025   0.037 -0.3318 -0.0834 -0.0061
 5522TIP3    H138057   3.404   3.012  -0.055 -2.8764 -0.3324 -0.6653
 5522TIP3    H238058   3.384   3.119   0.049 -0.4044 -0.0256 -0.4349
 5523TIP3   OH238059   5.793   1.981   3.076  0.7225 -0.4985  0.0622
 5523TIP3    H138060   5.813   1.997   2.984  0.5466  0.6558  0.2169
 5523TIP3    H238061   5.708   1.938   3.075  0.0029  0.8887 -0.2494
 5524TIP3   OH238062   6.135   3.875   4.728  0.0355  0.3412 -0.5244
 5524TIP3    H138063   6.097   3.963   4.732 -1.3364 -0.2556  2.5135
 5524TIP3    H238064   6.220   3.884   4.771 -0.4299  0.0689  0.4709
 5525TIP3   OH238065   2.055   0.489  10.956 -0.0969 -0.0686  1.1879
 5525TIP3    H138066   1.992   0.545  10.911  1.0720  2.6829  2.7352
 5525TIP3    H238067   2.112   0.456  10.887 -1.4201 -0.2311  0.1235
 5526TIP3   OH238068   2.683   0.256  13.766  0.1924  0.5324  0.3566
 5526TIP3    H138069   2.696   0.255  13.861  0.6159 -1.8754  0.3182
 5526TIP3    H238070   2.771   0.271  13.730  0.7955 -2.4470  0.3459
 5527TIP3   OH238071   4.622   2.687   0.412 -0.7331 -0.2784 -0.0359
 5527TIP3    H138072   4.617   2.711   0.505  1.3248 -2.5303  0.7924
 5527TIP3    H238073   4.702   2.634   0.406  0.5523  1.7065 -3.5860
 5528TIP3   OH238074   6.082   1.116   4.948 -0.1053  0.0929 -0.6382
 5528TIP3    H138075   6.073   1.074   4.863  1.1957 -0.5800 -0.4627
 5528TIP3    H238076   6.135   1.194   4.930 -0.3377  0.2786 -0.5310
 5529TIP3   OH238077   1.239   4.969   2.368  0.1955  0.3177 -0.1180
 5529TIP3    H138078   1.207   5.049   2.409 -0.1318  0.6886 -1.0652
 5529TIP3    H238079   1.238   4.989   2.274  0.4958 -0.6559 -0.3324
 5530TIP3   OH238080   2.241   0.267   2.037 -0.0459 -0.0423  0.2835
 5530TIP3    H138081   2.279   0.265   1.949 -0.8166 -2.3853 -0.0459
 5530TIP3    H238082   2.293   0.205   2.087  0.3822  1.2640  1.5379
 5531TIP3   OH238083   1.499   3.833   3.804  0.0385 -0.2282  0.2387
 5531TIP3    H138084   1.532   3.914   3.765 -0.5872 -0.4196 -0.7290
 5531TIP3    H238085   1.464   3.860   3.889  0.3042  0.4271  0.1468
 5532TIP3   OH238086   5.563   4.691  12.385  0.1765  0.0392 -0.6566
 5532TIP3    H138087   5.615   4.611  12.394 -0.4614 -0.2528  0.7785
 5532TIP3    H238088   5.614   4.757  12.432 -0.8653 -0.3470  1.1456
 5533TIP3   OH238089   4.741   5.600  12.301 -0.6061 -0.0547  0.4949
 5533TIP3    H138090   4.662   5.598  12.246 -1.5111 -0.4492  1.7556
 5533TIP3    H238091   4.763   5.508  12.313 -0.0483  0.0523  0.2975
 5534TIP3   OH238092   3.561   0.362   2.261  0.4390  0.0040 -0.2339
 5534TIP3    H138093   3.583   0.424   2.192  0.0622  0.7790  0.3379
 5534TIP3    H238094   3.470   0.338   2.245  0.4864 -0.1623 -0.2626
 5535TIP3   OH238095   1.216   4.719  16.640  0.0394  0.2931 -0.1901
 5535TIP3    H138096   1.207   4.626  16.663 -0.7112  0.5792  0.7415
 5535TIP3    H238097   1.298   4.723  16.590  0.5652 -0.7358  0.5372
 5536TIP3   OH238098   6.789   4.934   2.966  0.1776 -0.4145  0.2671
 5536TIP3    H138099   6.768   4.840   2.962 -0.6762 -0.2021 -1.8529
 5536TIP3    H238100   6.849   4.942   3.040  0.5445 -2.6799  0.2982
 5537TIP3   OH238101   2.178   6.247  10.657 -0.2024  0.4850  0.3699
 5537TIP3    H138102   2.154   6.214  10.743 -1.1101  0.7514  0.2244
 5537TIP3    H238103   2.104   6.226  10.601 -0.7555  2.5983  0.2361
 5538TIP3   OH238104   2.763   5.439   3.169  0.3782 -0.1679 -0.1448
 5538TIP3    H138105   2.796   5.385   3.241  1.4018  0.9844  0.2800
 5538TIP3    H238106   2.805   5.403   3.091  3.1239  1.5223  0.4227
 5539TIP3   OH238107   5.079   5.893  12.198  0.3436  0.2884 -0.0196
 5539TIP3    H138108   5.063   5.908  12.104 -0.1870 -3.0950 -0.5880
 5539TIP3    H238109   5.053   5.975  12.239 -1.9689  1.0474 -2.6186
 5540TIP3   OH238110   0.780   4.736   3.325  0.3019 -0.2764 -0.7432
 5540TIP3    H138111   0.810   4.698   3.243  1.8947 -0.3959 -0.1504
 5540TIP3    H238112   0.854   4.725   3.385 -1.1464 -1.0264  0.9908
 5541TIP3   OH238113   4.580   5.259  11.513  0.7519  0.3664  0.2654
 5541TIP3    H138114   4.526   5.322  11.561  1.5608  2.0393 -0.8849
 5541TIP3    H238115   4.522   5.184  11.498 -1.2456  1.9775 -0.7179
 5542TIP3   OH238116   2.830   6.508   1.094 -0.3165 -0.6789 -0.7400
 5542TIP3    H138117   2.908   6.564   1.093 -0.0167 -1.0494  0.4632
 5542TIP3    H238118   2.853   6.437   1.153 -0.9599 -1.7112 -1.6969
 5543TIP3   OH238119   1.984   5.408  13.364 -0.4964  0.2487 -0.2152
 5543TIP3    H138120   1.983   5.407  13.269  1.3045 -0.3879 -0.2630
 5543TIP3    H238121   1.922   5.478  13.388  0.3456  1.6499 -1.8903
 5544TIP3   OH238122   6.375   4.784   5.748 -0.0692  0.3687 -0.0192
 5544TIP3    H138123   6.465   4.753   5.742 -0.0690  0.2392  0.5748
 5544TIP3    H238124   6.362   4.801   5.841  0.1011  2.7060 -0.3642
 5545TIP3   OH238125   3.813   5.081  10.633 -0.1739  0.2525 -0.1391
 5545TIP3    H138126   3.855   5.004  10.670 -0.4355 -0.1413 -0.6458
 5545TIP3    H238127   3.807   5.063  10.539  1.1657  1.5604 -0.5095
 5546TIP3   OH238128   5.733   3.751   3.701 -0.1704 -0.5263  0.2619
 5546TIP3    H138129   5.645   3.789   3.705 -1.0704 -2.4715  0.0177
 5546TIP3    H238130   5.777   3.784   3.779 -1.3747 -0.1300  0.7934
 5547TIP3   OH238131   6.431   2.479  11.647 -0.2741 -0.3745  0.1034
 5547TIP3    H138132   6.394   2.407  11.596  0.1121 -1.2072  0.9809
 5547TIP3    H238133   6.452   2.441  11.732  2.5722  0.0570 -0.3024
 5548TIP3   OH238134   1.889   3.498   0.925 -0.4717  0.5551  0.3401
 5548TIP3    H138135   1.957   3.527   0.987 -0.0842 -0.8125  0.5909
 5548TIP3    H238136   1.917   3.533   0.841  0.2665  0.4749  0.5380
 5549TIP3   OH238137   1.718   4.380  13.081 -0.0962 -0.6696 -0.1527
 5549TIP3    H138138   1.798   4.351  13.123  0.2361  1.6317  0.9804
 5549TIP3    H238139   1.648   4.335  13.130  0.3825  0.2823  1.4972
 5550TIP3   OH238140   0.971   6.412   3.062  0.0951  0.0929  0.3819
 5550TIP3    H138141   0.940   6.338   3.115  0.5688 -0.5486 -0.2190
 5550TIP3    H238142   0.959   6.488   3.119 -0.3444 -0.4478  1.0390
 5551TIP3   OH238143   1.376   1.099   0.648 -0.1604 -0.6685 -0.3395
 5551TIP3    H138144   1.341   1.091   0.736  1.2106  2.1228  0.5820
 5551TIP3    H238145   1.465   1.064   0.653  0.6680  1.3321  0.0177
 5552TIP3   OH238146   5.617   1.438   0.791 -0.1652 -0.8686  0.4920
 5552TIP3    H138147   5.615   1.379   0.716 -1.1305  0.5191 -0.6411
 5552TIP3    H238148   5.524   1.453   0.813 -0.2252  2.6241 -1.3435
 5553TIP3   OH238149   4.861   0.173   2.693  0.4538 -0.4494 -0.2414
 5553TIP3    H138150   4.940   0.165   2.747  0.5562  1.1117 -0.1332
 5553TIP3    H238151   4.789   0.175   2.756  0.3915 -0.9187 -0.2929
 5554TIP3   OH238152   4.895   0.453   1.920  0.5081 -0.7126 -0.2793
 5554TIP3    H138153   4.954   0.475   1.848  0.4414  1.6552  0.3072
 5554TIP3    H238154   4.950   0.456   1.998 -0.0405 -0.0970  0.0940
 5555TIP3   OH238155   0.853   3.920  13.502 -0.2023  0.5655  0.2535
 5555TIP3    H138156   0.851   3.846  13.442  1.6887  0.4827  0.2204
 5555TIP3    H238157   0.868   3.881  13.588 -2.1497  0.7394  0.7175
 5556TIP3   OH238158   6.305   4.302   5.541  0.3834  0.2472  0.2317
 5556TIP3    H138159   6.380   4.242   5.549 -0.3815 -0.8988 -0.7640
 5556TIP3    H238160   6.344   4.389   5.538  1.6240 -0.2789  0.4220
 5557TIP3   OH238161   2.502   3.774  16.851 -0.1585 -0.2909 -0.6288
 5557TIP3    H138162   2.452   3.789  16.931  0.4417 -0.3258 -0.2452
 5557TIP3    H238163   2.592   3.797  16.873 -0.4014  2.5640 -2.1141
 5558TIP3   OH238164   1.205   4.474   4.172 -0.1359 -0.5953 -0.3316
 5558TIP3    H138165   1.248   4.481   4.257 -0.8638 -1.7628  0.1467
 5558TIP3    H238166   1.194   4.380   4.157  0.3247 -0.4269 -1.8992
 5559TIP3   OH238167   1.063   5.953   2.354  0.0217  0.3235  0.0865
 5559TIP3    H138168   0.971   5.978   2.357 -0.5388 -1.5572 -0.4386
 5559TIP3    H238169   1.102   6.015   2.292 -0.3828  2.4688  1.8306
 5560TIP3   OH238170   6.133   2.958   2.590 -0.0263 -0.2952 -0.2000
 5560TIP3    H138171   6.146   2.898   2.663  0.2806 -1.1049 -0.8992
 5560TIP3    H238172   6.049   2.931   2.552 -0.7115  0.8105  0.4749
 5561TIP3   OH238173   2.890   5.229   1.380  0.3283  0.5867 -0.0012
 5561TIP3    H138174   2.882   5.298   1.445 -0.5489  0.3424  0.1566
 5561TIP3    H238175   2.818   5.244   1.319  0.4842  0.1620 -0.2963
 5562TIP3   OH238176   2.958   0.967   5.031 -0.0796  0.8191  0.0824
 5562TIP3    H138177   2.890   0.955   5.098 -1.0663  0.5468 -0.9196
 5562TIP3    H238178   2.996   1.052   5.050 -0.8508  1.0747  0.5530
 5563TIP3   OH238179   2.183   2.968   6.343  0.0428 -0.1350  0.1908
 5563TIP3    H138180   2.111   2.914   6.310  0.5639 -0.7576  0.0465
 5563TIP3    H238181   2.254   2.951   6.282  0.0534  1.1476 -0.1769
 5564TIP3   OH238182   2.762   0.853   1.249  0.4491 -0.8226 -0.4567
 5564TIP3    H138183   2.794   0.929   1.200  0.3493 -1.2677 -1.2290
 5564TIP3    H238184   2.729   0.794   1.182  0.9464 -1.7550  0.1077
 5565TIP3   OH238185   6.341   6.361   6.476 -0.9164  0.9056 -0.4941
 5565TIP3    H138186   6.401   6.366   6.401 -0.4086  0.2978 -0.1487
 5565TIP3    H238187   6.339   6.450   6.511  3.3924  0.2841  2.1796
 5566TIP3   OH238188   1.847   4.305  13.432 -0.4320 -0.0296 -0.4533
 5566TIP3    H138189   1.828   4.214  13.410 -1.5561  0.1424 -0.2526
 5566TIP3    H238190   1.941   4.307  13.447 -0.2860 -1.0067 -1.1670
 5567TIP3   OH238191   2.265   0.455   1.503  0.1666 -0.1779 -0.2316
 5567TIP3    H138192   2.306   0.371   1.482  1.9983  0.8215 -0.8820
 5567TIP3    H238193   2.324   0.520   1.464 -0.1671  1.4835  1.9050
 5568TIP3   OH238194   2.893   4.504   3.181 -0.2178 -0.0265 -0.1629
 5568TIP3    H138195   2.836   4.553   3.240 -1.3823  0.4550 -1.6314
 5568TIP3    H238196   2.922   4.429   3.233 -0.2712  0.9705  1.3785
 5569TIP3   OH238197   3.283   6.820  15.131 -0.5783 -0.0169 -0.6751
 5569TIP3    H138198   3.239   6.899  15.161  1.3165  0.7196  0.2868
 5569TIP3    H238199   3.370   6.849  15.103 -0.9628 -1.2422 -3.5688
 5570TIP3   OH238200   3.264   0.058   5.744  0.5086  0.0911  0.2443
 5570TIP3    H138201   3.298   0.012   5.667  1.1170 -0.5402  0.8850
 5570TIP3    H238202   3.170   0.036   5.744  0.1859  1.2829 -1.1309
 5571TIP3   OH238203   0.844   6.515  16.900  0.0738  0.0835 -0.4633
 5571TIP3    H138204   0.763   6.505  16.850 -0.1237 -0.5125 -0.0382
 5571TIP3    H238205   0.862   6.609  16.898  0.6475 -0.0247 -2.5245
 5572TIP3   OH238206   6.251   3.834   3.572 -1.1474 -0.0007  0.1947
 5572TIP3    H138207   6.329   3.888   3.561 -0.3407 -1.3807 -1.3005
 5572TIP3    H238208   6.277   3.766   3.634 -1.9074  0.8320  1.4576
 5573TIP3   OH238209   1.145   1.444  12.746 -0.3479 -0.4464 -0.4183
 5573TIP3    H138210   1.176   1.453  12.656 -0.0695  0.0181 -0.2763
 5573TIP3    H238211   1.175   1.523  12.791  0.5816 -1.2414  0.3998
 5574TIP3   OH238212   4.219   2.306  16.169 -0.0674 -0.0807  0.1184
 5574TIP3    H138213   4.293   2.366  16.158 -0.6766  1.0265  1.6169
 5574TIP3    H238214   4.153   2.358  16.216 -0.2601 -2.1692  2.3759
 5575TIP3   OH238215   5.743   2.593  16.031  0.2406  0.0864 -0.1833
 5575TIP3    H138216   5.673   2.528  16.020  0.6209 -0.6605  1.3943
 5575TIP3    H238217   5.705   2.658  16.090  0.2427  0.6914 -0.8495
 5576TIP3   OH238218   2.705   2.341   6.172  0.0716 -0.1534  0.8014
 5576TIP3    H138219   2.690   2.383   6.087  1.2339 -1.1046  0.0878
 5576TIP3    H238220   2.701   2.412   6.235 -1.5485  0.4740  0.0509
 5577TIP3   OH238221   6.408   4.845  11.691 -0.5177  0.0932  0.3647
 5577TIP3    H138222   6.408   4.793  11.611  1.7398 -1.2668  1.1494
 5577TIP3    H238223   6.474   4.912  11.676  1.1155 -1.1563  1.6006
 5578TIP3   OH238224   1.817   3.280  17.016 -0.0694  0.1822  0.0598
 5578TIP3    H138225   1.756   3.265  17.089  0.9587 -0.7627  0.7729
 5578TIP3    H238226   1.862   3.361  17.039 -0.3883  0.3732  0.0118
 5579TIP3   OH238227   4.841   0.294   0.357 -0.3237 -0.4682 -0.1767
 5579TIP3    H138228   4.800   0.210   0.337 -1.3380  0.3503 -1.7863
 5579TIP3    H238229   4.934   0.273   0.371 -0.3516 -1.7412 -1.6114
 5580TIP3   OH238230   0.846   5.466  16.214 -0.3072 -0.9194 -0.6072
 5580TIP3    H138231   0.922   5.468  16.156 -2.0488  1.4740 -3.0366
 5580TIP3    H238232   0.778   5.424  16.162 -1.2463 -1.1158  0.7396
 5581TIP3   OH238233   1.716   3.383   5.402  0.0409 -0.5690  0.2777
 5581TIP3    H138234   1.733   3.371   5.308 -1.0606 -0.0183 -0.0102
 5581TIP3    H238235   1.784   3.443   5.431 -0.6695  0.7270 -0.5974
 5582TIP3   OH238236   5.455   4.351  11.225 -0.1388 -0.3600 -0.4786
 5582TIP3    H138237   5.477   4.342  11.318  0.7438  0.4420 -0.5953
 5582TIP3    H238238   5.401   4.274  11.205  0.1971 -0.8690  0.5320
 5583TIP3   OH238239   0.404   3.023   2.806 -0.1525 -0.0228  0.0503
 5583TIP3    H138240   0.373   2.960   2.741  0.5809 -0.0597 -0.2765
 5583TIP3    H238241   0.440   2.970   2.876 -0.2989  0.0234  0.1600
 5584TIP3   OH238242   3.887   0.580  10.993  0.0201  0.4413 -0.1612
 5584TIP3    H138243   3.887   0.493  10.954  0.4512  0.2756  0.2061
 5584TIP3    H238244   3.933   0.635  10.929  1.7076 -0.0485  0.5585
 5585TIP3   OH238245   4.805   3.339  15.259  0.6588 -0.2319 -0.6268
 5585TIP3    H138246   4.832   3.306  15.174  1.2915  0.8857 -0.8800
 5585TIP3    H238247   4.841   3.276  15.322 -0.9786 -1.8293 -1.2032
 5586TIP3   OH238248   1.525   2.022   2.746  0.5815  0.0551  0.1345
 5586TIP3    H138249   1.511   1.942   2.695 -0.8284  0.2730  0.1329
 5586TIP3    H238250   1.552   1.990   2.832  0.6184 -0.3944 -0.0393
 5587TIP3   OH238251   4.275   4.001   3.794 -0.4759 -0.3323  0.5147
 5587TIP3    H138252   4.232   3.922   3.760 -0.5471 -0.6549  1.3348
 5587TIP3    H238253   4.210   4.070   3.784 -0.6157 -0.4917  0.3022
 5588TIP3   OH238254   3.034   3.965  11.412 -0.3212  0.2682 -0.1295
 5588TIP3    H138255   2.956   3.987  11.359  0.8758  0.3162 -1.9708
 5588TIP3    H238256   3.085   4.046  11.414 -0.9910  0.7028  2.4113
 5589TIP3   OH238257   4.667   4.992  14.737 -0.2463 -0.9543  0.0096
 5589TIP3    H138258   4.673   4.909  14.784  1.1920 -0.7190  0.2936
 5589TIP3    H238259   4.701   4.973  14.650  1.1930 -0.4319  0.4305
 5590TIP3   OH238260   3.599   5.150  15.422 -0.4256 -0.2382 -0.4209
 5590TIP3    H138261   3.517   5.172  15.467  0.4552  2.4628 -0.0141
 5590TIP3    H238262   3.590   5.189  15.335 -0.5974 -2.2517 -1.3648
 5591TIP3   OH238263   5.031   3.613   5.167 -0.3470 -0.3745 -0.1008
 5591TIP3    H138264   5.041   3.628   5.261 -1.5643  0.4023 -0.0748
 5591TIP3    H238265   4.946   3.651   5.146  0.6691  1.0554 -1.8713
 5592TIP3   OH238266   1.532   5.636   4.439 -0.5076  0.5357  0.1631
 5592TIP3    H138267   1.441   5.641   4.466 -0.3136 -1.0515  1.2386
 5592TIP3    H238268   1.529   5.608   4.347 -1.0935  1.9917 -0.2900
 5593TIP3   OH238269   1.427   2.393  15.151  0.4176  0.3163 -0.7170
 5593TIP3    H138270   1.367   2.419  15.221  3.3464  0.8366  1.8290
 5593TIP3    H238271   1.487   2.467  15.142  2.1347 -1.0787 -1.3885
 5594TIP3   OH238272   1.142   5.110   3.174  0.0911 -0.1616 -0.0785
 5594TIP3    H138273   1.229   5.082   3.145 -0.5674 -0.7290 -1.6211
 5594TIP3    H238274   1.101   5.031   3.207 -0.4858 -0.3023 -1.0901
 5595TIP3   OH238275   4.220   6.098  11.686 -0.7398  0.5295 -0.3104
 5595TIP3    H138276   4.309   6.094  11.652 -0.0708 -0.1467  1.4356
 5595TIP3    H238277   4.230   6.122  11.778 -2.3504  0.3569 -0.0598
 5596TIP3   OH238278   1.104   0.182   3.436 -0.1472 -0.3863  0.1952
 5596TIP3    H138279   1.059   0.170   3.520 -1.1483 -0.4197 -0.3250
 5596TIP3    H238280   1.059   0.122   3.376  0.2400 -0.0160 -0.4793
 5597TIP3   OH238281   3.840   4.285  15.667 -0.7679 -0.0493 -0.1045
 5597TIP3    H138282   3.928   4.257  15.642 -0.9646  0.7080 -1.7634
 5597TIP3    H238283   3.854   4.358  15.727 -0.1671  2.0611 -2.6354
 5598TIP3   OH238284   0.592   1.708  13.424  0.0757 -0.3414 -0.1364
 5598TIP3    H138285   0.616   1.759  13.347  0.0142 -0.0719  0.0205
 5598TIP3    H238286   0.499   1.687  13.410 -0.3003  0.8175  0.4678
 5599TIP3   OH238287   6.340   2.711  12.844  0.2776 -0.6630  0.3751
 5599TIP3    H138288   6.355   2.769  12.919 -0.3445 -1.3638  1.0687
 5599TIP3    H238289   6.400   2.638  12.858  0.0024 -0.9022  0.3140
 5600TIP3   OH238290   2.017   6.178   1.354  0.4836 -0.1154 -0.1441
 5600TIP3    H138291   1.951   6.228   1.305  1.1225  0.3383 -0.5604
 5600TIP3    H238292   2.083   6.243   1.378  0.1783 -0.3267  1.3529
 5601TIP3   OH238293   5.073   6.107  12.382  0.3422  0.6296 -0.3768
 5601TIP3    H138294   5.135   6.164  12.428 -0.1056  0.2803  0.6879
 5601TIP3    H238295   5.015   6.074  12.450  0.5132 -1.0095 -0.9835
 5602TIP3   OH238296   5.077   5.645   1.205 -0.4115 -0.0573 -0.3176
 5602TIP3    H138297   5.016   5.592   1.153 -3.3237 -0.1329  2.8632
 5602TIP3    H238298   5.079   5.730   1.161 -2.4970 -0.2142 -0.8111
 5603TIP3   OH238299   2.714   1.943   5.202 -0.4970 -0.0822  0.1647
 5603TIP3    H138300   2.678   2.006   5.264  1.1891  1.9448 -0.7595
 5603TIP3    H238301   2.728   1.994   5.122  0.0866 -1.8843 -0.9456
 5604TIP3   OH238302   5.389   2.207   1.106  0.6019  0.3316 -0.3114
 5604TIP3    H138303   5.422   2.124   1.141  0.5096  1.0194  1.5039
 5604TIP3    H238304   5.446   2.226   1.031  1.5642 -0.6249  0.1511
 5605TIP3   OH238305   5.231   6.165  12.949 -0.2619  0.0283 -0.5385
 5605TIP3    H138306   5.183   6.211  13.018  0.7512  0.6712 -0.2477
 5605TIP3    H238307   5.309   6.132  12.992 -0.1915 -0.5878 -1.1229
 5606TIP3   OH238308   5.010   6.684   2.685  0.0358 -0.3626  0.7180
 5606TIP3    H138309   5.043   6.599   2.713  0.9773  0.4310  2.1207
 5606TIP3    H238310   4.933   6.700   2.740  0.7435  0.3268  1.5507
 5607TIP3   OH238311   2.847   1.056  13.803  0.0891 -0.2153  0.4302
 5607TIP3    H138312   2.812   1.000  13.735  1.7872  0.3824 -1.0077
 5607TIP3    H238313   2.803   1.140  13.790  0.4911 -0.0696 -0.0312
 5608TIP3   OH238314   3.290   0.034   2.558 -0.0536  0.5355 -0.5028
 5608TIP3    H138315   3.371   0.060   2.514  1.2750  0.3308  1.6844
 5608TIP3    H238316   3.304  -0.058   2.583  0.1908  1.2192  2.1834
 5609TIP3   OH238317   3.519   1.422  14.068  0.6976 -0.1331  0.0927
 5609TIP3    H138318   3.611   1.416  14.043  0.6965 -0.3290  0.1356
 5609TIP3    H238319   3.493   1.510  14.042  1.3296  0.5142  1.5533
 5610TIP3   OH238320   0.098   3.448   1.048  0.2712 -0.3046  0.0376
 5610TIP3    H138321   0.133   3.364   1.077  0.8920  0.4212  1.4560
 5610TIP3    H238322   0.136   3.512   1.107 -2.1575  0.7277  0.6245
 5611TIP3   OH238323   1.595   1.448  13.945 -0.0545 -0.1531 -0.2744
 5611TIP3    H138324   1.506   1.437  13.977 -0.2554  0.3631 -0.6597
 5611TIP3    H238325   1.641   1.370  13.977 -0.9592 -1.1011 -1.1941
 5612TIP3   OH238326   1.756   3.171  12.233  0.4522 -0.6398 -0.8082
 5612TIP3    H138327   1.730   3.261  12.213 -0.4465 -1.2565 -2.6321
 5612TIP3    H238328   1.837   3.158  12.183  0.3597 -0.9721 -0.8707
 5613TIP3   OH238329   5.255   5.389  11.570  0.1713  0.1435  0.9330
 5613TIP3    H138330   5.318   5.326  11.605  0.3918 -1.2778 -1.7601
 5613TIP3    H238331   5.308   5.448  11.515 -0.6122 -0.0946 -0.0988
 5614TIP3   OH238332   4.296   1.311   2.286 -0.4306  0.1595 -0.5141
 5614TIP3    H138333   4.252   1.227   2.298  0.0058  0.0599  0.5167
 5614TIP3    H238334   4.356   1.297   2.213  0.7308 -0.8972  0.5873
 5615TIP3   OH238335   6.400   5.875   1.935  0.3344  0.3035  0.1515
 5615TIP3    H138336   6.474   5.814   1.930 -0.0198 -0.1887  0.8836
 5615TIP3    H238337   6.422   5.934   2.007  0.2476  0.4703  0.0416
 5616TIP3   OH238338   4.589   1.816  13.380  0.0793 -0.1643  0.4848
 5616TIP3    H138339   4.631   1.745  13.430 -0.6304 -1.1092 -0.2206
 5616TIP3    H238340   4.551   1.873  13.447  0.4744 -0.5630  1.0609
 5617TIP3   OH238341   1.889   6.427  14.886  0.2488 -0.5067  0.5323
 5617TIP3    H138342   1.933   6.353  14.845 -0.1257 -0.1021 -0.6441
 5617TIP3    H238343   1.956   6.495  14.891 -0.0519 -0.0879 -0.7237
 5618TIP3   OH238344   1.665   1.437  15.740  0.1825  0.0350 -0.2034
 5618TIP3    H138345   1.726   1.506  15.713  0.8267 -0.3540  0.2117
 5618TIP3    H238346   1.674   1.432  15.835  0.6584 -1.0650 -0.2851
 5619TIP3   OH238347   2.590   4.408   5.658 -0.3792  0.2140 -0.0284
 5619TIP3    H138348   2.545   4.489   5.634 -0.7492 -0.1687 -0.6478
 5619TIP3    H238349   2.681   4.434   5.672 -0.3029  0.5872 -1.1254
 5620TIP3   OH238350   5.998   0.942  12.193 -0.2449  0.0827 -0.3004
 5620TIP3    H138351   5.968   1.032  12.196  0.5655  0.4039 -1.3203
 5620TIP3    H238352   6.060   0.939  12.120  1.0140 -0.8965  0.7419
 5621TIP3   OH238353   4.145   4.697   1.684 -0.3786  0.7128  0.4060
 5621TIP3    H138354   4.164   4.689   1.591 -1.1764  1.7225  0.1305
 5621TIP3    H238355   4.142   4.607   1.717 -1.6273  0.2507 -0.8775
 5622TIP3   OH238356   5.630   5.370  10.768  0.5254  0.4435 -0.4685
 5622TIP3    H138357   5.680   5.303  10.721  1.2063 -0.2220  1.1484
 5622TIP3    H238358   5.582   5.416  10.699  0.5461 -1.2769 -1.6974
 5623TIP3   OH238359   0.992   1.595   4.862 -0.2920 -0.3124 -0.0041
 5623TIP3    H138360   1.050   1.582   4.787  0.6028 -0.9964  0.7767
 5623TIP3    H238361   1.049   1.584   4.938 -1.0983  0.7640  0.7811
 5624TIP3   OH238362   1.461   0.658  12.563  0.2779 -0.1732  0.1183
 5624TIP3    H138363   1.470   0.659  12.658 -2.3439  2.4641  0.4875
 5624TIP3    H238364   1.508   0.735  12.533 -1.4912  0.8167 -0.2818
 5625TIP3   OH238365   0.944   4.759  13.804 -0.0598 -0.4119  0.1914
 5625TIP3    H138366   0.885   4.809  13.748  0.7504  0.1162 -0.2069
 5625TIP3    H238367   1.032   4.782  13.773  0.3628 -1.0332  0.8997
 5626TIP3   OH238368   5.739   2.681   6.464  0.2061 -0.3495  0.1790
 5626TIP3    H138369   5.738   2.585   6.464  1.1629 -0.3669  0.0408
 5626TIP3    H238370   5.687   2.706   6.540 -0.2241 -0.9732  0.0974
 5627TIP3   OH238371   4.422   3.319  12.278  0.3080  0.0714 -0.1055
 5627TIP3    H138372   4.346   3.279  12.321 -1.0460  1.0354 -1.4923
 5627TIP3    H238373   4.465   3.246  12.233 -0.0459 -0.4217  0.3446
 5628TIP3   OH238374   3.539   2.670   4.261  0.3163 -0.5207  0.3768
 5628TIP3    H138375   3.474   2.599   4.266 -0.2667  0.0389  0.9583
 5628TIP3    H238376   3.618   2.633   4.300  0.3982 -1.2489 -0.4380
 5629TIP3   OH238377   2.606   1.722   6.401  0.4860 -0.7351 -0.4782
 5629TIP3    H138378   2.676   1.764   6.451  1.7975 -0.5904 -2.2959
 5629TIP3    H238379   2.595   1.637   6.442  1.6179 -0.6874 -0.0405
 5630TIP3   OH238380   1.931   3.898  15.638  0.0212  0.5406 -0.1068
 5630TIP3    H138381   1.893   3.986  15.641 -0.6516  0.2576 -0.2773
 5630TIP3    H238382   1.886   3.850  15.708  0.7378  0.4672  0.3122
 5631TIP3   OH238383   1.498   2.425  16.748  0.0511 -0.2782 -0.6682
 5631TIP3    H138384   1.493   2.490  16.678 -1.6671  0.7190  0.3174
 5631TIP3    H238385   1.587   2.435  16.783 -0.4309  2.2090  0.0270
 5632TIP3   OH238386   3.623   5.278   4.835 -1.1375  0.1317  0.1929
 5632TIP3    H138387   3.677   5.276   4.756 -0.5464  0.7130  0.5642
 5632TIP3    H238388   3.574   5.360   4.828 -1.0451  0.2116  0.4422
 5633TIP3   OH238389   1.409   1.921   4.828  0.4164  0.2134  0.2039
 5633TIP3    H138390   1.395   1.839   4.779 -0.6768  0.9190 -0.7137
 5633TIP3    H238391   1.408   1.894   4.920 -0.8816 -0.6949 -0.0399
 5634TIP3   OH238392   2.558   4.288  11.674  0.3097 -0.1984 -0.8897
 5634TIP3    H138393   2.536   4.350  11.604 -1.1200  0.9666  0.5216
 5634TIP3    H238394   2.473   4.262  11.711  1.0601  0.4852  1.4627
 5635TIP3   OH238395   0.298   6.824   5.248  0.0124  0.4102 -0.2014
 5635TIP3    H138396   0.385   6.821   5.209  0.1558  2.9194 -0.2325
 5635TIP3    H238397   0.265   6.912   5.229 -1.2371  0.6524  2.4919
 5636TIP3   OH238398   6.805   1.271   5.742 -0.7179  0.4330 -0.3915
 5636TIP3    H138399   6.729   1.313   5.783  0.0939  0.9556  0.6181
 5636TIP3    H238400   6.876   1.334   5.751  0.4611 -0.9880  0.8993
 5637TIP3   OH238401   5.510   0.289  10.978 -0.1237  0.1299 -0.1349
 5637TIP3    H138402   5.496   0.376  10.941 -1.0124 -0.0458 -0.2185
 5637TIP3    H238403   5.438   0.236  10.945  1.1086 -0.9991 -1.1512
 5638TIP3   OH238404   1.535   6.082  16.581  0.1245  0.0336  0.1635
 5638TIP3    H138405   1.456   6.098  16.530 -0.9012 -0.7848  1.4193
 5638TIP3    H238406   1.574   6.003  16.543 -0.0211  0.0635 -0.0443
 5639TIP3   OH238407   5.753   1.381   5.761 -0.0376 -0.0198 -0.1630
 5639TIP3    H138408   5.666   1.422   5.771  0.5470  0.9355  1.4221
 5639TIP3    H238409   5.735   1.287   5.761 -0.9545  0.0858  2.2079
 5640TIP3   OH238410   4.490   1.403   2.457  0.0179 -0.2868  0.1455
 5640TIP3    H138411   4.421   1.390   2.392 -0.1810 -0.1340  0.3273
 5640TIP3    H238412   4.461   1.479   2.508  0.1827 -0.3982  0.4033
 5641TIP3   OH238413   1.229   1.994  13.614 -0.2483 -0.7114 -0.4068
 5641TIP3    H138414   1.180   2.055  13.559  1.6330  0.7183 -0.6026
 5641TIP3    H238415   1.299   1.962  13.557  2.7551  2.0321  1.3540
 5642TIP3   OH238416   2.942   2.317   3.016 -0.4668  0.4570 -0.1363
 5642TIP3    H138417   2.886   2.340   2.942  0.0394 -0.2072 -0.7424
 5642TIP3    H238418   3.003   2.391   3.023  1.9619 -1.0713 -2.8692
 5643TIP3   OH238419   4.803   0.322   4.768  0.3171 -0.7020  1.1608
 5643TIP3    H138420   4.788   0.312   4.674 -0.0112 -0.3028  1.1675
 5643TIP3    H238421   4.716   0.344   4.804  0.8266  1.3910  1.2482
 5644TIP3   OH238422   2.066   3.739   2.993 -0.1359  0.0970  0.3176
 5644TIP3    H138423   2.054   3.657   2.945 -0.4571  0.0617  0.4502
 5644TIP3    H238424   2.120   3.716   3.068 -0.9413 -0.1817  0.8282
 5645TIP3   OH238425   0.042   1.652   5.860  0.4881  0.2822  0.3762
 5645TIP3    H138426   0.016   1.655   5.768  0.3195  0.4984  0.4293
 5645TIP3    H238427   0.093   1.571   5.868  0.0932  0.0111  0.2001
 5646TIP3   OH238428   0.489   0.144  14.343 -0.1381 -0.4596 -0.0475
 5646TIP3    H138429   0.504   0.117  14.253 -0.6244  0.7819 -0.5229
 5646TIP3    H238430   0.535   0.228  14.352  1.1039 -1.2377  1.2965
 5647TIP3   OH238431   4.922   0.000  14.313  0.0723 -0.0441  0.1660
 5647TIP3    H138432   4.954   0.090  14.316  0.4280 -0.0268 -2.3676
 5647TIP3    H238433   4.991  -0.049  14.271 -1.6610 -0.7023 -2.1104
 5648TIP3   OH238434   0.672   5.953  12.983  0.1335  0.6986  0.3832
 5648TIP3    H138435   0.743   6.016  12.976  1.5096 -0.8278  0.1582
 5648TIP3    H238436   0.633   5.950  12.896 -0.0877  1.3932  0.4555
 5649TIP3   OH238437   2.069   0.333   3.447 -0.2671 -0.1385 -0.1497
 5649TIP3    H138438   2.049   0.357   3.537  1.0397  0.9235 -0.1185
 5649TIP3    H238439   2.094   0.240   3.451 -1.8418 -0.5749  0.2902
 5650TIP3   OH238440   3.788   4.679   4.504  0.5492 -0.0368 -0.1332
 5650TIP3    H138441   3.871   4.672   4.550  1.1383  0.8450 -1.0305
 5650TIP3    H238442   3.801   4.630   4.422  0.3090  0.4071 -0.4395
 5651TIP3   OH238443   4.606   5.840   5.326 -0.3815 -0.6896 -0.5474
 5651TIP3    H138444   4.510   5.840   5.316 -0.2744 -0.9052 -1.6339
 5651TIP3    H238445   4.639   5.861   5.239  0.6247 -3.7752 -1.0317
 5652TIP3   OH238446   5.049   4.574   0.724 -0.2071  0.4139 -0.2030
 5652TIP3    H138447   5.042   4.669   0.716 -0.8027  0.2604 -1.8682
 5652TIP3    H238448   4.995   4.540   0.653 -0.0225 -1.1798  0.3836
 5653TIP3   OH238449   0.573   5.432  11.470 -0.1626 -0.0273  0.3026
 5653TIP3    H138450   0.646   5.487  11.441 -0.6959  0.1000 -0.8695
 5653TIP3    H238451   0.535   5.398  11.389  1.9751 -4.6795  0.9532
 5654TIP3   OH238452   1.260   2.818   1.809 -0.0969  0.0597  0.2733
 5654TIP3    H138453   1.326   2.759   1.772  0.2338  1.7528 -2.0292
 5654TIP3    H238454   1.310   2.885   1.854 -0.4377 -0.6695  1.8076
 5655TIP3   OH238455   2.621   2.786  14.924  0.0279 -0.2341 -0.5223
 5655TIP3    H138456   2.595   2.787  15.016 -1.8100  1.6372 -0.9869
 5655TIP3    H238457   2.694   2.847  14.919  1.1002 -1.4375 -0.1076
 5656TIP3   OH238458   2.969   4.473   0.061  0.2201 -0.0854  0.1316
 5656TIP3    H138459   3.051   4.428   0.083  1.0335  0.3524 -1.8233
 5656TIP3    H238460   2.995   4.563   0.042 -0.4597 -0.2602 -1.8504
 5657TIP3   OH238461   3.761   2.932   1.873  0.1621 -0.7027 -0.0524
 5657TIP3    H138462   3.711   2.994   1.925  0.8791 -0.1815  0.0363
 5657TIP3    H238463   3.850   2.937   1.909  1.1272  1.0336 -2.4669
 5658TIP3   OH238464   6.836   2.737  16.179 -0.2660 -0.3595 -0.7687
 5658TIP3    H138465   6.883   2.708  16.101  0.8680  0.2102 -0.3149
 5658TIP3    H238466   6.893   2.802  16.219 -1.5302  0.4978 -0.2905
 5659TIP3   OH238467   1.131   4.390   4.838  0.1446  0.3901 -1.0993
 5659TIP3    H138468   1.175   4.441   4.770 -0.5571  0.6718 -1.3561
 5659TIP3    H238469   1.113   4.453   4.908  2.3941 -0.2305  0.1594
 5660TIP3   OH238470   2.701   6.073  12.695 -0.5133  0.5903  0.2791
 5660TIP3    H138471   2.730   6.069  12.786  1.1113  0.5923 -0.2066
 5660TIP3    H238472   2.606   6.078  12.700 -0.4709  0.1655  1.9592
 5661TIP3   OH238473   1.528   3.143  15.720  0.0072  0.1467 -0.8308
 5661TIP3    H138474   1.510   3.165  15.812  0.4952  2.0709 -1.1537
 5661TIP3    H238475   1.444   3.113  15.686  0.0503 -1.6136  0.4836
 5662TIP3   OH238476   6.032   3.317   1.925 -0.0480  0.4547  0.1799
 5662TIP3    H138477   6.082   3.273   1.856 -0.9443  2.4966 -1.9056
 5662TIP3    H238478   6.096   3.335   1.993  0.7601 -2.0912  0.2175
 5663TIP3   OH238479   5.392   6.513  14.431  0.4025  0.3708  0.2497
 5663TIP3    H138480   5.415   6.429  14.390 -1.6753 -1.0859  1.8931
 5663TIP3    H238481   5.409   6.499  14.524 -1.2914  1.2609  0.7226
 5664TIP3   OH238482   5.677   5.986  16.362  0.0612 -0.5794  0.1088
 5664TIP3    H138483   5.648   5.992  16.452  0.1726 -1.2734  0.1924
 5664TIP3    H238484   5.607   6.026  16.311 -1.0812 -2.2586  0.2985
 5665TIP3   OH238485   2.965   0.258   2.233 -0.1420 -0.4397 -0.2429
 5665TIP3    H138486   2.998   0.213   2.311  0.0966  0.1049 -0.0291
 5665TIP3    H238487   2.878   0.219   2.219 -1.3173  1.2148  1.8190
 5666TIP3   OH238488   4.067   3.762  10.939 -0.2746  0.1539 -0.3248
 5666TIP3    H138489   4.147   3.716  10.963  0.1407 -0.6385 -2.8850
 5666TIP3    H238490   4.038   3.805  11.020  1.6010 -1.1966  1.1437
 5667TIP3   OH238491   1.198   1.672   3.125  0.1649 -0.0444  0.4892
 5667TIP3    H138492   1.278   1.687   3.176  1.7327  1.9310 -2.2870
 5667TIP3    H238493   1.176   1.757   3.089 -3.7132 -0.3906  1.6592
 5668TIP3   OH238494   1.741   2.060   4.542  0.7587 -0.2790 -0.2440
 5668TIP3    H138495   1.746   2.102   4.456 -1.7084  1.0318  0.1681
 5668TIP3    H238496   1.826   2.078   4.582  0.7829  1.9854 -1.1789
 5669TIP3   OH238497   2.106   5.713   0.056 -0.5025  0.3837  0.3676
 5669TIP3    H138498   2.159   5.760   0.121 -0.1354 -1.0131  1.1316
 5669TIP3    H238499   2.090   5.777  -0.013  1.4780  1.1144  0.5139
 5670TIP3   OH238500   2.161   3.820   2.285 -0.0083  0.4580  0.3150
 5670TIP3    H138501   2.239   3.865   2.315 -0.0753  0.1740  0.9255
 5670TIP3    H238502   2.160   3.833   2.190  1.2505 -0.2811  0.1863
 5671TIP3   OH238503   4.047   3.784   2.367 -0.4410 -0.2573 -0.1303
 5671TIP3    H138504   4.097   3.775   2.286  0.1919 -0.3843  0.2636
 5671TIP3    H238505   4.113   3.805   2.433 -0.8409 -0.9897  0.5131
 5672TIP3   OH238506   1.343   5.230   2.575  0.2741  0.3491 -0.7142
 5672TIP3    H138507   1.266   5.229   2.631 -0.3754 -1.8773 -1.5737
 5672TIP3    H238508   1.353   5.322   2.551 -0.8833  0.9864  1.0210
 5673TIP3   OH238509   5.019   1.660   3.186 -0.4384  0.1881  0.3177
 5673TIP3    H138510   4.923   1.661   3.187 -0.4842  0.8184 -1.5165
 5673TIP3    H238511   5.043   1.749   3.161  0.5912 -0.2504 -0.2956
 5674TIP3   OH238512   3.592   0.084   1.734  0.1136 -0.3805 -0.9060
 5674TIP3    H138513   3.647   0.042   1.801 -0.6623 -1.5362 -0.9599
 5674TIP3    H238514   3.630   0.171   1.723  1.2852 -0.7746 -0.1859
 5675TIP3   OH238515   3.946   6.535  15.453  0.2910 -0.6038  0.1246
 5675TIP3    H138516   3.977   6.539  15.544 -0.5474  2.0412  0.3795
 5675TIP3    H238517   3.850   6.529  15.461 -0.0196  2.3406 -0.4744
 5676TIP3   OH238518   2.068   5.446  15.738  0.3714 -0.0540  0.4445
 5676TIP3    H138519   2.138   5.381  15.732  0.1937 -0.5158  2.4924
 5676TIP3    H238520   2.010   5.412  15.806 -1.8439  0.3524 -1.1354
 5677TIP3   OH238521   5.578   3.363   3.156  0.2916 -0.3967  0.0294
 5677TIP3    H138522   5.532   3.372   3.239 -1.6310 -1.6227 -0.8110
 5677TIP3    H238523   5.531   3.422   3.096  0.5874 -0.7539 -0.5668
 5678TIP3   OH238524   5.260   5.668  10.559 -0.0196  0.2118 -0.2105
 5678TIP3    H138525   5.197   5.710  10.501 -0.9327 -0.2468  0.4255
 5678TIP3    H238526   5.289   5.738  10.618  0.2373  0.4725 -0.6456
 5679TIP3   OH238527   4.605   2.709   3.389 -0.2903  0.1150  0.2791
 5679TIP3    H138528   4.625   2.679   3.477 -2.6440  0.5367  1.0161
 5679TIP3    H238529   4.578   2.630   3.342  0.7060 -0.0643 -0.0250
 5680TIP3   OH238530   5.799   6.026  16.823 -0.4260 -0.1475 -0.5570
 5680TIP3    H138531   5.759   6.110  16.801 -0.8238 -0.1899 -0.0249
 5680TIP3    H238532   5.803   6.026  16.919 -1.1978 -1.0816 -0.5143
 5681TIP3   OH238533   2.776   6.504   2.575  0.0158  0.6976  0.7622
 5681TIP3    H138534   2.779   6.424   2.523 -3.7092  0.2233  1.0095
 5681TIP3    H238535   2.822   6.482   2.656  0.8490 -0.4670 -0.0022
 5682TIP3   OH238536   4.621   0.825  16.094 -0.4301 -0.6445  0.3029
 5682TIP3    H138537   4.545   0.872  16.127 -1.3070 -0.7374 -1.4898
 5682TIP3    H238538   4.601   0.733  16.111  0.3433 -0.5740  1.8687
 5683TIP3   OH238539   5.335   0.395   0.587  0.2890  0.1994  0.2197
 5683TIP3    H138540   5.398   0.439   0.645 -0.1518 -0.6242  1.3679
 5683TIP3    H238541   5.349   0.302   0.604  0.9082 -0.1245 -1.8454
 5684TIP3   OH238542   1.905   4.160  13.194 -0.1303  0.6576  0.4015
 5684TIP3    H138543   1.857   4.134  13.116 -1.4069  1.8545  0.7483
 5684TIP3    H238544   1.970   4.090  13.207  0.1038  0.4422 -1.6926
 5685TIP3   OH238545   0.563   4.250   1.585  0.2854  0.3480 -0.0974
 5685TIP3    H138546   0.589   4.322   1.528 -0.6400  0.0082 -0.9699
 5685TIP3    H238547   0.621   4.258   1.661  0.7745  1.4862 -0.5656
 5686TIP3   OH238548   1.167   5.175  14.907 -0.4171  0.6147 -0.3810
 5686TIP3    H138549   1.209   5.172  14.821  0.9901 -0.2172  0.3160
 5686TIP3    H238550   1.092   5.116  14.899 -1.1256  1.6037 -1.4314
 5687TIP3   OH238551   1.707   3.698  12.352 -0.2574 -0.0183  0.0556
 5687TIP3    H138552   1.689   3.790  12.374  1.4382  0.5981 -0.9192
 5687TIP3    H238553   1.792   3.680  12.394 -0.0449 -0.7894 -0.6884
 5688TIP3   OH238554   0.613   5.177  16.590 -0.1852  0.5486  0.2414
 5688TIP3    H138555   0.629   5.248  16.653  1.9218  0.7446 -0.4450
 5688TIP3    H238556   0.681   5.188  16.524 -0.8120 -1.1705 -0.7483
 5689TIP3   OH238557   4.559   0.993  16.346 -0.3540  0.3624  0.0717
 5689TIP3    H138558   4.534   1.017  16.435  0.1041 -0.6451  0.4931
 5689TIP3    H238559   4.627   1.055  16.322 -0.3384  0.5145  0.5016
 5690TIP3   OH238560   2.856   0.520  10.677  0.5866  0.8363 -0.3617
 5690TIP3    H138561   2.770   0.512  10.636  0.3989 -2.1115  0.4039
 5690TIP3    H238562   2.908   0.450  10.638  2.7952  2.6659 -0.9755
 5691TIP3   OH238563   0.035   3.940   5.935 -0.4678  0.8391 -0.0844
 5691TIP3    H138564   0.078   3.994   6.001  2.6243  0.5603 -1.7004
 5691TIP3    H238565  -0.002   3.867   5.984  2.3225  0.2749  1.3691
 5692TIP3   OH238566   6.081   0.585  12.801 -0.2430 -0.0263  0.1436
 5692TIP3    H138567   5.994   0.619  12.822  0.3373 -1.0105  5.8853
 5692TIP3    H238568   6.072   0.490  12.807  0.8407 -0.2923 -1.6598
 5693TIP3   OH238569   5.247   0.113  12.212  0.1054  0.0797  0.2023
 5693TIP3    H138570   5.223   0.054  12.141 -1.5724 -0.5087  1.2092
 5693TIP3    H238571   5.188   0.188  12.202  0.3944  0.3538  0.5125
 5694TIP3   OH238572   6.572   5.075  12.031  0.1991  0.2814  0.1072
 5694TIP3    H138573   6.492   5.114  11.997 -0.6024 -0.9709  0.5087
 5694TIP3    H238574   6.589   5.000  11.974  0.2112 -0.3736  0.9511
 5695TIP3   OH238575   3.083   1.189  13.575 -0.7673 -0.2142 -0.1057
 5695TIP3    H138576   3.083   1.246  13.652  0.7706 -0.9915  0.5186
 5695TIP3    H238577   3.167   1.144  13.579 -0.9537 -0.8000 -1.8713
 5696TIP3   OH238578   1.300   6.137   3.500  0.1408  0.6611  0.4144
 5696TIP3    H138579   1.236   6.206   3.480 -2.1601 -0.9337  1.7854
 5696TIP3    H238580   1.322   6.100   3.415 -1.3539  0.7906 -0.0614
 5697TIP3   OH238581   2.389   4.954   3.853  0.3229 -0.1521  0.2055
 5697TIP3    H138582   2.391   4.902   3.933  1.4336  0.4107  0.5510
 5697TIP3    H238583   2.428   4.897   3.786  1.2405  0.1142  0.5117
 5698TIP3   OH238584   1.760   3.969  14.242 -0.0676 -0.2523  0.1376
 5698TIP3    H138585   1.669   3.982  14.214  0.2924  0.4456 -0.7921
 5698TIP3    H238586   1.770   4.025  14.319 -0.3273 -0.0502  0.0239
 5699TIP3   OH238587   0.104   0.688   2.728 -0.3365  0.3499  0.3775
 5699TIP3    H138588   0.125   0.764   2.782 -0.7658  0.9675 -0.2972
 5699TIP3    H238589   0.010   0.695   2.712 -0.9823 -1.8063  2.5128
 5700TIP3   OH238590   1.983   5.360   2.402  0.2849  0.4807 -0.0809
 5700TIP3    H138591   2.023   5.285   2.446 -0.7738 -2.0727 -3.0126
 5700TIP3    H238592   2.051   5.393   2.344  0.1335  0.3944 -0.3118
 5701TIP3   OH238593   4.075   5.961  11.069  0.8183 -0.1318 -0.0933
 5701TIP3    H138594   4.120   5.975  11.152  0.9170  0.0931 -0.1825
 5701TIP3    H238595   4.143   5.926  11.011  0.4722 -1.4299  0.2524
 5702TIP3   OH238596   4.254   4.184  14.970 -0.2947 -0.1850  0.2726
 5702TIP3    H138597   4.312   4.257  14.994 -0.2403 -0.5994  1.5298
 5702TIP3    H238598   4.177   4.225  14.932 -0.0843  0.5132  0.5823
 5703TIP3   OH238599   3.328   0.537   4.734 -0.7192 -0.2678 -0.3756
 5703TIP3    H138600   3.306   0.592   4.659 -0.2182 -0.6166 -0.7876
 5703TIP3    H238601   3.400   0.582   4.777 -0.4061 -0.5234 -0.6285
 5704TIP3   OH238602   0.306   5.448  14.562 -0.6122 -0.7367  0.3383
 5704TIP3    H138603   0.270   5.475  14.477 -1.6304 -1.5363  0.4834
 5704TIP3    H238604   0.392   5.488  14.566 -0.9965  0.2389 -0.5902
 5705TIP3   OH238605   0.758   2.062  12.077  0.0887  0.5475  0.3066
 5705TIP3    H138606   0.708   2.015  12.144  0.8817  0.5650  0.9289
 5705TIP3    H238607   0.826   2.001  12.050  0.6501  1.0448  0.5594
 5706TIP3   OH238608   4.090   6.730  14.411  0.1555  0.2756 -0.0412
 5706TIP3    H138609   4.104   6.681  14.492 -0.0095  0.3459  0.0304
 5706TIP3    H238610   4.173   6.774  14.394 -0.0414  0.8527  0.4847
 5707TIP3   OH238611   2.667   0.157   6.447  0.0505  0.1744  0.4668
 5707TIP3    H138612   2.676   0.249   6.470 -1.4520  0.8030 -1.2172
 5707TIP3    H238613   2.741   0.138   6.389  0.7671  0.0873  1.3853
 5708TIP3   OH238614   5.926   0.626   4.335 -0.1299  0.8042 -0.1347
 5708TIP3    H138615   5.918   0.576   4.254  1.5353  2.1033 -1.1591
 5708TIP3    H238616   5.940   0.716   4.307  1.1542  1.1900  1.5675
 5709TIP3   OH238617   3.077   5.584  13.643  0.2406  0.1362  0.0091
 5709TIP3    H138618   3.104   5.635  13.567 -0.5155 -0.1076 -0.4368
 5709TIP3    H238619   3.092   5.642  13.718  0.4277  0.5961 -0.3805
 5710TIP3   OH238620   4.299   5.850   5.808 -0.7097  0.5546  0.4880
 5710TIP3    H138621   4.317   5.923   5.750  0.4673 -1.0460 -1.2722
 5710TIP3    H238622   4.224   5.805   5.768  0.8011 -1.1984 -0.5494
 5711TIP3   OH238623   2.511   2.617   2.881  0.1465  0.3913 -0.4209
 5711TIP3    H138624   2.436   2.614   2.941 -0.6182 -0.2150 -1.3567
 5711TIP3    H238625   2.580   2.661   2.929 -0.8110  0.9222  0.4916
 5712TIP3   OH238626   2.417   1.713   1.700  0.3786  0.7213  0.7339
 5712TIP3    H138627   2.404   1.807   1.686  0.3342  1.2082  3.5090
 5712TIP3    H238628   2.423   1.703   1.795  3.7098 -1.6426  0.4762
 5713TIP3   OH238629   0.538   2.169   4.024 -0.2006 -0.3485 -0.1114
 5713TIP3    H138630   0.543   2.118   4.105  2.8633 -0.6578 -0.3807
 5713TIP3    H238631   0.494   2.111   3.962 -2.4574 -0.1688  1.1934
 5714TIP3   OH238632   6.410   3.943   0.942 -0.6387 -0.4465  0.2042
 5714TIP3    H138633   6.382   3.855   0.964 -0.2782 -0.4426  0.7130
 5714TIP3    H238634   6.500   3.933   0.911 -0.5522 -0.2469  0.3862
 5715TIP3   OH238635   6.440   4.016   5.639 -0.3195  0.0072 -0.2206
 5715TIP3    H138636   6.423   4.003   5.732 -1.9091 -0.9474 -0.6140
 5715TIP3    H238637   6.518   4.071   5.637  0.1111 -0.4513  1.6649
 5716TIP3   OH238638   5.547   5.160  14.897  0.5429 -0.7907 -0.4897
 5716TIP3    H138639   5.478   5.158  14.963  0.2477 -0.9705 -0.7912
 5716TIP3    H238640   5.617   5.106  14.933  1.1386  0.5794  0.4513
 5717TIP3   OH238641   3.731   1.146   3.005  0.0285  0.0568  0.0256
 5717TIP3    H138642   3.798   1.190   3.058 -1.1040 -0.7655  2.2484
 5717TIP3    H238643   3.781   1.098   2.939  1.5206  0.9638  0.4489
 5718TIP3   OH238644   3.869   2.842   2.204  0.3351 -0.5227 -0.2579
 5718TIP3    H138645   3.844   2.888   2.284 -0.7912  0.9231 -1.3705
 5718TIP3    H238646   3.802   2.867   2.141  2.6297  0.5682 -2.4237
 5719TIP3   OH238647   2.559   2.679   0.962  0.1380  0.7294 -0.0972
 5719TIP3    H138648   2.567   2.773   0.948  0.7933  0.7397  0.3185
 5719TIP3    H238649   2.648   2.645   0.955  0.0315  0.2654  0.6176
 5720TIP3   OH238650   1.679   1.876  13.834  0.4873  0.2071  0.0133
 5720TIP3    H138651   1.730   1.952  13.862  1.5697 -0.1277 -0.9614
 5720TIP3    H238652   1.682   1.816  13.908 -0.0631  0.9592  0.6538
 5721TIP3   OH238653   2.870   3.468  15.226 -0.2589 -0.4881 -0.0773
 5721TIP3    H138654   2.892   3.394  15.169 -0.8014  0.0706 -1.0480
 5721TIP3    H238655   2.799   3.435  15.281 -0.3555 -0.7588 -0.3568
 5722TIP3   OH238656   0.760   2.474  13.989 -0.4316  0.3985  0.7684
 5722TIP3    H138657   0.831   2.422  14.027  0.1693  0.1802 -0.6005
 5722TIP3    H238658   0.707   2.410  13.941 -0.2194  0.8930 -0.1494
 5723TIP3   OH238659   4.740   0.426  14.657  0.0615 -0.8649  0.1002
 5723TIP3    H138660   4.689   0.348  14.681 -0.2214 -1.0294 -0.9884
 5723TIP3    H238661   4.811   0.428  14.721 -1.1645 -0.7558  1.5198
 5724TIP3   OH238662   3.801   3.000   2.427 -0.4943 -0.0251  0.1238
 5724TIP3    H138663   3.789   3.057   2.503 -0.1471 -0.6536  0.6585
 5724TIP3    H238664   3.713   2.977   2.400 -0.6115 -0.1919  0.6387
 5725TIP3   OH238665   4.236   5.718  13.888  0.3527 -0.1546  0.1801
 5725TIP3    H138666   4.166   5.693  13.827 -1.2239  0.4386  1.6954
 5725TIP3    H238667   4.274   5.634  13.916 -0.5623 -0.5450  0.2790
 5726TIP3   OH238668   3.976   4.055   2.158 -0.4857 -0.8833  0.1527
 5726TIP3    H138669   4.023   3.989   2.107  0.7557  1.0873 -1.3744
 5726TIP3    H238670   4.034   4.075   2.231  0.0566 -0.0939 -0.4777
 5727TIP3   OH238671   5.702   6.631  15.370  0.7280  0.4220 -0.1264
 5727TIP3    H138672   5.637   6.560  15.372  0.0321  1.0089  2.5949
 5727TIP3    H238673   5.673   6.686  15.297  0.2747 -1.1379 -1.2047
 5728TIP3   OH238674   5.072   1.552   5.097 -0.0998 -0.2306 -0.7318
 5728TIP3    H138675   5.049   1.468   5.057  2.5813 -0.8085 -1.2991
 5728TIP3    H238676   5.124   1.597   5.030 -0.2032  1.2366  0.1241
 5729TIP3   OH238677   5.728   2.134  15.121  0.2876  0.1502 -0.0995
 5729TIP3    H138678   5.788   2.060  15.122 -0.1950 -0.2685  1.2585
 5729TIP3    H238679   5.679   2.125  15.040  0.7289 -0.6109 -0.2877
 5730TIP3   OH238680   1.572   5.905  13.634  0.5039  0.4698 -0.0314
 5730TIP3    H138681   1.616   5.859  13.563  1.1630  2.2147 -0.7967
 5730TIP3    H238682   1.602   5.860  13.714 -0.4218 -1.6525 -0.8055
 5731TIP3   OH238683   2.884   5.731  15.175  0.1887 -0.0639 -0.2319
 5731TIP3    H138684   2.850   5.693  15.094 -1.0792  0.3037  0.1140
 5731TIP3    H238685   2.900   5.823  15.154  0.6967 -0.1615 -0.2997
 5732TIP3   OH238686   4.996   1.703  16.638  0.3069 -0.0010 -0.0062
 5732TIP3    H138687   5.032   1.674  16.554  1.3475  0.2613  0.3408
 5732TIP3    H238688   4.988   1.798  16.628 -1.7472 -0.1802 -0.6194
 5733TIP3   OH238689   6.396   4.548  13.617 -0.3453  0.1302 -0.5159
 5733TIP3    H138690   6.393   4.488  13.692 -0.2923  0.1668 -0.4842
 5733TIP3    H238691   6.308   4.545  13.580 -0.4375  0.2854 -0.3147
 5734TIP3   OH238692   5.421   5.326  13.175  0.1458 -0.3174  0.1482
 5734TIP3    H138693   5.385   5.238  13.169 -2.5272  0.5151  2.2521
 5734TIP3    H238694   5.508   5.313  13.213 -0.8230 -1.9828  1.9908
 5735TIP3   OH238695   1.668   6.182   4.386 -1.0663 -0.6403 -0.1857
 5735TIP3    H138696   1.619   6.231   4.451  0.9696  0.4425  0.6303
 5735TIP3    H238697   1.677   6.242   4.312  0.6991 -0.0331  0.4764
 5736TIP3   OH238698   1.688   5.061  14.336 -0.2765  0.9934  0.0904
 5736TIP3    H138699   1.669   5.009  14.414 -1.9027  1.7984  0.2749
 5736TIP3    H238700   1.624   5.031  14.271  0.3514  1.0977 -0.6013
 5737TIP3   OH238701   2.641   1.216   0.641  0.4737 -0.0892 -0.3142
 5737TIP3    H138702   2.627   1.310   0.630 -0.5928 -0.3511 -1.4683
 5737TIP3    H238703   2.566   1.176   0.597 -0.4921 -1.4663  2.3620
 5738TIP3   OH238704   4.403   5.844  13.485 -0.2941  0.4140 -0.4210
 5738TIP3    H138705   4.382   5.898  13.561 -3.6476  0.1907 -1.0209
 5738TIP3    H238706   4.354   5.763  13.500  2.4990 -1.4690 -0.7978
 5739TIP3   OH238707   1.460   0.897   1.909  0.1964  0.4495 -0.2276
 5739TIP3    H138708   1.548   0.881   1.874 -0.1134 -0.7594 -0.4708
 5739TIP3    H238709   1.442   0.822   1.965 -0.5431  0.8729  0.1153
 5740TIP3   OH238710   2.303   2.663  13.043 -0.0141  0.3038 -0.4259
 5740TIP3    H138711   2.387   2.700  13.014  0.2266 -0.0781 -0.2312
 5740TIP3    H238712   2.274   2.610  12.969  0.7092 -0.8484  0.1008
 5741TIP3   OH238713   2.683   3.526  16.673 -0.5795 -0.2650 -0.1140
 5741TIP3    H138714   2.754   3.482  16.720 -0.9545 -1.1717 -0.3719
 5741TIP3    H238715   2.611   3.529  16.736 -0.8995 -0.9814 -0.4347
 5742TIP3   OH238716   5.405   3.241  13.746  0.4237 -0.3781  0.2300
 5742TIP3    H138717   5.329   3.295  13.767 -0.5954 -2.3373  2.0782
 5742TIP3    H238718   5.476   3.277  13.798  0.6306  1.0610 -0.9951
 5743TIP3   OH238719   1.855   3.609  15.088  0.5130 -0.0125  0.3240
 5743TIP3    H138720   1.867   3.515  15.083  2.2717  0.2360 -0.8820
 5743TIP3    H238721   1.797   3.630  15.014 -1.6043 -0.3297  1.7968
 5744TIP3   OH238722   2.545   6.001  11.864 -0.2039  0.7593 -0.5974
 5744TIP3    H138723   2.610   5.948  11.911 -0.0846  1.4256  0.0184
 5744TIP3    H238724   2.474   6.013  11.927 -0.4871  0.8436 -0.9323
 5745TIP3   OH238725   5.319   6.323   5.336  0.3502 -0.8404  0.6154
 5745TIP3    H138726   5.231   6.357   5.317  1.0712  0.0065 -1.5112
 5745TIP3    H238727   5.331   6.340   5.429 -1.2463  0.2314  0.6776
 5746TIP3   OH238728   1.572   4.999   0.564  0.2492 -0.0133 -0.4205
 5746TIP3    H138729   1.558   5.046   0.482 -0.4770  1.6480  0.6186
 5746TIP3    H238730   1.667   4.988   0.569  0.4426  1.3326 -0.7191
 5747TIP3   OH238731   1.758   2.226   0.361 -0.0556  0.6045 -0.4552
 5747TIP3    H138732   1.829   2.233   0.425  0.2915 -0.8048 -0.6450
 5747TIP3    H238733   1.799   2.246   0.277  0.3008 -0.8111 -0.6475
 5748TIP3   OH238734   6.058   0.282   4.581  0.6937  0.3635  0.0533
 5748TIP3    H138735   6.101   0.357   4.540 -1.5304  1.4518 -0.4113
 5748TIP3    H238736   6.056   0.216   4.512 -1.7991  1.7051 -1.2777
 5749TIP3   OH238737   1.867   3.675   3.339 -0.4364 -0.9188  0.2530
 5749TIP3    H138738   1.888   3.743   3.403  0.1302 -1.5215  0.7234
 5749TIP3    H238739   1.953   3.644   3.309 -0.6949 -0.9029 -0.5241
 5750TIP3   OH238740   4.800   4.175  10.809  0.1488 -0.6414  0.2373
 5750TIP3    H138741   4.792   4.087  10.844  1.3895 -0.0802  2.1209
 5750TIP3    H238742   4.855   4.166  10.731 -0.5944 -1.6277 -0.1888
 5751TIP3   OH238743   1.470   3.021   4.666  0.3269 -0.1970  0.8170
 5751TIP3    H138744   1.542   3.084   4.665 -0.6301  1.0002  2.2762
 5751TIP3    H238745   1.393   3.074   4.686 -1.1082 -1.3259 -1.3007
 5752TIP3   OH238746   1.105   4.939  15.552 -0.1756 -0.0801  0.6443
 5752TIP3    H138747   1.054   4.985  15.485 -0.4042 -0.2771  0.6853
 5752TIP3    H238748   1.054   4.861  15.573 -1.2906  1.0879  2.7032
 5753TIP3   OH238749   4.070   1.585  15.859 -0.1624 -0.0289  0.4821
 5753TIP3    H138750   4.002   1.605  15.924 -0.9627  0.3795 -0.4615
 5753TIP3    H238751   4.084   1.491  15.868 -0.6990 -0.0827  0.8410
 5754TIP3   OH238752   2.382   5.554  15.352 -0.2731  0.6482 -0.5817
 5754TIP3    H138753   2.371   5.482  15.289 -2.6021  0.3925  0.0198
 5754TIP3    H238754   2.293   5.576  15.379  0.5496  1.9017  1.3513
 5755TIP3   OH238755   2.165   6.479   2.316  0.5459 -0.4349 -0.0686
 5755TIP3    H138756   2.099   6.452   2.252  1.6237  0.0509 -1.4360
 5755TIP3    H238757   2.129   6.451   2.400 -2.1349  1.1443 -0.5496
 5756TIP3   OH238758   1.622   5.870  13.358  0.3860 -0.1473 -0.3412
 5756TIP3    H138759   1.662   5.906  13.278 -0.3193  0.3766 -0.4606
 5756TIP3    H238760   1.558   5.806  13.326  0.3531 -0.1936 -0.1830
 5757TIP3   OH238761   4.900   6.842   5.566  0.1686 -0.6757  0.1682
 5757TIP3    H138762   4.827   6.848   5.628 -0.4233  0.1906 -0.5867
 5757TIP3    H238763   4.977   6.864   5.619 -0.2962 -0.1784  0.6652
 5758TIP3   OH238764   2.418   6.363   5.141 -0.4293  0.1535  0.0646
 5758TIP3    H138765   2.403   6.338   5.232 -2.0517 -0.2759 -0.2945
 5758TIP3    H238766   2.363   6.440   5.128 -2.0948 -1.1861 -1.1762
 5759TIP3   OH238767   1.373   2.882  14.887  0.2723  0.2303 -0.0809
 5759TIP3    H138768   1.456   2.834  14.881  0.6092  0.9698 -2.1638
 5759TIP3    H238769   1.307   2.813  14.890  0.8203 -0.4456 -1.7696
 5760TIP3   OH238770   5.528   0.751   1.129 -0.1003  0.2600  0.3177
 5760TIP3    H138771   5.515   0.803   1.208  0.0868 -1.7866  1.7386
 5760TIP3    H238772   5.478   0.671   1.143 -0.1276 -0.1247 -1.6779
 5761TIP3   OH238773   0.158   1.929  13.932 -0.0412 -0.5165  0.1724
 5761TIP3    H138774   0.220   1.982  13.982 -1.5204  0.4435  1.0785
 5761TIP3    H238775   0.202   1.912  13.849  0.9654  1.1126  0.3364
 5762TIP3   OH238776   5.531   0.136  14.311  0.2903  0.2940  0.2980
 5762TIP3    H138777   5.550   0.071  14.243  1.2790  0.1518  0.7011
 5762TIP3    H238778   5.454   0.102  14.356  1.1590 -0.9357  0.9033
 5763TIP3   OH238779   4.919   4.457  13.009  0.3077 -0.0338  0.5837
 5763TIP3    H138780   4.960   4.383  13.053  2.1412  0.7852  0.3727
 5763TIP3    H238781   4.978   4.478  12.937 -0.5756  1.1245  0.1559
 5764TIP3   OH238782   4.692   4.964   1.738 -0.0713 -0.1473 -0.0111
 5764TIP3    H138783   4.706   4.961   1.833  0.8292 -2.9389 -0.1491
 5764TIP3    H238784   4.779   4.953   1.701 -0.1279  2.8215 -1.2888
 5765TIP3   OH238785   6.543   4.956  16.706 -0.5505 -0.4892  0.5945
 5765TIP3    H138786   6.518   4.942  16.614  1.2689 -0.7227  0.0883
 5765TIP3    H238787   6.625   5.004  16.701 -0.4743 -0.4147  2.1245
 5766TIP3   OH238788   0.464   2.797  11.789  0.0609  0.0086  0.1830
 5766TIP3    H138789   0.380   2.825  11.753 -0.5033 -0.2892  1.2149
 5766TIP3    H238790   0.454   2.809  11.884  1.3871  0.5025  0.2790
 5767TIP3   OH238791   4.644   1.422  15.812 -0.5471  0.5493  0.4042
 5767TIP3    H138792   4.645   1.515  15.787 -0.2707  0.4718  0.1151
 5767TIP3    H238793   4.681   1.421  15.900 -0.5026  0.7084  0.3893
 5768TIP3   OH238794   3.584   4.748   1.452  0.0053 -0.2509 -0.4942
 5768TIP3    H138795   3.630   4.682   1.400 -0.9823 -0.2136 -1.4222
 5768TIP3    H238796   3.627   4.744   1.538  1.8273 -0.1343 -1.3532
 5769TIP3   OH238797   4.058   1.194  14.553  0.0894 -0.1081 -0.4265
 5769TIP3    H138798   4.128   1.138  14.587 -0.7992  0.9425  3.7300
 5769TIP3    H238799   3.988   1.134  14.531  1.3302 -0.9781 -2.2668
 5770TIP3   OH238800   0.800   4.453  11.864 -0.3725  0.2446 -0.0558
 5770TIP3    H138801   0.829   4.389  11.928 -0.4524  1.2222  1.0006
 5770TIP3    H238802   0.878   4.503  11.842 -0.1276 -0.7085 -1.5208
 5771TIP3   OH238803   6.044   4.792   1.996 -0.0150  0.1290 -0.2758
 5771TIP3    H138804   6.102   4.842   2.054 -0.0343 -0.2072  0.0379
 5771TIP3    H238805   6.068   4.821   1.908  2.2217 -1.6327 -0.3420
 5772TIP3   OH238806   4.321   1.333  11.653 -0.4679  0.3635  0.4293
 5772TIP3    H138807   4.374   1.331  11.733 -1.5880  0.1770  1.1841
 5772TIP3    H238808   4.319   1.425  11.628  0.4208  0.3394  0.2484
 5773TIP3   OH238809   3.097   5.821  12.364  0.9971 -0.2405  0.4075
 5773TIP3    H138810   3.050   5.773  12.432 -0.1621 -0.2369 -0.3523
 5773TIP3    H238811   3.030   5.840  12.297  2.0261  0.0128 -0.5898
 5774TIP3   OH238812   6.605   4.181  16.730 -0.1212 -0.3577  0.3658
 5774TIP3    H138813   6.691   4.223  16.727 -0.3539  0.1033 -0.1990
 5774TIP3    H238814   6.621   4.096  16.769  0.7564 -0.6391 -0.5522
 5775TIP3   OH238815   1.234   6.580   5.521  0.2170 -0.0833 -0.2698
 5775TIP3    H138816   1.145   6.592   5.488  0.3635  1.0824 -0.2617
 5775TIP3    H238817   1.283   6.546   5.446  0.0328  0.4043 -0.6126
 5776TIP3   OH238818   3.713   2.881   3.855 -0.6505  0.6623  0.4462
 5776TIP3    H138819   3.673   2.834   3.928 -1.1129  1.2574  0.5841
 5776TIP3    H238820   3.664   2.963   3.850  1.8833  2.4275  2.0402
 5777TIP3   OH238821   0.855   3.203   3.652 -0.2966  0.0830 -0.7205
 5777TIP3    H138822   0.881   3.290   3.621 -2.6307  0.5611 -1.5508
 5777TIP3    H238823   0.849   3.212   3.747  0.5605  0.4897 -0.6968
 5778TIP3   OH238824   0.130   1.044   2.069  0.3863  0.2322  0.2352
 5778TIP3    H138825   0.160   1.005   1.987 -1.4630  0.2813 -0.5032
 5778TIP3    H238826   0.121   1.137   2.050 -2.4029 -0.0719 -0.3260
 5779TIP3   OH238827   4.186   5.708   3.306 -0.4187 -0.6701  0.1065
 5779TIP3    H138828   4.215   5.683   3.219  1.7142  1.6764  0.0277
 5779TIP3    H238829   4.192   5.803   3.307 -1.7037 -0.5497  2.3892
 5780TIP3   OH238830   0.787   5.774  13.566 -0.2683 -0.4542 -0.2076
 5780TIP3    H138831   0.812   5.686  13.536 -1.1006 -0.0596 -2.2897
 5780TIP3    H238832   0.694   5.766  13.588 -0.0597 -0.3496  0.7218
 5781TIP3   OH238833   4.909   6.400  15.446 -0.0161 -0.6763  0.4276
 5781TIP3    H138834   4.841   6.405  15.513 -0.6393  1.0886 -0.2837
 5781TIP3    H238835   4.988   6.374  15.494 -1.1776 -3.0322  1.2332
 5782TIP3   OH238836   2.713   5.667  14.951  0.4198 -0.4851  0.0289
 5782TIP3    H138837   2.674   5.755  14.948  1.8578  0.1602 -0.6497
 5782TIP3    H238838   2.745   5.652  14.862  1.0114 -1.3072  0.3716
 5783TIP3   OH238839   3.707   1.136  15.679  0.2440  0.9449  0.1912
 5783TIP3    H138840   3.748   1.086  15.609  0.4318  1.6327 -0.2005
 5783TIP3    H238841   3.627   1.171  15.640  0.6058  1.7503  0.1563
 5784TIP3   OH238842   0.546   6.813   5.122  0.0517  0.7659 -0.4452
 5784TIP3    H138843   0.575   6.900   5.096 -0.5208  0.5818 -1.7545
 5784TIP3    H238844   0.571   6.756   5.049 -0.1281 -0.0678  0.1239
 5785TIP3   OH238845   4.181   5.122   5.236  0.2386  0.2647 -0.1920
 5785TIP3    H138846   4.091   5.153   5.244  0.1943 -0.2770  1.7310
 5785TIP3    H238847   4.233   5.202   5.225 -0.3992  0.6173 -0.7256
 5786TIP3   OH238848   0.354   4.525  12.615 -0.5122  0.0860 -0.3501
 5786TIP3    H138849   0.300   4.601  12.592  0.3806  0.4778 -1.1918
 5786TIP3    H238850   0.300   4.476  12.678 -0.2054  2.5830  2.0653
 5787TIP3   OH238851   4.143   1.634  16.867 -0.4716 -0.3025 -0.1465
 5787TIP3    H138852   4.068   1.582  16.893 -1.2122  1.3195  1.1208
 5787TIP3    H238853   4.194   1.576  16.811 -2.1238 -1.7834 -0.1976
 5788TIP3   OH238854   6.457   2.284   1.727  0.3328 -0.1680  0.7161
 5788TIP3    H138855   6.525   2.346   1.755  0.1571  0.2114  0.3064
 5788TIP3    H238856   6.444   2.303   1.635  0.8924 -1.4032  0.3624
 5789TIP3   OH238857   3.185   1.648   0.976 -0.0419 -0.7027  0.1313
 5789TIP3    H138858   3.280   1.652   0.990 -0.0696  1.3657  0.0247
 5789TIP3    H238859   3.152   1.599   1.051  1.1019 -1.5027  0.1413
 5790TIP3   OH238860   5.858   0.751  15.365  0.0408 -0.1030  0.0562
 5790TIP3    H138861   5.874   0.838  15.328 -0.3016 -0.1972 -0.3130
 5790TIP3    H238862   5.777   0.722  15.324  0.8314 -1.1490 -0.8030
 5791TIP3   OH238863   6.643   1.202   2.771 -0.2208  0.2554 -0.2319
 5791TIP3    H138864   6.624   1.235   2.683  0.8278 -0.3093 -0.6855
 5791TIP3    H238865   6.566   1.151   2.795 -1.3890  2.0372  0.0154
 5792TIP3   OH238866   3.030   3.216   5.818 -0.1584  0.4380  0.2680
 5792TIP3    H138867   3.038   3.121   5.826 -1.4571  0.3503  0.9452
 5792TIP3    H238868   2.998   3.244   5.904 -0.9671  1.3149 -0.2963
 5793TIP3   OH238869   4.629   6.127   0.530  0.2394 -0.0199 -0.4039
 5793TIP3    H138870   4.601   6.148   0.441 -1.1079  0.3415  0.0880
 5793TIP3    H238871   4.556   6.079   0.568  1.4687 -1.6789 -0.0176
 5794TIP3   OH238872   0.514   4.580  11.640  0.3486 -1.0620 -0.4121
 5794TIP3    H138873   0.474   4.628  11.567 -0.4655 -1.1811 -0.0578
 5794TIP3    H238874   0.594   4.629  11.659 -0.0749 -0.2821 -0.5577
 5795TIP3   OH238875   0.494   5.116  14.056  0.1075 -0.2240 -0.6512
 5795TIP3    H138876   0.558   5.093  14.124  0.4661  1.4562 -0.3703
 5795TIP3    H238877   0.412   5.128  14.105  0.5315  1.7674 -0.3132
 5796TIP3   OH238878   4.386   0.320  11.534  0.0888  0.2766 -0.2853
 5796TIP3    H138879   4.343   0.235  11.539  0.1752  0.2792  0.6565
 5796TIP3    H238880   4.371   0.349  11.444  0.4794 -0.9532 -0.7683
 5797TIP3   OH238881   1.215   2.448  15.333  0.0162 -0.1903  0.4323
 5797TIP3    H138882   1.221   2.514  15.402  1.5715 -1.5047  1.6060
 5797TIP3    H238883   1.198   2.366  15.379  0.0640 -0.9466 -0.8470
 5798TIP3   OH238884   0.350   5.411  16.483 -0.0974  0.2721 -0.0210
 5798TIP3    H138885   0.391   5.324  16.479  0.7656  0.5290  1.8636
 5798TIP3    H238886   0.380   5.456  16.404 -2.4800 -1.8625 -2.3304
 5799TIP3   OH238887   0.539   6.047   1.220 -0.2984  0.1287 -0.3355
 5799TIP3    H138888   0.575   5.960   1.199  2.0652  1.4537 -2.3072
 5799TIP3    H238889   0.460   6.054   1.167 -0.1674 -0.6027 -0.6444
 5800TIP3   OH238890   2.427   6.011   0.860  0.4749  0.1229  0.8758
 5800TIP3    H138891   2.470   6.020   0.945  0.0238  1.3615  0.9966
 5800TIP3    H238892   2.362   6.081   0.859  0.7437  0.3855 -0.6434
 5801TIP3   OH238893   2.179   1.290   1.194 -0.0337  0.4417  0.0148
 5801TIP3    H138894   2.211   1.256   1.110  0.6413  1.1115 -0.0063
 5801TIP3    H238895   2.084   1.282   1.188  0.0762 -1.0313 -0.1588
 5802TIP3   OH238896   0.334   1.022  15.545 -0.0651 -0.7096 -0.0389
 5802TIP3    H138897   0.278   0.945  15.548 -0.3081 -0.6209 -1.6335
 5802TIP3    H238898   0.274   1.094  15.526  0.6688 -0.8208 -3.3998
 5803TIP3   OH238899   0.684   6.624  16.271 -0.6675 -0.7624  0.7208
 5803TIP3    H138900   0.612   6.579  16.227 -0.5364 -0.5378  0.2643
 5803TIP3    H238901   0.746   6.555  16.293  0.5431 -0.6500 -1.8730
 5804TIP3   OH238902   1.521   1.053  15.389 -0.0694 -0.0571  0.2910
 5804TIP3    H138903   1.490   0.985  15.448 -1.6098  0.3244 -0.0257
 5804TIP3    H238904   1.449   1.066  15.326  0.9893  0.4660 -0.8661
 5805TIP3   OH238905   4.203   3.217  15.384  0.3107  0.3886  0.8388
 5805TIP3    H138906   4.187   3.124  15.397 -1.6357  0.7883  1.6288
 5805TIP3    H238907   4.298   3.223  15.373  0.6231 -1.5539  1.9204
 5806TIP3   OH238908   4.965   4.909   5.870 -0.2150  0.2917 -0.1332
 5806TIP3    H138909   5.042   4.897   5.926 -1.4429  1.3552  1.9001
 5806TIP3    H238910   4.974   4.999   5.837 -1.0244  0.7593  0.8776
 5807TIP3   OH238911   1.618   1.074   5.648  0.2049  0.4124 -0.2730
 5807TIP3    H138912   1.591   1.028   5.568  0.4674  1.5258 -1.0286
 5807TIP3    H238913   1.678   1.012   5.691 -2.1101 -1.3912  0.5770
 5808TIP3   OH238914   4.130   3.454   0.954  0.1813 -0.9156 -0.1077
 5808TIP3    H138915   4.053   3.485   0.906  0.4632  2.0238  1.1423
 5808TIP3    H238916   4.170   3.389   0.896 -1.7338 -0.5332 -1.9791
 5809TIP3   OH238917   6.067   5.217  12.909  0.0626  0.0945 -0.1579
 5809TIP3    H138918   6.028   5.291  12.954 -0.2445 -0.4012  0.4048
 5809TIP3    H238919   6.002   5.147  12.916  0.3317 -0.2212 -0.7029
 5810TIP3   OH238920   5.087   6.579   3.617 -0.6786 -0.2186  0.5840
 5810TIP3    H138921   5.042   6.533   3.547  0.1626 -1.2629  0.7043
 5810TIP3    H238922   5.045   6.548   3.697 -0.2709 -0.6048  0.6518
 5811TIP3   OH238923   4.178   0.063   2.700 -0.0488 -0.3546 -0.0481
 5811TIP3    H138924   4.194   0.070   2.606 -1.5190  2.8857 -0.1910
 5811TIP3    H238925   4.264   0.072   2.740  0.4208 -0.2659 -1.0530
 5812TIP3   OH238926   1.216   0.013  11.382  0.2208  0.1456 -0.3200
 5812TIP3    H138927   1.193   0.075  11.313  0.2430 -0.1298 -0.5767
 5812TIP3    H238928   1.275   0.062  11.440 -2.4093  1.5183  1.4263
 5813TIP3   OH238929   6.791   3.890   2.066 -0.1753  0.7216  0.5994
 5813TIP3    H138930   6.713   3.915   2.017  0.0923  0.8713  0.2374
 5813TIP3    H238931   6.804   3.960   2.129 -1.0190  0.0995  1.4905
 5814TIP3   OH238932   5.392   2.492  16.572  0.2627 -0.1573  0.3580
 5814TIP3    H138933   5.382   2.583  16.601  1.4920 -0.3689  1.5472
 5814TIP3    H238934   5.443   2.451  16.641 -2.8522 -2.5915  1.4628
 5815TIP3   OH238935   3.219   4.383  14.346 -0.3258  0.8176  0.1339
 5815TIP3    H138936   3.201   4.476  14.357 -0.9509  0.4873  2.6585
 5815TIP3    H238937   3.134   4.341  14.361  0.4216 -0.2608  1.5083
 5816TIP3   OH238938   2.351   3.430   3.466 -0.4253 -0.2846 -0.2782
 5816TIP3    H138939   2.440   3.458   3.488 -0.6081  0.7464 -0.7881
 5816TIP3    H238940   2.350   3.336   3.486  0.8752 -0.3839 -0.5831
 5817TIP3   OH238941   4.272   5.266  11.540 -0.7450 -0.2185  0.8221
 5817TIP3    H138942   4.201   5.209  11.511 -0.4737 -0.6745  1.0260
 5817TIP3    H238943   4.306   5.223  11.619  0.9475 -1.0064 -0.2852
 5818TIP3   OH238944   6.270   5.328   2.039 -0.5287  0.4822 -0.2775
 5818TIP3    H138945   6.192   5.316   1.985 -1.0828  0.2828  0.5472
 5818TIP3    H238946   6.272   5.251   2.096  1.0359 -0.1923 -1.2117
 5819TIP3   OH238947   6.154   0.304  11.561  0.6080 -0.1527 -0.5062
 5819TIP3    H138948   6.187   0.283  11.649  0.0196 -1.2467 -0.5261
 5819TIP3    H238949   6.165   0.223  11.511 -1.0547 -0.2330 -0.8181
 5820TIP3   OH238950   2.297   6.048  16.085  0.1868 -0.4454 -0.0644
 5820TIP3    H138951   2.220   6.006  16.046  0.1731 -1.2312  0.7652
 5820TIP3    H238952   2.263   6.129  16.123  0.0650 -0.0368 -1.0002
 5821TIP3   OH238953   1.248   4.544  12.833  0.2787  0.3072  0.0615
 5821TIP3    H138954   1.281   4.534  12.922  0.7028  0.5641 -0.0627
 5821TIP3    H238955   1.293   4.622  12.800  0.5106 -0.0785 -0.5526
 5822TIP3   OH238956   2.374   3.858  13.212  0.0596  0.0375 -0.1839
 5822TIP3    H138957   2.437   3.786  13.206 -0.1389 -0.0369 -1.8513
 5822TIP3    H238958   2.428   3.937  13.206  0.1873  0.0275  0.6899
 5823TIP3   OH238959   6.714   4.928   5.133 -0.2380 -0.3060  0.1028
 5823TIP3    H138960   6.791   4.984   5.143 -0.8576  0.7837 -1.0532
 5823TIP3    H238961   6.660   4.946   5.210  0.7244 -1.2375  1.0358
 5824TIP3   OH238962   0.411   1.598  14.435  0.5616  0.6635  0.5186
 5824TIP3    H138963   0.449   1.516  14.403 -2.1194 -1.1873  1.6641
 5824TIP3    H238964   0.378   1.642  14.356  0.9107  0.0193  0.0059
 5825TIP3   OH238965   0.240   5.503   3.842  0.3188 -0.5311  0.4019
 5825TIP3    H138966   0.289   5.471   3.767 -0.1631 -0.9392  0.2557
 5825TIP3    H238967   0.289   5.471   3.918  0.3939 -0.7565  0.2581
 5826TIP3   OH238968   4.766   2.596   4.434  0.0269 -0.2121  0.2992
 5826TIP3    H138969   4.809   2.558   4.511  2.3575 -0.8903 -1.2313
 5826TIP3    H238970   4.737   2.520   4.383 -0.6164  0.2029  0.0380
 5827TIP3   OH238971   3.079   3.636  14.502 -0.4513 -0.3624 -0.2973
 5827TIP3    H138972   3.106   3.650  14.411 -0.7911  1.0618 -0.2136
 5827TIP3    H238973   3.003   3.694  14.513 -1.4065 -1.6982  0.4513
 5828TIP3   OH238974   4.157   4.971   2.413 -0.1991 -0.3441  0.0721
 5828TIP3    H138975   4.217   5.046   2.406  0.2220 -0.7076 -0.2090
 5828TIP3    H238976   4.108   4.973   2.331  0.2431 -0.7451 -0.2027
 5829TIP3   OH238977   2.901   2.554  13.717 -0.1187  0.0700 -0.1422
 5829TIP3    H138978   2.987   2.581  13.684 -0.4482  0.3941 -0.7522
 5829TIP3    H238979   2.919   2.477  13.770  0.5206 -0.0192 -0.4748
 5830TIP3   OH238980   2.962   2.298   1.284 -0.0962 -1.0152 -0.4899
 5830TIP3    H138981   3.016   2.223   1.258 -1.1778 -1.8720 -0.3870
 5830TIP3    H238982   2.879   2.258   1.311 -0.6403  0.2251 -0.2785
 5831TIP3   OH238983   3.220   5.055  16.458  0.4761 -0.1716  0.2474
 5831TIP3    H138984   3.196   5.057  16.550 -1.9074 -2.4398 -0.2207
 5831TIP3    H238985   3.139   5.074  16.411  0.9964 -1.6907 -1.3773
 5832TIP3   OH238986   0.487   6.006   2.125  0.2352  0.2612 -0.1294
 5832TIP3    H138987   0.477   6.061   2.202  1.5402  0.1743  0.1237
 5832TIP3    H238988   0.398   5.975   2.106 -0.7849  3.2744 -0.9308
 5833TIP3   OH238989   5.867   4.429   5.131  0.3000 -0.1911 -0.2335
 5833TIP3    H138990   5.774   4.411   5.122  0.3763 -0.6697 -0.1028
 5833TIP3    H238991   5.898   4.444   5.042  0.4309 -1.7309 -0.4730
 5834TIP3   OH238992   0.435   0.935   5.634 -0.0440 -0.6396  0.1383
 5834TIP3    H138993   0.462   0.884   5.711 -0.1981  0.5400  1.0104
 5834TIP3    H238994   0.517   0.969   5.599 -0.0370 -0.5522  0.2388
 5835TIP3   OH238995   3.654   5.571   1.208  0.3622  0.6986 -0.0411
 5835TIP3    H138996   3.636   5.480   1.234  0.8348  1.0220  1.5032
 5835TIP3    H238997   3.669   5.566   1.114 -0.2896 -0.7272 -0.0966
 5836TIP3   OH238998   3.298   6.573  10.652  0.4865  0.3584 -0.6729
 5836TIP3    H138999   3.356   6.613  10.587 -0.5500 -0.0467 -1.8939
 5836TIP3    H239000   3.229   6.532  10.600  0.5938 -1.5707  0.5920
 5837TIP3   OH239001   1.200   2.665   3.786 -0.1166  0.1984  0.0009
 5837TIP3    H139002   1.290   2.633   3.786 -0.5267 -1.0944 -1.0905
 5837TIP3    H239003   1.186   2.696   3.697 -0.0147  2.7396  0.8101
 5838TIP3   OH239004   1.129   6.570  15.294  0.4317 -0.5108 -0.0754
 5838TIP3    H139005   1.073   6.494  15.278 -0.1885 -0.5376  1.8922
 5838TIP3    H239006   1.157   6.598  15.207  0.0086 -2.4734 -0.9100
 5839TIP3   OH239007   2.621   6.441  12.866 -0.0717 -0.0536 -0.3375
 5839TIP3    H139008   2.602   6.530  12.898 -0.0441  0.6976 -2.2601
 5839TIP3    H239009   2.708   6.448  12.827 -0.9179 -0.3527 -2.3834
 5840TIP3   OH239010   4.250   2.261   3.830  0.0859 -0.2480  0.1276
 5840TIP3    H139011   4.183   2.243   3.764 -2.3945 -0.2484  2.4760
 5840TIP3    H239012   4.225   2.345   3.868  1.1388 -0.4754  1.4132
 5841TIP3   OH239013   6.692   1.197  12.251 -0.2229 -0.7383 -0.1594
 5841TIP3    H139014   6.662   1.233  12.168  0.4237 -0.0499 -0.1082
 5841TIP3    H239015   6.772   1.148  12.229  0.3281  0.0038  0.1383
 5842TIP3   OH239016   5.895   1.499   1.682  0.2979 -0.9164  0.1390
 5842TIP3    H139017   5.927   1.416   1.716  0.2050 -0.8168  0.4841
 5842TIP3    H239018   5.968   1.560   1.693  0.0013 -0.6915  0.9195
 5843TIP3   OH239019   2.425   2.855  12.175 -0.3761  0.8095  0.0996
 5843TIP3    H139020   2.509   2.813  12.191 -0.3505  0.9354  0.2942
 5843TIP3    H239021   2.407   2.839  12.082  0.1596  1.3224 -0.0978
 5844TIP3   OH239022   6.208   0.641   5.653  0.1565  0.2494 -0.0711
 5844TIP3    H139023   6.295   0.605   5.665  0.1804 -0.1977 -1.4442
 5844TIP3    H239024   6.222   0.724   5.608  0.1281  2.2904  3.2721
 5845TIP3   OH239025   4.804   1.930   5.595 -0.0876 -0.1610  0.0992
 5845TIP3    H139026   4.841   1.846   5.567  1.0377 -0.3449  2.0144
 5845TIP3    H239027   4.774   1.971   5.513 -0.7889 -2.4513 -0.8644
 5846TIP3   OH239028   1.098   3.314   5.374 -0.0186 -0.1971  0.1986
 5846TIP3    H139029   1.064   3.398   5.345 -1.1505  0.0145  1.9889
 5846TIP3    H239030   1.185   3.334   5.408 -0.8787  0.6204  2.0913
 5847TIP3   OH239031   0.234   6.054  15.212 -0.1247  0.1366  0.3223
 5847TIP3    H139032   0.256   6.146  15.227  2.3351 -0.2174 -0.6990
 5847TIP3    H239033   0.282   6.029  15.134 -0.5224 -2.1041  0.7028
 5848TIP3   OH239034   1.611   6.635   5.114 -0.0025  0.3299  0.1198
 5848TIP3    H139035   1.645   6.698   5.051 -0.7848  0.2504 -0.3895
 5848TIP3    H239036   1.534   6.677   5.152 -1.0901 -0.6763 -0.9078
 5849TIP3   OH239037   1.851   6.243   3.812 -0.0383  0.7500  0.1905
 5849TIP3    H139038   1.814   6.328   3.788  0.1258  0.7864  0.0693
 5849TIP3    H239039   1.834   6.187   3.736  0.6477  0.9162 -0.0932
 5850TIP3   OH239040   4.350   0.095  10.539  0.0116 -0.0391 -0.0578
 5850TIP3    H139041   4.411   0.090  10.466  0.3885  0.4739  0.2118
 5850TIP3    H239042   4.350   0.188  10.563 -0.3010 -0.1616  0.4293
 5851TIP3   OH239043   3.752   0.733   4.963 -0.4460  0.3402  0.4479
 5851TIP3    H139044   3.833   0.772   4.930  0.7265 -2.8097 -0.6819
 5851TIP3    H239045   3.768   0.722   5.057  2.5952 -4.4064 -0.2970
 5852TIP3   OH239046   5.477   1.170   4.999  0.5169 -0.8813 -0.5950
 5852TIP3    H139047   5.533   1.151   5.074  0.0057 -0.0151  0.0252
 5852TIP3    H239048   5.424   1.245   5.027 -2.8283 -3.2105 -0.1887
 5853TIP3   OH239049   0.354   2.668   5.359 -0.6975 -0.1708  0.3646
 5853TIP3    H139050   0.433   2.690   5.408  0.2987  1.7221 -1.8765
 5853TIP3    H239051   0.298   2.745   5.370 -1.0939 -0.3799 -0.1782
 5854TIP3   OH239052   0.574   6.455   5.478 -0.2464 -0.6039 -0.1934
 5854TIP3    H139053   0.654   6.508   5.476 -0.1155 -0.7832  0.1538
 5854TIP3    H239054   0.508   6.513   5.515 -0.0173 -0.7954  0.5196
 5855TIP3   OH239055   5.628   2.718   0.310 -0.8012 -0.3799  0.0915
 5855TIP3    H139056   5.673   2.802   0.310 -1.1913 -0.0942 -2.4961
 5855TIP3    H239057   5.596   2.708   0.400 -0.2121  1.9239  0.6224
 5856TIP3   OH239058   5.275   4.691   1.336 -0.1674  0.1102  0.5520
 5856TIP3    H139059   5.362   4.730   1.342  0.6480 -1.6499  0.8250
 5856TIP3    H239060   5.224   4.752   1.283  0.8159  1.8576  1.5495
 5857TIP3   OH239061   4.925   1.482  14.131 -0.3021  0.0012  0.2336
 5857TIP3    H139062   4.970   1.494  14.215  1.6212 -1.5345 -0.4947
 5857TIP3    H239063   4.856   1.419  14.149 -1.7962  1.8028  1.2046
 5858TIP3   OH239064   3.076   1.848   3.002  0.3410  0.4220 -0.5980
 5858TIP3    H139065   3.045   1.934   3.029  1.2330 -0.2658  3.2042
 5858TIP3    H239066   3.003   1.789   3.022  0.8791 -0.0862 -0.1036
 5859TIP3   OH239067   3.827   4.501  15.816  0.1439  0.4653  0.2355
 5859TIP3    H139068   3.746   4.543  15.787 -0.6108 -0.7288  0.5381
 5859TIP3    H239069   3.854   4.552  15.893 -1.4790 -0.3544  1.4094
 5860TIP3   OH239070   4.382   0.982  16.148  0.5788 -0.0238  0.6080
 5860TIP3    H139071   4.309   1.043  16.162  0.9611  0.7548 -0.5831
 5860TIP3    H239072   4.432   0.985  16.229  0.2375  0.7820  0.8008
 5861TIP3   OH239073   3.555   3.028   0.413  0.6105  0.0921  0.2720
 5861TIP3    H139074   3.505   2.965   0.360 -0.4517  1.4150 -0.3485
 5861TIP3    H239075   3.505   3.109   0.408  2.7183  1.4433 -0.1986
 5862TIP3   OH239076   2.170   3.349   4.788  0.6672 -0.1933 -0.5256
 5862TIP3    H139077   2.210   3.432   4.811 -1.4532  1.1032 -1.2551
 5862TIP3    H239078   2.155   3.354   4.694 -2.5097  0.0914 -0.1108
 5863TIP3   OH239079   6.731   6.193  12.724 -0.5695  0.3867 -0.1766
 5863TIP3    H139080   6.811   6.165  12.769 -0.7801  0.8356  0.5089
 5863TIP3    H239081   6.691   6.255  12.785 -1.5877 -0.0482 -0.3957
 5864TIP3   OH239082   4.963   1.763   1.392 -0.4704  0.1150 -0.3653
 5864TIP3    H139083   4.894   1.786   1.456 -0.5311  1.6960 -0.9482
 5864TIP3    H239084   5.044   1.788   1.436 -0.0550 -2.9350  0.8508
 5865TIP3   OH239085   0.178   3.224  12.509 -0.7804 -0.2219 -0.0493
 5865TIP3    H139086   0.201   3.159  12.443 -0.1335 -1.3119  1.1990
 5865TIP3    H239087   0.154   3.302  12.459 -0.0386 -0.9165 -1.5427
 5866TIP3   OH239088   3.647   0.303   4.249 -0.3781  0.4111  0.2991
 5866TIP3    H139089   3.597   0.326   4.170  0.1788  0.9723  0.0980
 5866TIP3    H239090   3.730   0.270   4.216  0.5420  2.2523  0.6430
 5867TIP3   OH239091   1.924   2.958  13.227  0.3961 -0.2060 -0.5113
 5867TIP3    H139092   2.008   2.984  13.264 -0.0374  0.9342 -0.2788
 5867TIP3    H239093   1.862   2.968  13.300 -0.2354  0.7285 -1.1521
 5868TIP3   OH239094   3.277   1.581   3.860  0.8061  0.1130  0.2662
 5868TIP3    H139095   3.289   1.675   3.871  0.1690  0.0036  2.6351
 5868TIP3    H239096   3.344   1.554   3.798 -1.7711  2.7480 -4.1442
 5869TIP3   OH239097   0.475   1.848   2.627  0.2776 -0.3376  0.2310
 5869TIP3    H139098   0.408   1.800   2.578  0.8423 -0.6328 -0.2512
 5869TIP3    H239099   0.425   1.903   2.687 -0.3973 -0.7860  0.0906
 5870TIP3   OH239100   1.661   0.898   6.103 -0.0672  0.0063  0.0744
 5870TIP3    H139101   1.728   0.907   6.170 -0.0639 -2.8221  0.5731
 5870TIP3    H239102   1.612   0.820   6.128  0.0815 -1.3417 -3.3086
 5871TIP3   OH239103   1.456   3.530   1.286  0.2910  0.1873 -0.2442
 5871TIP3    H139104   1.541   3.557   1.253  0.8359 -1.8416 -0.6672
 5871TIP3    H239105   1.426   3.463   1.224 -0.2963 -1.1558  1.3885
 5872TIP3   OH239106   4.864   5.874   3.118  0.2517 -0.0663 -0.0333
 5872TIP3    H139107   4.769   5.869   3.105 -0.4358  1.5927  3.2804
 5872TIP3    H239108   4.901   5.863   3.030 -3.0945  1.4543 -1.8113
 5873TIP3   OH239109   3.300   2.052  14.530  0.1092  0.1455 -0.0547
 5873TIP3    H139110   3.242   1.994  14.481 -1.6388  0.1496  1.8719
 5873TIP3    H239111   3.241   2.104  14.585  1.8887  0.7634  1.3711
 5874TIP3   OH239112   3.022   3.306  13.758  0.3616 -0.0512  0.8902
 5874TIP3    H139113   3.096   3.248  13.743  0.5282  0.2946  0.3606
 5874TIP3    H239114   3.061   3.388  13.789  0.1596 -0.0629  1.1819
 5875TIP3   OH239115   1.636   4.546  12.874 -0.7530  0.6507 -0.2757
 5875TIP3    H139116   1.576   4.582  12.939 -0.2347 -0.0581  0.6249
 5875TIP3    H239117   1.687   4.481  12.922 -0.2921  0.1677 -1.3776
 5876TIP3   OH239118   0.339   4.409  12.171  0.4635  0.0560 -0.0432
 5876TIP3    H139119   0.270   4.471  12.193  0.3964 -0.4104  1.1409
 5876TIP3    H239120   0.413   4.464  12.144  0.6632  0.7228  1.7307
 5877TIP3   OH239121   4.561   6.327  14.762 -0.5724  0.1567  0.1786
 5877TIP3    H139122   4.490   6.317  14.699 -1.5667  2.0379  0.9023
 5877TIP3    H239123   4.614   6.399  14.728 -0.3489  0.2993  0.8115
 5878TIP3   OH239124   2.132   0.160  14.524  0.2177  0.1504  0.4142
 5878TIP3    H139125   2.225   0.138  14.532  0.3731  0.9262  0.9181
 5878TIP3    H239126   2.132   0.248  14.485 -0.3384 -0.2620 -0.5471
 5879TIP3   OH239127   3.884   0.408  12.776  0.1235  0.9090  0.6531
 5879TIP3    H139128   3.933   0.352  12.836  0.1987  0.4355  0.1609
 5879TIP3    H239129   3.942   0.421  12.702  0.0601  1.5565  0.7108
 5880TIP3   OH239130   2.440   2.030   2.882 -0.3602 -0.5315  0.1348
 5880TIP3    H139131   2.534   2.046   2.884 -0.3327 -0.7081  0.7472
 5880TIP3    H239132   2.425   1.979   2.803 -0.2508  1.2772 -1.1086
 5881TIP3   OH239133   6.774   3.239   0.384 -0.3604  0.4024 -0.0636
 5881TIP3    H139134   6.692   3.213   0.426 -1.2532  0.2180 -1.8488
 5881TIP3    H239135   6.842   3.198   0.438 -1.3604  1.2784  1.9572
 5882TIP3   OH239136   3.744   5.484  13.285 -0.2335  1.2153 -0.2361
 5882TIP3    H139137   3.791   5.405  13.258 -1.1763  1.3314 -2.4600
 5882TIP3    H239138   3.800   5.556  13.258 -0.3225  1.3253 -0.1272
 5883TIP3   OH239139   4.416   2.189  12.073  1.0147 -0.3884  0.2788
 5883TIP3    H139140   4.361   2.144  12.009  1.1155  1.0488 -0.8626
 5883TIP3    H239141   4.412   2.133  12.151 -0.2308 -1.4669 -0.5110
 5884TIP3   OH239142   2.811   0.878  13.573  0.1906 -0.2002  0.3479
 5884TIP3    H139143   2.725   0.862  13.535  0.0282 -0.7860  0.9241
 5884TIP3    H239144   2.851   0.945  13.518 -0.1536 -0.7927 -0.6434
 5885TIP3   OH239145   5.841   3.509  12.987 -0.3250  0.2536  0.1066
 5885TIP3    H139146   5.846   3.590  12.936 -0.2132 -0.8187 -1.6539
 5885TIP3    H239147   5.895   3.526  13.064  1.3487  1.1856 -1.2061
 5886TIP3   OH239148   3.402   4.528   5.337 -0.2798 -0.2018  0.7581
 5886TIP3    H139149   3.446   4.478   5.406  1.0057 -1.5435 -0.9302
 5886TIP3    H239150   3.408   4.472   5.259  0.5748  2.2389 -1.0668
 5887TIP3   OH239151   3.136   5.816  16.363  0.0097 -0.0353  0.3136
 5887TIP3    H139152   3.160   5.909  16.364 -0.2260  0.0438 -0.7100
 5887TIP3    H239153   3.098   5.801  16.450 -0.9242  1.0990  0.1404
 5888TIP3   OH239154   6.264   5.498   3.910 -0.3371  0.5047 -0.3626
 5888TIP3    H139155   6.203   5.571   3.898 -0.0824  0.6993 -0.4827
 5888TIP3    H239156   6.302   5.512   3.996 -0.9310  0.0296 -0.0154
 5889TIP3   OH239157   4.572   0.736   4.432  0.3281 -0.0813 -0.4538
 5889TIP3    H139158   4.612   0.709   4.515  0.7513  1.2446 -0.2009
 5889TIP3    H239159   4.645   0.741   4.370  0.3160  0.6713 -0.4262
 5890TIP3   OH239160   4.565   4.051   3.707 -0.0231 -0.1310  0.5041
 5890TIP3    H139161   4.504   4.005   3.764  1.6660 -2.3954  0.6615
 5890TIP3    H239162   4.555   4.007   3.622  0.0296  0.7659  0.0282
 5891TIP3   OH239163   1.752   3.711  13.452 -0.0552 -0.3852 -0.4149
 5891TIP3    H139164   1.775   3.710  13.545 -0.9221  2.5546 -0.0695
 5891TIP3    H239165   1.780   3.625  13.419  0.2050 -1.5476  2.5425
 5892TIP3   OH239166   0.001   1.388   0.665  0.0750 -0.2585  0.0822
 5892TIP3    H139167  -0.051   1.449   0.717 -0.4880 -0.0916 -0.6551
 5892TIP3    H239168   0.088   1.390   0.705 -0.6969 -1.2449  1.9274
 5893TIP3   OH239169   6.845   6.576  16.287  0.5223  0.2489 -0.2429
 5893TIP3    H139170   6.774   6.626  16.328 -1.5859 -3.7239  1.6355
 5893TIP3    H239171   6.917   6.582  16.350  0.8339  1.9276 -0.7220
 5894TIP3   OH239172   4.981   3.971   4.375 -0.0601  0.3607  0.0683
 5894TIP3    H139173   4.925   3.958   4.452 -0.7358 -0.4865 -0.5513
 5894TIP3    H239174   4.954   3.903   4.314  0.7431  0.7777 -0.7720
 5895TIP3   OH239175   1.708   3.332   1.783 -0.4442  0.1110 -0.3037
 5895TIP3    H139176   1.697   3.263   1.718  3.2816  0.8049 -1.9421
 5895TIP3    H239177   1.650   3.402   1.753 -1.4631 -0.9128 -0.7877
 5896TIP3   OH239178   5.636   6.184  17.033 -0.2753 -0.3388 -0.6749
 5896TIP3    H139179   5.675   6.261  16.991  0.1944  0.7028  1.4823
 5896TIP3    H239180   5.547   6.212  17.056 -1.0865 -1.4360 -2.2862
 5897TIP3   OH239181   4.187   0.427  13.359 -0.2274 -0.5809 -0.3690
 5897TIP3    H139182   4.114   0.366  13.360 -0.7474  0.0435  0.7121
 5897TIP3    H239183   4.147   0.513  13.372  0.5996 -0.1179 -0.7965
 5898TIP3   OH239184   2.163   4.565   3.953 -0.2951  0.3973  0.1164
 5898TIP3    H139185   2.084   4.546   4.005 -0.8259  0.9781 -0.4693
 5898TIP3    H239186   2.231   4.512   3.994 -1.3371 -1.3905 -0.3472
 5899TIP3   OH239187   2.369   5.862  14.762 -0.5516 -0.4475  0.8508
 5899TIP3    H139188   2.383   5.931  14.697  0.0037 -1.3677 -0.0397
 5899TIP3    H239189   2.282   5.879  14.797 -0.4961  0.5964  0.5153
 5900TIP3   OH239190   5.947   3.049   5.729 -0.8875  0.3660  0.1493
 5900TIP3    H139191   5.990   3.062   5.814  0.6732  1.5195 -0.7690
 5900TIP3    H239192   5.963   2.957   5.709 -0.5843  0.2769  0.7530
 5901TIP3   OH239193   1.072   3.690   4.904 -0.3188  0.5200  0.3752
 5901TIP3    H139194   0.995   3.640   4.929 -0.0923  0.3960  0.8272
 5901TIP3    H239195   1.061   3.775   4.946 -0.0742  0.4062  0.6719
 5902TIP3   OH239196   1.654   5.353  14.292 -0.3674  0.2784  0.1791
 5902TIP3    H139197   1.691   5.269  14.319 -0.3567  0.1736 -0.1517
 5902TIP3    H239198   1.653   5.406  14.372 -0.0285  0.0891  0.3114
 5903TIP3   OH239199   4.862   5.323   1.075  0.0973  0.3884  0.7333
 5903TIP3    H139200   4.861   5.305   1.169  0.1775  0.2537  0.7094
 5903TIP3    H239201   4.788   5.274   1.040  0.1500  0.3270  0.7071
 5904TIP3   OH239202   5.680   3.274  13.001 -0.3017  0.0280  0.4410
 5904TIP3    H139203   5.592   3.314  13.004 -0.7579 -1.0059  3.5913
 5904TIP3    H239204   5.740   3.349  13.000 -1.2073  0.8841  2.8382
 5905TIP3   OH239205   4.008   2.964  13.656  0.5735  0.9157  0.1538
 5905TIP3    H139206   4.007   2.871  13.679  2.9129  1.0123  0.9158
 5905TIP3    H239207   3.992   3.009  13.739  1.1955  1.1957  0.1276
 5906TIP3   OH239208   3.892   6.188   0.258 -0.1134 -0.8414  0.0600
 5906TIP3    H139209   3.889   6.098   0.292 -1.9615 -0.9956 -0.4117
 5906TIP3    H239210   3.800   6.214   0.251  0.3039  0.3474 -1.7411
 5907TIP3   OH239211   4.031   6.103   5.862  0.3297 -0.4378 -0.2432
 5907TIP3    H139212   3.970   6.175   5.873 -0.5198 -1.0219 -0.9211
 5907TIP3    H239213   3.985   6.027   5.897  1.4565 -0.5642  1.0471
 5908TIP3   OH239214   1.973   5.365   1.879 -0.3355  0.2879 -0.7464
 5908TIP3    H139215   2.010   5.450   1.902 -0.4374  0.2830 -0.5642
 5908TIP3    H239216   1.909   5.385   1.810 -1.2409  0.5205  0.1360
 5909TIP3   OH239217   1.835   1.862  11.578 -0.0283  0.5291 -0.6690
 5909TIP3    H139218   1.839   1.896  11.488 -1.3500 -0.1201 -1.0108
 5909TIP3    H239219   1.742   1.865  11.600  0.0683 -0.9202  0.0409
 5910TIP3   OH239220   3.937   5.998   0.447 -0.8610 -0.4279 -0.1265
 5910TIP3    H139221   3.888   6.044   0.515  0.7887  2.2869 -0.6175
 5910TIP3    H239222   4.029   6.015   0.467 -0.2937  1.1876 -3.3355
 5911TIP3   OH239223   0.095   6.219   5.263  0.2462 -0.7921  0.5536
 5911TIP3    H139224   0.029   6.207   5.332 -0.0308 -0.1848  0.4106
 5911TIP3    H239225   0.175   6.243   5.310 -0.2179  0.7296  0.6381
 5912TIP3   OH239226   5.570   3.231  10.807 -0.2578 -0.3905  0.2423
 5912TIP3    H139227   5.560   3.188  10.722  1.7392 -1.0574  0.3016
 5912TIP3    H239228   5.566   3.159  10.871  2.0233 -0.4421  0.4152
 5913TIP3   OH239229   5.796   6.216  14.519 -1.1889  0.2355 -0.2039
 5913TIP3    H139230   5.768   6.245  14.433 -1.4986  0.7726  0.0738
 5913TIP3    H239231   5.885   6.182  14.505 -1.1507  0.5245 -0.6904
 5914TIP3   OH239232   1.277   4.808  11.608  0.9893 -1.1702  0.1165
 5914TIP3    H139233   1.296   4.831  11.699  0.8156 -0.4132 -0.0315
 5914TIP3    H239234   1.289   4.713  11.604  3.6713 -0.9043  0.3001
 5915TIP3   OH239235   1.134   6.750   6.540  0.9547  0.5850  0.4480
 5915TIP3    H139236   1.096   6.789   6.619  0.8080 -0.8405  1.0998
 5915TIP3    H239237   1.065   6.758   6.474  0.6591  0.7737  0.7760
 5916TIP3   OH239238   0.052   6.363   5.896  0.9323 -0.5605  0.3162
 5916TIP3    H139239   0.051   6.300   5.968  3.4618 -0.6345  0.3885
 5916TIP3    H239240   0.075   6.311   5.819  0.4977 -0.1149 -0.1257
 5917TIP3   OH239241   1.162   6.638   1.543  0.3958 -0.5472 -0.1827
 5917TIP3    H139242   1.248   6.637   1.502  0.2767  1.2081 -0.5366
 5917TIP3    H239243   1.101   6.630   1.470  0.1884  2.4054 -0.4541
 5918TIP3   OH239244   3.284   1.299  10.306  0.4874 -0.6868  0.3922
 5918TIP3    H139245   3.203   1.340  10.277  0.5375 -1.6086 -1.1838
 5918TIP3    H239246   3.309   1.347  10.385 -0.4527  1.0062 -0.2976
 5919TIP3   OH239247   3.944   1.586   2.743 -0.2202 -0.4143  0.1020
 5919TIP3    H139248   4.034   1.555   2.749  0.0579  0.5474  1.5101
 5919TIP3    H239249   3.933   1.612   2.651  1.4323  0.8387  0.2195
 5920TIP3   OH239250   5.528   0.381  15.009  0.0786 -0.6010 -0.3917
 5920TIP3    H139251   5.481   0.365  14.927  0.5333  0.3056 -0.8553
 5920TIP3    H239252   5.460   0.409  15.071  0.1842  3.1936 -1.7386
 5921TIP3   OH239253   3.320   6.752  14.245  0.2984 -0.2147 -0.0007
 5921TIP3    H139254   3.299   6.811  14.173  1.1450  0.5534  0.3685
 5921TIP3    H239255   3.300   6.802  14.325 -0.0877 -0.8520  0.3178
 5922TIP3   OH239256   0.498   5.771   3.200 -0.0927  0.4723 -0.2234
 5922TIP3    H139257   0.460   5.846   3.154 -0.1746 -0.3516 -1.5593
 5922TIP3    H239258   0.439   5.755   3.273 -1.4801  0.1758 -1.3743
 5923TIP3   OH239259   2.638   2.715  13.700 -0.1148  0.2181  0.2341
 5923TIP3    H139260   2.726   2.679  13.716  0.5866  1.6440 -0.2624
 5923TIP3    H239261   2.619   2.690  13.610 -1.1095 -1.8227  0.9594
 5924TIP3   OH239262   3.451   1.244   2.957  0.1856 -0.1721 -0.1796
 5924TIP3    H139263   3.543   1.228   2.935 -0.3219 -0.0007 -2.8128
 5924TIP3    H239264   3.437   1.336   2.937 -0.7771 -0.4379 -0.8287
 5925TIP3   OH239265   3.001   1.352  17.031 -0.1720  0.1573 -0.5748
 5925TIP3    H139266   3.093   1.353  17.004  0.0113 -1.6333 -0.1422
 5925TIP3    H239267   2.999   1.407  17.110  0.8358 -0.8822  0.2212
 5926TIP3   OH239268   5.742   1.813   2.866  0.3367  0.6119 -0.8631
 5926TIP3    H139269   5.667   1.787   2.812 -0.6750  0.5411  0.5310
 5926TIP3    H239270   5.773   1.894   2.826 -1.9191  1.8965 -0.1597
 5927TIP3   OH239271   1.930   1.617   0.606 -0.7267  0.0937  0.2472
 5927TIP3    H139272   1.985   1.688   0.575 -2.0932  1.7639  1.4854
 5927TIP3    H239273   1.876   1.593   0.531 -1.0857  1.2017  0.1431
 5928TIP3   OH239274   2.666   5.778   0.311  0.4797 -0.2381  0.0325
 5928TIP3    H139275   2.737   5.766   0.248  0.9938  1.8736  0.1356
 5928TIP3    H239276   2.641   5.870   0.301  1.3450  0.5277  3.6346
 5929TIP3   OH239277   2.688   3.781  11.080  0.2725 -0.9575 -0.2115
 5929TIP3    H139278   2.737   3.856  11.047 -0.3488 -0.5464 -0.2282
 5929TIP3    H239279   2.676   3.725  11.003 -0.6719 -0.2766 -0.5886
 5930TIP3   OH239280   5.746   5.101  16.894 -0.7872 -0.1219 -0.5071
 5930TIP3    H139281   5.823   5.124  16.947 -0.2936  0.2919 -1.3922
 5930TIP3    H239282   5.693   5.047  16.952  1.9791 -3.7827 -1.0357
 5931TIP3   OH239283   3.817   1.201   1.881  0.1481  0.2931  0.3435
 5931TIP3    H139284   3.758   1.154   1.940  0.0401  0.0690  0.0581
 5931TIP3    H239285   3.893   1.144   1.872 -0.4673 -0.3881 -0.9172
 5932TIP3   OH239286   3.636   2.606  13.341  0.2254 -0.0561 -0.2192
 5932TIP3    H139287   3.577   2.641  13.275 -0.4107 -0.0029  0.3669
 5932TIP3    H239288   3.587   2.534  13.381  1.0153 -0.7795 -0.5240
 5933TIP3   OH239289   4.566   1.120   1.752 -0.1592  0.7365  0.2431
 5933TIP3    H139290   4.616   1.186   1.799  0.6816  0.1957  0.1378
 5933TIP3    H239291   4.591   1.131   1.660 -1.4219  1.4697 -0.0396
 5934TIP3   OH239292   4.893   2.609   0.510 -0.5234 -0.1362  0.0925
 5934TIP3    H139293   4.926   2.699   0.505 -0.3211 -0.0101  2.3878
 5934TIP3    H239294   4.956   2.558   0.460  1.4176  0.5759  1.6476
 5935TIP3   OH239295   5.893   2.103  11.262 -0.1395  0.0238  0.3113
 5935TIP3    H139296   5.857   2.015  11.253 -2.0756  0.5855  1.9299
 5935TIP3    H239297   5.955   2.095  11.335 -0.5684  0.0740  0.6821
 5936TIP3   OH239298   3.063   4.956  11.672  0.6358  0.1231  0.0349
 5936TIP3    H139299   2.993   4.900  11.705  0.6891  0.4629  0.7355
 5936TIP3    H239300   3.090   4.914  11.590  1.1118 -1.2485  0.8586
 5937TIP3   OH239301   6.629   0.154  16.001 -0.4066 -0.4459  0.0579
 5937TIP3    H139302   6.708   0.185  16.046 -0.4126 -1.1120  0.5373
 5937TIP3    H239303   6.583   0.103  16.067 -2.3232  1.6480  0.4784
 5938TIP3   OH239304   2.678   0.102   3.138  0.5667 -0.0065 -0.3219
 5938TIP3    H139305   2.656   0.044   3.066 -0.8610 -0.4220  0.4138
 5938TIP3    H239306   2.605   0.093   3.200  1.2006  1.1835  0.6523
 5939TIP3   OH239307   0.559   6.086   3.964  0.0954 -0.0123  1.0757
 5939TIP3    H139308   0.569   6.091   4.059  2.1142 -1.4154  1.0049
 5939TIP3    H239309   0.465   6.068   3.951 -0.1988  0.0899  2.7916
 5940TIP3   OH239310   5.814   5.923  12.319 -0.4546  0.8760 -0.1280
 5940TIP3    H139311   5.863   5.950  12.241 -2.5527  0.0660 -1.8263
 5940TIP3    H239312   5.755   5.996  12.337  0.6104  1.4372  1.3187
 5941TIP3   OH239313   6.818   5.686  14.328 -0.0784  0.2489 -0.1178
 5941TIP3    H139314   6.896   5.712  14.378 -0.1433  0.5628 -0.1737
 5941TIP3    H239315   6.749   5.746  14.360 -0.9079 -1.5202  1.6503
 5942TIP3   OH239316   1.447   1.083   3.885  0.3837 -1.1494  0.7041
 5942TIP3    H139317   1.372   1.041   3.843 -0.5451 -0.4304  1.6037
 5942TIP3    H239318   1.523   1.045   3.841 -0.5235 -0.4813 -1.5926
 5943TIP3   OH239319   6.551   0.951   6.169  0.3225 -0.2556  0.1418
 5943TIP3    H139320   6.628   0.946   6.225  1.2200 -1.6535 -1.1457
 5943TIP3    H239321   6.492   0.884   6.204 -0.0320  0.3263  0.6866
 5944TIP3   OH239322   4.216   3.750   4.785 -0.0681  0.0667  0.0666
 5944TIP3    H139323   4.168   3.727   4.706 -0.3422 -0.0406  0.2630
 5944TIP3    H239324   4.148   3.769   4.850  0.1331  1.6284 -0.1323
 5945TIP3   OH239325   5.816   0.662   1.056  0.3314 -0.4935  0.1048
 5945TIP3    H139326   5.808   0.633   0.965 -1.1682 -3.2053  0.9762
 5945TIP3    H239327   5.726   0.685   1.080  0.8337  0.8682  0.7361
 5946TIP3   OH239328   5.795   1.806  16.535 -0.5179  0.0911  0.5219
 5946TIP3    H139329   5.868   1.867  16.543  0.8951 -1.7329  3.0693
 5946TIP3    H239330   5.826   1.738  16.475 -0.8008  0.1784  0.2729
 5947TIP3   OH239331   6.615   4.680  15.371 -0.1467  0.3280  0.7348
 5947TIP3    H139332   6.627   4.604  15.314  1.9334  0.1644  1.2981
 5947TIP3    H239333   6.702   4.721  15.376 -0.4465  0.8536  3.0520
 5948TIP3   OH239334   3.806   2.125  12.434 -0.4401  0.1556 -1.2684
 5948TIP3    H139335   3.769   2.198  12.383 -1.8389 -0.3750 -1.0480
 5948TIP3    H239336   3.882   2.163  12.477 -1.7848  1.8459 -0.2174
 5949TIP3   OH239337   0.903   5.028  15.968  0.0212  0.0962  0.0011
 5949TIP3    H139338   0.935   4.939  15.952  2.0663  0.9916 -1.2080
 5949TIP3    H239339   0.980   5.084  15.958 -1.4065  2.1248 -0.3471
 5950TIP3   OH239340   6.274   5.425   2.610  0.2616  0.2383 -0.6191
 5950TIP3    H139341   6.305   5.379   2.532  0.2629 -1.3069  0.2488
 5950TIP3    H239342   6.179   5.418   2.606  0.2612  0.1662 -0.4959
 5951TIP3   OH239343   0.747   0.555   4.790  0.1733 -0.2943 -0.6302
 5951TIP3    H139344   0.803   0.492   4.746  0.9191 -0.2513  0.2291
 5951TIP3    H239345   0.659   0.538   4.755  0.1187 -2.6177  0.4252
 5952TIP3   OH239346   3.699   0.977   2.265 -0.5607 -0.6561  0.0487
 5952TIP3    H139347   3.688   0.884   2.248 -1.2177 -0.3513 -1.3762
 5952TIP3    H239348   3.616   1.005   2.302 -0.4519 -0.5935  0.2442
 5953TIP3   OH239349   1.347   5.959   1.450 -0.3224 -0.1169 -0.2476
 5953TIP3    H139350   1.347   5.937   1.543  2.1789  1.3928  0.1987
 5953TIP3    H239351   1.307   6.045   1.446 -0.3995 -0.1681 -0.5752
 5954TIP3   OH239352   2.256   0.274   4.741 -0.0102 -0.3070 -0.7114
 5954TIP3    H139353   2.166   0.279   4.772  0.2168  0.5752 -0.1616
 5954TIP3    H239354   2.248   0.256   4.647 -0.7163 -1.8911 -0.3814
 5955TIP3   OH239355   0.228   6.317  16.636 -0.7670 -0.4686 -0.1416
 5955TIP3    H139356   0.213   6.405  16.672  0.3331 -0.8245  1.2771
 5955TIP3    H239357   0.140   6.281  16.626 -1.3365  1.3268 -2.2653
 5956TIP3   OH239358   1.580   0.166  16.962  0.1912  0.3129 -0.0107
 5956TIP3    H139359   1.574   0.074  16.989 -1.7038  0.3136 -0.2918
 5956TIP3    H239360   1.508   0.177  16.901  1.0781  1.7293 -0.8470
 5957TIP3   OH239361   6.422   3.728  16.443 -0.2895  0.6965  0.0263
 5957TIP3    H139362   6.488   3.728  16.512 -1.5133  0.0470  1.2378
 5957TIP3    H239363   6.386   3.639  16.445  0.6054  0.1861 -2.4305
 5958TIP3   OH239364   6.481   5.877   0.209  0.1331  0.0725 -0.7551
 5958TIP3    H139365   6.401   5.827   0.191 -0.1130  0.0620  0.3513
 5958TIP3    H239366   6.452   5.950   0.264  1.1597 -1.0171  1.3212
 5959TIP3   OH239367   6.370   4.226   3.425 -0.5497  0.5833 -0.5966
 5959TIP3    H139368   6.335   4.208   3.512  0.9025 -1.5680 -0.3698
 5959TIP3    H239369   6.455   4.183   3.424  0.4259  2.3768 -2.3868
 5960TIP3   OH239370   3.475   2.072   3.702  0.1612  0.1694 -0.0641
 5960TIP3    H139371   3.441   2.158   3.728 -0.7964 -0.1633 -0.1804
 5960TIP3    H239372   3.445   2.061   3.612 -1.3391 -1.0827  0.5495
 5961TIP3   OH239373   0.139   6.862  11.840 -0.0327  0.4418 -0.0971
 5961TIP3    H139374   0.154   6.821  11.925  0.5905  1.1164  0.1233
 5961TIP3    H239375   0.140   6.956  11.857  1.9572  0.6578 -1.1208
 5962TIP3   OH239376   4.445   4.316  13.764  0.3218  0.4457  0.5040
 5962TIP3    H139377   4.531   4.284  13.791 -0.3086 -0.7246  1.1987
 5962TIP3    H239378   4.443   4.303  13.670  0.1617 -1.4810  0.7301
 5963TIP3   OH239379   0.460   3.656   4.678 -0.3220 -0.1008 -0.0916
 5963TIP3    H139380   0.392   3.604   4.720 -0.4819  1.4029  1.6325
 5963TIP3    H239381   0.436   3.655   4.585 -1.6659 -1.0761  0.2247
 5964TIP3   OH239382   6.332   2.533  10.371 -0.5016  0.0562 -0.0246
 5964TIP3    H139383   6.260   2.525  10.433  0.0051 -0.5913  0.4983
 5964TIP3    H239384   6.320   2.461  10.309 -1.3572  1.0613 -1.0816
 5965TIP3   OH239385   4.471   3.662   0.283 -0.0890 -0.2765 -0.3507
 5965TIP3    H139386   4.470   3.574   0.321 -0.5998 -0.5492 -0.9782
 5965TIP3    H239387   4.445   3.650   0.192  0.2557  0.4779 -0.5641
 5966TIP3   OH239388   2.249   1.263   0.301 -0.4272 -0.2541  0.4289
 5966TIP3    H139389   2.175   1.281   0.357  0.0241  0.9487  0.6781
 5966TIP3    H239390   2.236   1.173   0.270 -2.1714  0.0710  0.1545
 5967TIP3   OH239391   5.066   2.130  11.680  0.6235 -0.1715  0.0092
 5967TIP3    H139392   5.053   2.040  11.709 -0.0686 -0.8536 -2.2729
 5967TIP3    H239393   5.154   2.131  11.642  1.6841  0.8157  2.2927
 5968TIP3   OH239394   5.996   6.152   4.408  0.3434  0.1386 -0.2018
 5968TIP3    H139395   5.965   6.171   4.319 -0.1083  0.2352 -0.0226
 5968TIP3    H239396   5.934   6.088   4.443  1.5485 -1.3070 -0.6040
 5969TIP3   OH239397   5.130   4.551  13.570  0.1876  0.6473 -0.1864
 5969TIP3    H139398   5.173   4.567  13.486 -0.5681  1.5209 -0.4250
 5969TIP3    H239399   5.085   4.468  13.559  2.0356 -0.4631  0.1801
 5970TIP3   OH239400   1.532   1.081  14.982  0.5663  0.0209 -0.2561
 5970TIP3    H139401   1.534   0.995  14.940  0.8267  0.0524 -0.3112
 5970TIP3    H239402   1.624   1.099  15.004  0.4541  0.0729  0.1868
 5971TIP3   OH239403   5.257   2.958   0.205 -0.1595 -0.5609  0.0271
 5971TIP3    H139404   5.339   3.006   0.218  0.7461 -1.1828 -2.7722
 5971TIP3    H239405   5.263   2.885   0.266  1.7697 -1.0135 -0.6200
 5972TIP3   OH239406   1.409   0.138  12.230  0.6774  0.2250 -0.1656
 5972TIP3    H139407   1.444   0.192  12.301 -0.6623 -0.0840  0.7619
 5972TIP3    H239408   1.428   0.188  12.151 -0.7040  2.1947  0.6682
 5973TIP3   OH239409   1.081   5.973   1.210  0.2394  0.0437 -0.1644
 5973TIP3    H139410   1.080   6.020   1.293 -0.8826  0.6431 -0.4853
 5973TIP3    H239411   1.143   6.022   1.155  0.2083  0.2512 -0.0134
 5974TIP3   OH239412   1.465   4.819   5.609 -0.0482 -0.1091 -0.2989
 5974TIP3    H139413   1.496   4.864   5.531  1.0736 -0.5984 -0.1609
 5974TIP3    H239414   1.535   4.756   5.630 -0.5025 -0.2600  0.8619
 5975TIP3   OH239415   3.004   0.644  10.897  0.5383  0.7354 -0.0063
 5975TIP3    H139416   2.948   0.713  10.935  1.8121  1.7825  0.0236
 5975TIP3    H239417   2.942   0.576  10.869 -0.5710  0.1864  3.2813
 5976TIP3   OH239418   6.166   4.616  15.391  0.8244  0.5848  0.5111
 5976TIP3    H139419   6.198   4.642  15.305  0.2819 -1.8052 -0.4890
 5976TIP3    H239420   6.085   4.568  15.374  0.9161 -0.3152  2.3167
 5977TIP3   OH239421   2.748   1.975   2.845 -0.0499 -0.3457 -0.5839
 5977TIP3    H139422   2.752   1.880   2.850 -0.3771 -0.3692 -0.7485
 5977TIP3    H239423   2.745   1.994   2.751  1.3322 -0.1164 -0.6000
 5978TIP3   OH239424   6.537   2.104  11.882 -0.1273 -0.1020  0.4695
 5978TIP3    H139425   6.626   2.094  11.848 -0.4769 -1.3080 -0.1481
 5978TIP3    H239426   6.542   2.178  11.942  1.0353  0.5829 -0.4409
 5979TIP3   OH239427   2.264   3.751  11.071  0.5043  0.8862 -0.4841
 5979TIP3    H139428   2.260   3.843  11.045 -0.5898  1.2868  0.9951
 5979TIP3    H239429   2.244   3.703  10.990  0.8970  1.9356 -1.2314
 5980TIP3   OH239430   6.507   0.070  13.167  0.2866  0.3406 -0.0398
 5980TIP3    H139431   6.557   0.124  13.106 -0.3757  0.8285 -0.1664
 5980TIP3    H239432   6.549  -0.016  13.162  1.3167  0.8169  0.1219
 5981TIP3   OH239433   0.269   2.890   5.113 -0.4131 -0.3575  0.6549
 5981TIP3    H139434   0.351   2.840   5.109  0.4290  1.0179 -1.0282
 5981TIP3    H239435   0.297   2.979   5.133 -1.6148 -0.0528  1.0286
 5982TIP3   OH239436   1.502   5.931   1.744  0.2776  0.0328  0.4386
 5982TIP3    H139437   1.550   5.942   1.826 -0.3584  2.7584  0.5581
 5982TIP3    H239438   1.411   5.951   1.767 -0.2360 -1.0819 -0.5639
 5983TIP3   OH239439   4.008   5.315  14.860 -0.0968 -0.0122  0.0675
 5983TIP3    H139440   3.997   5.391  14.918 -1.0609 -1.4680  1.8987
 5983TIP3    H239441   3.935   5.257  14.882  1.0042 -1.8030 -0.7674
 5984TIP3   OH239442   2.249   2.327   5.582  0.4720 -0.2625  0.4386
 5984TIP3    H139443   2.228   2.418   5.559 -0.3084 -0.8261 -1.2850
 5984TIP3    H239444   2.344   2.324   5.583  0.5109  0.7056  1.1533
 5985TIP3   OH239445   6.146   5.403   5.289 -0.7111 -0.7557  0.1567
 5985TIP3    H139446   6.195   5.437   5.364 -0.0898 -1.0037 -0.1215
 5985TIP3    H239447   6.062   5.448   5.292 -0.5112 -0.4082  0.7234
 5986TIP3   OH239448   2.056   1.904  16.001 -0.7443  0.3152  0.1412
 5986TIP3    H139449   2.106   1.977  15.965 -0.1811  0.5096  1.2709
 5986TIP3    H239450   2.121   1.838  16.024 -1.2689 -0.6596 -1.0711
 5987TIP3   OH239451   5.234   5.403  12.994  0.5908  0.3350  0.0948
 5987TIP3    H139452   5.310   5.390  13.050  0.6886  2.8746  0.6568
 5987TIP3    H239453   5.265   5.383  12.906  1.2693 -0.7999  0.5753
 5988TIP3   OH239454   6.360   5.153   5.943 -0.1734  0.3889 -0.1819
 5988TIP3    H139455   6.322   5.199   6.018  0.4584  1.9231 -0.7618
 5988TIP3    H239456   6.284   5.120   5.895 -0.5893 -0.8412  1.2155
 5989TIP3   OH239457   4.823   3.858  15.491 -0.3926 -0.0373 -0.0626
 5989TIP3    H139458   4.884   3.833  15.560  1.8700  3.0719 -0.7229
 5989TIP3    H239459   4.737   3.856  15.533  0.6604 -0.2166  2.2209
 5990TIP3   OH239460   5.608   2.014   1.568  0.2063 -0.4786  0.2855
 5990TIP3    H139461   5.660   2.065   1.630  0.0372  0.0050  0.0315
 5990TIP3    H239462   5.666   1.942   1.542  0.2292 -0.7753  1.1136
 5991TIP3   OH239463   6.618   3.066  13.669  0.1421  0.6186 -0.0826
 5991TIP3    H139464   6.691   3.045  13.611 -0.7172  1.7179 -1.6368
 5991TIP3    H239465   6.540   3.033  13.624 -0.3443 -0.6286  1.5965
 5992TIP3   OH239466   4.793   4.671  12.470  0.1473  0.6122  0.1878
 5992TIP3    H139467   4.879   4.672  12.429 -0.3188  1.3542 -0.8249
 5992TIP3    H239468   4.809   4.643  12.560  1.2729 -0.5708 -0.3392
 5993TIP3   OH239469   6.680   1.474   3.129  0.2963 -0.2662  0.2167
 5993TIP3    H139470   6.722   1.419   3.063  1.2201  0.5984  0.0647
 5993TIP3    H239471   6.736   1.552   3.135 -1.4292  1.0555 -0.1868
 5994TIP3   OH239472   4.360   5.924   4.805 -0.1404  0.4913  0.1554
 5994TIP3    H139473   4.280   5.964   4.771 -1.2577 -0.9491  0.9438
 5994TIP3    H239474   4.336   5.893   4.893  0.8617 -1.1476 -0.1061
 5995TIP3   OH239475   5.512   2.692   4.315 -0.0389  1.2096  0.2102
 5995TIP3    H139476   5.491   2.607   4.276  0.0916 -0.1237  2.7858
 5995TIP3    H239477   5.456   2.754   4.269 -2.9771 -0.8574  0.7144
 5996TIP3   OH239478   5.384   5.719   4.860 -0.2822 -0.3421  0.0750
 5996TIP3    H139479   5.430   5.788   4.812 -0.2351 -0.8817 -0.6687
 5996TIP3    H239480   5.323   5.767   4.917  1.5042  0.3984  1.4488
 5997TIP3   OH239481   0.511   4.107  12.427  0.3993  0.0437  0.2143
 5997TIP3    H139482   0.579   4.173  12.412 -0.8334  1.0588 -1.1203
 5997TIP3    H239483   0.444   4.127  12.362 -0.6710 -1.6366  0.7670
 5998TIP3   OH239484   2.844   4.598  14.363 -0.7631  0.5116  0.1987
 5998TIP3    H139485   2.876   4.540  14.432 -1.6248  0.2342  0.3751
 5998TIP3    H239486   2.836   4.684  14.405 -1.0543  0.3970  0.3739
 5999TIP3   OH239487   6.069   6.650   0.563 -0.0014 -0.0046  0.3913
 5999TIP3    H139488   6.149   6.618   0.606 -0.6822  0.8992  2.5015
 5999TIP3    H239489   5.998   6.604   0.608 -0.7794  1.2535  0.4914
 6000TIP3   OH239490   4.797   2.905   5.951  0.2841  0.1455 -0.6046
 6000TIP3    H139491   4.843   2.829   5.917 -0.0583 -1.2480  1.8288
 6000TIP3    H239492   4.743   2.935   5.878  0.8343 -1.6053 -1.7923
 6001TIP3   OH239493   0.552   6.144   4.978  0.5075 -0.3726 -0.7164
 6001TIP3    H139494   0.573   6.074   4.916  0.1166 -1.4725  0.3298
 6001TIP3    H239495   0.457   6.138   4.989  0.6479 -0.6660  0.4783
 6002TIP3   OH239496   2.316   4.155   3.006  0.5383  0.0820 -0.0924
 6002TIP3    H139497   2.282   4.188   3.089 -0.6989  1.0848 -0.9537
 6002TIP3    H239498   2.408   4.183   3.005  0.1678  1.3668  0.2956
 6003TIP3   OH239499   0.324   1.545   3.551  0.3883  0.2501 -0.2131
 6003TIP3    H139500   0.324   1.450   3.540  2.0983 -0.0417  1.7390
 6003TIP3    H239501   0.232   1.571   3.543 -0.5131 -1.9555  2.0238
 6004TIP3   OH239502   5.013   5.734  12.392 -0.3193 -0.0842  0.3563
 6004TIP3    H139503   5.024   5.798  12.322 -1.5919  0.7073  0.8467
 6004TIP3    H239504   4.921   5.707  12.386 -0.2804 -0.4876  1.3015
 6005TIP3   OH239505   3.864   1.312   4.847  0.3918  0.0067 -0.6187
 6005TIP3    H139506   3.829   1.255   4.779  3.1099 -0.0341 -2.1538
 6005TIP3    H239507   3.820   1.396   4.834 -1.5895 -0.9027 -0.1518
 6006TIP3   OH239508   5.754   2.152  13.983  0.1693 -0.3309  0.0249
 6006TIP3    H139509   5.718   2.074  13.940 -0.5616  0.2830 -0.4948
 6006TIP3    H239510   5.772   2.123  14.073  1.6790 -1.6213 -0.6386
 6007TIP3   OH239511   0.735   2.993   2.145  0.6372 -0.1434  0.0809
 6007TIP3    H139512   0.700   2.973   2.232 -0.4546 -0.2495 -0.3692
 6007TIP3    H239513   0.812   2.937   2.136 -0.4028 -1.6243  0.1915
 6008TIP3   OH239514   4.764   4.537  14.619  0.1505  0.2370  0.2715
 6008TIP3    H139515   4.685   4.502  14.578  1.2486 -0.4964 -1.2965
 6008TIP3    H239516   4.815   4.460  14.644  0.0527  0.6836  2.0386
 6009TIP3   OH239517   5.185   5.525  15.493 -0.3881  0.0995  0.2461
 6009TIP3    H139518   5.269   5.540  15.537 -0.2792 -0.5729  0.2800
 6009TIP3    H239519   5.119   5.554  15.556 -0.2221 -0.5593  0.7364
 6010TIP3   OH239520   5.249   2.791  15.906  0.1029  0.6684  0.4954
 6010TIP3    H139521   5.278   2.790  15.815 -0.7845  0.9621  0.1980
 6010TIP3    H239522   5.198   2.711  15.916 -1.7245  1.7271  0.0622
 6011TIP3   OH239523   3.752   2.568  16.095  0.0402 -0.5963 -1.1497
 6011TIP3    H139524   3.787   2.640  16.148 -2.5299  0.3169 -0.5117
 6011TIP3    H239525   3.808   2.565  16.018  0.6659  1.6533 -0.8594
 6012TIP3   OH239526   4.056   4.881  12.056 -0.0557  0.1802 -0.2682
 6012TIP3    H139527   4.117   4.954  12.045 -0.5561  0.6962  0.3333
 6012TIP3    H239528   4.082   4.819  11.988 -0.0255  1.1943 -1.2114
 6013TIP3   OH239529   5.959   3.659  14.431  0.1171 -0.2806  0.1703
 6013TIP3    H139530   5.910   3.593  14.479 -1.3621  0.0939 -0.7542
 6013TIP3    H239531   6.048   3.624  14.426 -0.6989 -2.4072 -0.6361
 6014TIP3   OH239532   2.972   3.091   0.771  0.0279  0.0666  0.5345
 6014TIP3    H139533   3.009   3.031   0.837  1.2716  0.8794  0.5956
 6014TIP3    H239534   2.884   3.111   0.804 -0.4159 -1.6756  0.5329
 6015TIP3   OH239535   0.485   2.648  16.590 -0.6331  0.0139 -0.6634
 6015TIP3    H139536   0.483   2.638  16.495 -1.4082 -0.8069 -0.5679
 6015TIP3    H239537   0.414   2.593  16.622 -0.2526  0.1204  0.4140
 6016TIP3   OH239538   3.789   4.775  15.031 -0.4497 -0.3600 -0.0080
 6016TIP3    H139539   3.814   4.859  15.068 -1.4359 -0.1006  0.0868
 6016TIP3    H239540   3.693   4.775  15.033 -0.4710 -1.8068  0.7386
 6017TIP3   OH239541   4.028   4.597   0.256 -0.3717  0.7325  0.3477
 6017TIP3    H139542   3.937   4.625   0.261 -1.9038 -3.6186  2.8794
 6017TIP3    H239543   4.026   4.517   0.203  2.0012  0.5481  0.4250
 6018TIP3   OH239544   3.348   6.117  10.691 -0.3862  0.1468  0.3269
 6018TIP3    H139545   3.281   6.069  10.643 -1.2130  2.0723 -0.5291
 6018TIP3    H239546   3.303   6.195  10.725  0.9501  0.4772  1.4718
 6019TIP3   OH239547   5.692   0.934   4.002  0.1532  0.4081 -0.4299
 6019TIP3    H139548   5.726   0.962   3.917  0.5260 -0.4165 -0.5601
 6019TIP3    H239549   5.727   0.998   4.064 -1.3284  1.8981 -1.0552
 6020TIP3   OH239550   1.250   0.912  14.365 -0.1445 -0.3610  0.2297
 6020TIP3    H139551   1.299   0.903  14.447  1.4074  2.0012 -0.3488
 6020TIP3    H239552   1.176   0.969  14.388  0.2735  0.2758  0.0356
 6021TIP3   OH239553   2.981   0.082  16.115 -0.4682 -0.4131  0.2868
 6021TIP3    H139554   3.006   0.072  16.207 -3.0610  0.8306  1.2111
 6021TIP3    H239555   2.889   0.057  16.111 -0.8074  0.8864 -1.7051
 6022TIP3   OH239556   2.320   6.641   0.925  0.3602 -0.5750 -0.8086
 6022TIP3    H139557   2.292   6.729   0.901  0.6141 -0.6229 -1.3094
 6022TIP3    H239558   2.350   6.603   0.842  2.1171 -0.4507 -0.2733
 6023TIP3   OH239559   4.877   5.588   1.036 -0.4479  0.6483 -0.0825
 6023TIP3    H139560   4.880   5.494   1.017  1.2643  0.5886  0.2505
 6023TIP3    H239561   4.834   5.627   0.961 -1.3903 -0.4208 -0.1229
 6024TIP3   OH239562   4.559   1.810   3.575 -0.0964  0.4557 -0.3809
 6024TIP3    H139563   4.609   1.884   3.610  1.3032  1.2571 -3.6787
 6024TIP3    H239564   4.510   1.846   3.501 -1.0586 -1.4965 -0.7665
 6025TIP3   OH239565   1.871   0.957   1.266 -0.0528  0.1583  0.4860
 6025TIP3    H139566   1.829   0.936   1.349  0.7536  0.2891  0.9400
 6025TIP3    H239567   1.924   0.879   1.246 -0.0741  0.2135  0.2039
 6026TIP3   OH239568   3.033   1.131   3.292 -0.0778  0.2299 -0.0421
 6026TIP3    H139569   3.119   1.102   3.264  0.6742  0.4653  1.8609
 6026TIP3    H239570   3.050   1.195   3.362 -1.7761  0.5054  0.1780
 6027TIP3   OH239571   6.648   3.940  16.871 -0.4576 -0.1042 -0.1322
 6027TIP3    H139572   6.692   3.908  16.950  2.2831 -1.1552 -1.9433
 6027TIP3    H239573   6.625   3.862  16.822 -0.9430  0.5492 -0.9765
 6028TIP3   OH239574   1.351   5.369  14.337  0.1600 -0.7430  0.1715
 6028TIP3    H139575   1.435   5.384  14.295 -0.8529  2.5442 -1.0429
 6028TIP3    H239576   1.294   5.338  14.266 -0.2124 -0.5671  0.3885
 6029TIP3   OH239577   3.452   4.538   1.261  0.7185  0.2919 -0.4688
 6029TIP3    H139578   3.375   4.580   1.223 -0.6931 -1.0499  0.7529
 6029TIP3    H239579   3.417   4.461   1.306  2.6582  0.1955  0.9815
 6030TIP3   OH239580   4.533   3.660  13.703  0.7642 -1.1747 -0.3281
 6030TIP3    H139581   4.539   3.756  13.703  1.1049 -1.1973 -0.7729
 6030TIP3    H239582   4.454   3.641  13.653  0.6148 -1.1253 -0.1157
 6031TIP3   OH239583   3.143   5.604   0.907 -0.0604  0.2129 -0.2772
 6031TIP3    H139584   3.089   5.525   0.898 -0.5394  0.3953  0.8292
 6031TIP3    H239585   3.080   5.673   0.926  0.4312  0.7346 -0.5249
 6032TIP3   OH239586   1.569   4.095   1.053  0.4227 -0.7322  0.6950
 6032TIP3    H139587   1.604   4.011   1.024 -0.7522 -0.2195 -2.6689
 6032TIP3    H239588   1.646   4.151   1.065  1.1671 -0.6979 -2.9137
 6033TIP3   OH239589   3.247   4.447   0.084  0.5298  0.0136 -0.0058
 6033TIP3    H139590   3.266   4.527   0.034  0.5655 -0.9347 -1.5617
 6033TIP3    H239591   3.276   4.468   0.173 -3.3360  3.2989  0.7680
 6034TIP3   OH239592   2.243   3.869   4.419 -0.1847  0.2079  0.1633
 6034TIP3    H139593   2.335   3.844   4.427 -0.6295 -1.4784  0.4827
 6034TIP3    H239594   2.245   3.957   4.381  1.5781  0.7889  1.4515
 6035TIP3   OH239595   4.312   3.085  11.247 -0.3739  0.0590  0.6565
 6035TIP3    H139596   4.222   3.082  11.217 -0.2322  0.8433  0.1096
 6035TIP3    H239597   4.352   3.004  11.215 -0.2288  0.8537 -1.3168
 6036TIP3   OH239598   3.254   1.485   0.678  0.3925  0.1767  0.1252
 6036TIP3    H139599   3.317   1.419   0.709 -0.2043 -1.0255 -1.1140
 6036TIP3    H239600   3.218   1.447   0.598 -1.2522  1.2512  0.3168
 6037TIP3   OH239601   5.282   2.240   1.816 -0.5785 -0.2224  0.8631
 6037TIP3    H139602   5.281   2.179   1.742 -0.3484  0.8742 -0.0814
 6037TIP3    H239603   5.219   2.308   1.792  1.2921  1.4891  0.4461
 6038TIP3   OH239604   6.518   1.320   2.565 -0.4715 -0.0625 -0.2213
 6038TIP3    H139605   6.551   1.381   2.498  0.7812 -0.7623 -0.2719
 6038TIP3    H239606   6.472   1.376   2.627 -0.0331  0.8450 -0.6859
 6039TIP3   OH239607   3.218   0.475  12.132  0.5761  0.2460  0.3058
 6039TIP3    H139608   3.183   0.501  12.218 -2.2612  1.2391 -1.0230
 6039TIP3    H239609   3.230   0.380  12.139 -0.4733  0.1715  1.5309
 6040TIP3   OH239610   3.522   0.397   3.997  0.7000  0.0831  0.0346
 6040TIP3    H139611   3.587   0.459   3.965  0.6319  0.3414  0.3944
 6040TIP3    H239612   3.438   0.439   3.980  0.6246 -0.2180 -0.3607
 6041TIP3   OH239613   0.528   4.617   4.479 -0.7844 -0.3722  0.2256
 6041TIP3    H139614   0.448   4.662   4.450 -1.9385 -2.4915 -0.0838
 6041TIP3    H239615   0.544   4.552   4.411  0.6219 -0.6810  0.8329
 6042TIP3   OH239616   1.042   6.002   3.020  0.3191 -0.0244  0.5961
 6042TIP3    H139617   0.983   6.038   3.086 -0.5157 -2.1021  1.0540
 6042TIP3    H239618   1.015   6.044   2.938 -0.4438  0.5443  1.1297
 6043TIP3   OH239619   6.545   0.526   6.208  0.3060 -0.0705  0.2018
 6043TIP3    H139620   6.625   0.554   6.253  0.0387  1.1479 -0.0372
 6043TIP3    H239621   6.484   0.599   6.220 -1.4354 -1.7027  1.9467
 6044TIP3   OH239622   3.162   2.438   2.330 -0.8922 -0.4106 -0.3442
 6044TIP3    H139623   3.186   2.349   2.356  0.3069  0.4998  1.9791
 6044TIP3    H239624   3.238   2.472   2.283  0.3300  0.6201  2.1988
 6045TIP3   OH239625   0.787   5.982  12.508  0.2184  0.1317 -0.1426
 6045TIP3    H139626   0.743   5.998  12.424  1.4010 -2.4704 -1.3426
 6045TIP3    H239627   0.865   5.932  12.486 -0.0305 -1.6766  2.6227
 6046TIP3   OH239628   6.552   1.850   3.462  0.0116  0.6619  0.1820
 6046TIP3    H139629   6.584   1.805   3.541  0.3137 -0.3842 -0.5183
 6046TIP3    H239630   6.537   1.940   3.491 -1.0314  0.0413  1.7400
 6047TIP3   OH239631   5.373   5.884   0.513 -0.3639  0.2357 -0.0324
 6047TIP3    H139632   5.425   5.828   0.571 -2.0166 -1.8988 -0.4892
 6047TIP3    H239633   5.345   5.957   0.568  0.1968 -0.4116  1.1477
 6048TIP3   OH239634   0.839   0.058   3.573  0.2338 -0.1924  0.2939
 6048TIP3    H139635   0.763  -0.001   3.572 -0.7327  0.8578 -3.0274
 6048TIP3    H239636   0.909   0.007   3.613 -1.5505 -2.1602  1.0858
 6049TIP3   OH239637   4.974   0.363  12.853  0.7810  0.3067  0.1461
 6049TIP3    H139638   4.909   0.318  12.799  0.0360  2.1647 -0.5853
 6049TIP3    H239639   4.934   0.448  12.873  2.4625  0.9952  0.7532
 6050TIP3   OH239640   2.438   0.100  11.415  0.6511  0.0933  0.2000
 6050TIP3    H139641   2.347   0.127  11.397  0.8616  1.2411  0.7575
 6050TIP3    H239642   2.468   0.162  11.481  2.2006  0.4346 -0.7722
 6051TIP3   OH239643   6.434   4.539   4.566 -0.0321 -0.0278 -0.0078
 6051TIP3    H139644   6.397   4.585   4.491 -0.2216  1.0775  0.7369
 6051TIP3    H239645   6.457   4.608   4.628  0.9679 -0.8551  0.5875
 6052TIP3   OH239646   0.615   0.766   0.652  0.2208 -0.0917  0.0104
 6052TIP3    H139647   0.552   0.701   0.621  0.9531 -1.1476  0.6806
 6052TIP3    H239648   0.561   0.835   0.690 -0.5782 -0.2194 -0.8459
 6053TIP3   OH239649   3.303   0.696  11.552 -1.3752 -0.0987  0.0272
 6053TIP3    H139650   3.343   0.695  11.465 -0.6782  2.2225  0.2481
 6053TIP3    H239651   3.372   0.729  11.610 -0.9805 -3.8864  2.0165
 6054TIP3   OH239652   3.369   5.469  13.807  0.0448  0.5308  0.1453
 6054TIP3    H139653   3.338   5.498  13.893  0.3890  0.9115  0.1424
 6054TIP3    H239654   3.369   5.548  13.753 -1.4260  0.0665 -0.5937
 6055TIP3   OH239655   5.030   6.596  11.532  0.2864  0.0005  0.3374
 6055TIP3    H139656   5.014   6.526  11.596 -1.7943 -0.3708 -0.4941
 6055TIP3    H239657   5.089   6.556  11.468  3.6568  0.8573  2.6768
 6056TIP3   OH239658   1.532   6.480   3.539 -0.3867 -0.1942 -0.1121
 6056TIP3    H139659   1.438   6.497   3.553 -0.0573  1.4427  0.3610
 6056TIP3    H239660   1.551   6.519   3.454 -0.2502 -1.0459 -0.4766
 6057TIP3   OH239661   1.059   0.194  14.903 -0.2308  0.6058 -0.0455
 6057TIP3    H139662   1.118   0.192  14.828 -1.0300  0.9973 -0.6956
 6057TIP3    H239663   1.094   0.262  14.960  0.5268  0.1298  0.0660
 6058TIP3   OH239664   1.080   3.352  16.238 -0.1354  0.0327 -0.1726
 6058TIP3    H139665   1.087   3.314  16.151  0.6841 -0.4939  0.1128
 6058TIP3    H239666   0.988   3.374  16.248 -0.8059 -2.6024 -0.0487
 6059TIP3   OH239667   1.122   0.339   2.317  0.3744  0.3844  0.7401
 6059TIP3    H139668   1.124   0.257   2.366  1.2219  1.2787  2.2767
 6059TIP3    H239669   1.204   0.338   2.267  0.6145  0.5062  1.1277
 6060TIP3   OH239670   3.977   2.701   3.202 -0.0885 -0.2066  0.1706
 6060TIP3    H139671   4.069   2.726   3.215 -0.0483  0.1539 -0.7582
 6060TIP3    H239672   3.980   2.606   3.189  0.4284  0.0495 -2.0133
 6061TIP3   OH239673   6.350   0.893  11.508 -0.5810 -0.1333 -0.3183
 6061TIP3    H139674   6.279   0.957  11.512 -2.1754 -1.7690 -0.9677
 6061TIP3    H239675   6.306   0.809  11.489  1.4190 -1.4120  0.3713
 6062TIP3   OH239676   1.525   6.292   1.391 -0.8475 -0.6619 -0.4155
 6062TIP3    H139677   1.569   6.230   1.449  0.7174  0.2919 -0.5333
 6062TIP3    H239678   1.438   6.305   1.430 -0.6937 -1.8419  0.3643
 6063TIP3   OH239679   6.202   6.784   1.280  0.1760 -0.0170  0.2603
 6063TIP3    H139680   6.281   6.780   1.334  0.5964 -0.9726 -0.3912
 6063TIP3    H239681   6.228   6.838   1.204 -0.3567  1.1700  0.8900
 6064TIP3   OH239682   0.665   2.553  12.690  0.0488  0.1150 -0.3264
 6064TIP3    H139683   0.598   2.595  12.744 -0.3472  0.7169 -1.2605
 6064TIP3    H239684   0.629   2.555  12.602  1.6359  1.1999 -0.9892
 6065TIP3   OH239685   0.308   1.754  12.559 -0.1849 -0.1606  0.2567
 6065TIP3    H139686   0.317   1.849  12.574 -0.7272 -0.0745  0.0433
 6065TIP3    H239687   0.327   1.715  12.644  1.7991  0.0212 -0.0443
 6066TIP3   OH239688   6.822   3.553  13.766  0.1489  0.2014  0.3571
 6066TIP3    H139689   6.855   3.542  13.856  2.0498  0.3495 -0.2848
 6066TIP3    H239690   6.804   3.464  13.736 -2.6527  0.2441  1.5750
 6067TIP3   OH239691   3.254   4.353  13.188 -0.6004  0.5134 -0.0648
 6067TIP3    H139692   3.227   4.329  13.276  0.3796  0.5059  0.2469
 6067TIP3    H239693   3.330   4.410  13.200  0.6981 -0.9465 -0.9218
 6068TIP3   OH239694   4.912   6.712   2.279  0.1354  0.1327  0.2639
 6068TIP3    H139695   4.913   6.770   2.355  1.1589  0.6576 -0.1208
 6068TIP3    H239696   4.934   6.769   2.205  0.7014 -0.6495 -0.1911
 6069TIP3   OH239697   0.107   0.319  13.619 -0.4537  0.2989 -0.2796
 6069TIP3    H139698   0.201   0.339  13.617 -0.2255 -0.5368  1.3232
 6069TIP3    H239699   0.068   0.392  13.667 -0.5476  0.2988 -0.3543
 6070TIP3   OH239700   0.189   6.492   3.705 -0.2914 -0.2880 -0.1111
 6070TIP3    H139701   0.206   6.576   3.747 -0.3114  0.9046 -2.3205
 6070TIP3    H239702   0.264   6.437   3.727 -0.6905 -0.0409  2.0767
 6071TIP3   OH239703   5.328   3.714  12.112 -0.5786 -0.0093  0.0589
 6071TIP3    H139704   5.282   3.727  12.028 -1.2827 -0.1014  0.4177
 6071TIP3    H239705   5.289   3.779  12.170 -0.5998 -0.4131  0.5031
 6072TIP3   OH239706   2.810   1.719   1.975 -0.1633  0.0944  0.3885
 6072TIP3    H139707   2.754   1.641   1.970  0.7243 -0.7028  1.9363
 6072TIP3    H239708   2.893   1.690   1.937  0.5659 -0.1348  2.0965
 6073TIP3   OH239709   2.787   2.095  10.356 -0.2220 -0.0932  0.4888
 6073TIP3    H139710   2.858   2.059  10.409 -0.7918 -1.1822  0.5561
 6073TIP3    H239711   2.829   2.120  10.273  0.5317  0.9022  1.1482
 6074TIP3   OH239712   5.223   5.778   0.321 -0.0946 -0.4160 -0.3106
 6074TIP3    H139713   5.239   5.693   0.361 -0.7070  0.0160  0.8784
 6074TIP3    H239714   5.282   5.838   0.365 -1.6301  0.3005  0.8714
 6075TIP3   OH239715   3.625   0.005  11.408 -0.3247 -0.7675  0.2626
 6075TIP3    H139716   3.626   0.093  11.371 -0.9627 -0.9909 -0.3188
 6075TIP3    H239717   3.631  -0.052  11.331  0.8761 -1.2312  0.6783
 6076TIP3   OH239718   6.171   4.657  10.550 -0.0488  0.4232 -0.0915
 6076TIP3    H139719   6.171   4.573  10.595 -0.4209  1.0333  1.0868
 6076TIP3    H239720   6.171   4.634  10.457  3.4160 -0.8977  0.0715
 6077TIP3   OH239721   0.433   1.801   1.185 -0.3267  0.2636  0.3594
 6077TIP3    H139722   0.354   1.754   1.158 -1.7057  1.7776  1.5134
 6077TIP3    H239723   0.455   1.764   1.271  0.0633  0.0519  0.1727
 6078TIP3   OH239724   6.157   5.885  12.870  0.1930 -0.0510  0.2664
 6078TIP3    H139725   6.231   5.895  12.930  1.4129  0.5939 -1.2619
 6078TIP3    H239726   6.125   5.796  12.885  1.1431 -0.2697  1.1122
 6079TIP3   OH239727   3.942   6.761   2.740  0.0832  0.3116 -0.2442
 6079TIP3    H139728   3.880   6.821   2.782  1.3626  0.5649  1.3972
 6079TIP3    H239729   4.025   6.809   2.738  0.9581 -1.0834  0.4068
 6080TIP3   OH239730   4.611   6.055  11.228  0.2911  0.1098 -0.0708
 6080TIP3    H139731   4.654   6.108  11.295  0.0961  0.2382 -0.0466
 6080TIP3    H239732   4.681   6.032  11.167  0.3713  0.4168 -0.0962
 6081TIP3   OH239733   1.887   4.514  15.862  0.5498  0.1020 -0.4040
 6081TIP3    H139734   1.899   4.441  15.801  2.7479 -0.2373  0.3481
 6081TIP3    H239735   1.946   4.495  15.934 -1.0763  1.1228  1.2926
 6082TIP3   OH239736   1.808   3.098   1.485  0.2106  0.3810  0.4180
 6082TIP3    H139737   1.829   3.047   1.407 -0.3331 -1.4415  1.4059
 6082TIP3    H239738   1.822   3.189   1.459 -1.3912 -0.0343 -2.2884
 6083TIP3   OH239739   2.519   0.439   1.238  0.5579 -0.0500 -0.5009
 6083TIP3    H139740   2.466   0.501   1.288  0.2092 -0.6447 -0.1130
 6083TIP3    H239741   2.515   0.358   1.290  1.2118 -0.3208 -0.8642
 6084TIP3   OH239742   4.796   5.518   4.644 -0.1550  0.1215  0.2346
 6084TIP3    H139743   4.788   5.601   4.690 -0.8316  1.0771 -1.5027
 6084TIP3    H239744   4.891   5.502   4.640 -0.0583  0.4057  1.2507
 6085TIP3   OH239745   1.569   4.533  14.998  0.3645  0.0532 -0.1245
 6085TIP3    H139746   1.629   4.594  14.955 -0.1580  0.9836  0.4454
 6085TIP3    H239747   1.593   4.537  15.091  0.2379 -0.5187 -0.0620
 6086TIP3   OH239748   5.113   3.286   1.707 -0.0596 -0.0474  0.1871
 6086TIP3    H139749   5.018   3.278   1.696 -0.2642  2.1840 -0.0709
 6086TIP3    H239750   5.149   3.235   1.634 -1.0433 -0.9922  0.3338
 6087TIP3   OH239751   1.114   5.240   5.028 -0.1887  0.7776  0.2912
 6087TIP3    H139752   1.111   5.167   4.966  2.2245  1.2316 -0.4639
 6087TIP3    H239753   1.162   5.206   5.103  2.0792  1.8620 -0.5867
 6088TIP3   OH239754   2.233   1.427   4.014 -0.2818  0.1673 -0.1155
 6088TIP3    H139755   2.188   1.399   4.094  0.7513 -0.3849  0.2967
 6088TIP3    H239756   2.195   1.513   3.994 -1.8579 -0.4840 -0.0836
 6089TIP3   OH239757   5.302   1.889  16.987  0.1371 -0.2557 -0.1757
 6089TIP3    H139758   5.380   1.841  17.015 -0.2231 -0.5270  0.3810
 6089TIP3    H239759   5.247   1.891  17.065 -0.0566  0.6477 -0.3318
 6090TIP3   OH239760   1.794   2.054  12.583 -0.0314  0.6673 -0.0890
 6090TIP3    H139761   1.850   1.977  12.589 -1.6321 -0.6191 -0.7784
 6090TIP3    H239762   1.821   2.098  12.503  0.0605  0.0910 -0.3833
 6091TIP3   OH239763   0.819   4.683   0.714 -0.5730  0.2168 -0.0320
 6091TIP3    H139764   0.877   4.608   0.722 -0.5961  0.2788  0.8438
 6091TIP3    H239765   0.872   4.758   0.741 -0.8294  0.3752  0.0422
 6092TIP3   OH239766   6.430   6.463   0.638  0.0554  0.2291  0.3611
 6092TIP3    H139767   6.398   6.449   0.727 -1.9618 -0.0376 -0.3516
 6092TIP3    H239768   6.400   6.552   0.616  0.6420  0.3386 -0.0176
 6093TIP3   OH239769   1.158   6.828   2.099  0.2925  0.4708  0.1009
 6093TIP3    H139770   1.067   6.849   2.119 -0.1270  0.1697 -1.3576
 6093TIP3    H239771   1.208   6.903   2.132 -0.5923  1.1264 -0.0158
 6094TIP3   OH239772   2.233   4.604   0.695 -0.2286  0.1452 -0.4627
 6094TIP3    H139773   2.160   4.665   0.697 -0.0660  0.3499  1.5079
 6094TIP3    H239774   2.200   4.526   0.740  0.5171 -0.0488 -0.2346
 6095TIP3   OH239775   6.657   0.320   5.136 -0.0479  0.0661  0.6826
 6095TIP3    H139776   6.639   0.310   5.230 -2.0683 -1.4031  0.2122
 6095TIP3    H239777   6.575   0.354   5.100 -0.8625 -3.2915 -1.0809
 6096TIP3   OH239778   0.958   2.750   6.448 -0.1952  0.0426  0.2125
 6096TIP3    H139779   1.001   2.668   6.473 -0.3741 -0.3940 -0.8798
 6096TIP3    H239780   0.888   2.724   6.388 -1.7254  0.7812  1.5756
 6097TIP3   OH239781   2.930   4.872   2.308  0.8048  0.0688 -0.4597
 6097TIP3    H139782   2.909   4.957   2.268 -0.6691 -0.6012 -1.1716
 6097TIP3    H239783   3.010   4.844   2.264  2.3796  1.8682  1.0507
 6098TIP3   OH239784   4.384   5.193   2.343  0.4079 -0.2434  0.1273
 6098TIP3    H139785   4.377   5.219   2.251  1.1990 -1.4574 -0.3159
 6098TIP3    H239786   4.427   5.267   2.386  1.0066 -0.0853 -0.7103
 6099TIP3   OH239787   6.685   6.690  13.863 -0.4325 -0.0668  0.5597
 6099TIP3    H139788   6.628   6.617  13.841 -1.0918  0.6388 -0.1395
 6099TIP3    H239789   6.705   6.678  13.956 -2.5529  0.2239  1.1105
 6100TIP3   OH239790   5.374   6.852   3.239 -0.0040 -0.0678 -0.2120
 6100TIP3    H139791   5.285   6.879   3.217 -0.9609 -1.1389  2.0838
 6100TIP3    H239792   5.390   6.889   3.326  1.3069 -0.9514 -0.0440
 6101TIP3   OH239793   1.390   4.437   3.503  0.4230  0.1380 -0.1090
 6101TIP3    H139794   1.298   4.455   3.520  0.2946 -0.1127 -0.5125
 6101TIP3    H239795   1.438   4.493   3.564 -0.0004 -0.0201  0.3691
 6102TIP3   OH239796   2.722   6.834   5.813 -0.7841 -0.5234  0.5097
 6102TIP3    H139797   2.669   6.757   5.795 -0.4941 -0.1104 -2.6510
 6102TIP3    H239798   2.808   6.814   5.776 -0.4098  0.9391  0.5242
 6103TIP3   OH239799   1.125   4.217   4.072 -0.1162  0.1703  0.0321
 6103TIP3    H139800   1.191   4.186   4.010  0.1213 -1.4183  1.0278
 6103TIP3    H239801   1.045   4.172   4.045  0.7260 -3.6157  2.9552
 6104TIP3   OH239802   3.822   2.695  12.482 -0.0586 -0.0755 -0.1671
 6104TIP3    H139803   3.851   2.776  12.439 -0.5423  1.1663  1.7107
 6104TIP3    H239804   3.900   2.639  12.483  0.6368  0.8675 -0.3614
 6105TIP3   OH239805   4.085   2.086   2.684  0.0700  0.0825 -0.2957
 6105TIP3    H139806   4.124   2.016   2.632  1.2055  1.5838 -1.5566
 6105TIP3    H239807   4.156   2.118   2.739 -0.8581 -0.7830  1.5125
 6106TIP3   OH239808   3.390   3.706   4.927  0.0866  0.1460 -0.0068
 6106TIP3    H139809   3.343   3.744   4.853  2.6296 -0.0594 -1.8654
 6106TIP3    H239810   3.444   3.777   4.961  0.0985 -0.1783  0.6895
 6107TIP3   OH239811   1.223   2.663  14.837  0.5181  0.0129  0.4227
 6107TIP3    H139812   1.163   2.683  14.766 -0.4148 -1.6743  0.6631
 6107TIP3    H239813   1.231   2.567  14.835  1.7581  0.0617  1.5554
 6108TIP3   OH239814   1.796   6.318  12.841  0.7756 -0.0482 -0.3836
 6108TIP3    H139815   1.777   6.372  12.917 -0.4623 -0.6336 -0.2605
 6108TIP3    H239816   1.788   6.379  12.767  2.7227  0.6999 -0.0366
 6109TIP3   OH239817   0.317   2.076  12.542 -0.3324  0.3309 -0.0929
 6109TIP3    H139818   0.264   2.156  12.548  1.3412  1.4435  0.5828
 6109TIP3    H239819   0.393   2.102  12.489  0.1136 -0.9019 -0.0794
 6110TIP3   OH239820   5.722   3.047   4.796  0.2412 -0.1490  0.4535
 6110TIP3    H139821   5.649   3.058   4.857 -0.5235  0.0262 -0.4752
 6110TIP3    H239822   5.800   3.047   4.852 -0.4089  0.4487  1.3882
 6111TIP3   OH239823   6.646   0.523  15.420  0.7541 -0.6467  0.3489
 6111TIP3    H139824   6.595   0.482  15.490  1.1528 -0.1507  0.9421
 6111TIP3    H239825   6.665   0.611  15.453  0.5503 -0.2427 -0.5850
 6112TIP3   OH239826   0.802   4.880   1.610 -0.0575  0.4171 -0.0957
 6112TIP3    H139827   0.764   4.935   1.678 -0.4952  1.7514 -1.3527
 6112TIP3    H239828   0.897   4.894   1.617  0.0022 -0.4275  1.0034
 6113TIP3   OH239829   0.489   6.504   3.935  1.3977  0.4738 -0.5848
 6113TIP3    H139830   0.492   6.457   4.018  0.8228 -1.2997 -1.5168
 6113TIP3    H239831   0.555   6.573   3.944  2.6677 -0.8326  0.6724
 6114TIP3   OH239832   1.668   3.957  12.742 -0.0974  0.4065  0.0228
 6114TIP3    H139833   1.582   3.937  12.779 -0.4209  1.9981  0.2022
 6114TIP3    H239834   1.720   3.879  12.760 -1.2600 -0.2554  0.6579
 6115TIP3   OH239835   1.632   2.688   2.721 -0.1437 -0.3851  0.5922
 6115TIP3    H139836   1.571   2.746   2.767  1.3628  2.0294 -0.2764
 6115TIP3    H239837   1.691   2.656   2.789 -1.7775 -2.0656  1.2971
 6116TIP3   OH239838   5.152   5.691   0.066  0.3069 -0.4507  0.0902
 6116TIP3    H139839   5.183   5.731   0.147  0.9768  1.0105 -0.8534
 6116TIP3    H239840   5.229   5.649   0.029 -0.4112 -2.8364  1.1236
 6117TIP3   OH239841   2.709   1.308   1.031  0.1556  0.1970  0.3894
 6117TIP3    H139842   2.700   1.377   1.097 -0.0943  0.7746 -0.2376
 6117TIP3    H239843   2.630   1.314   0.979  1.1366  0.9471 -1.0789
 6118TIP3   OH239844   2.599   0.671   4.458  0.9890 -0.0138  0.5313
 6118TIP3    H139845   2.638   0.588   4.483 -0.4443 -0.7243  0.4911
 6118TIP3    H239846   2.506   0.653   4.450  0.8575  1.1756 -1.2637
 6119TIP3   OH239847   5.337   0.783   2.342 -0.0349 -0.3773  0.1126
 6119TIP3    H139848   5.267   0.738   2.389 -0.5516  1.6240  1.4034
 6119TIP3    H239849   5.406   0.794   2.408  1.1489 -1.5085 -0.8960
 6120TIP3   OH239850   0.759   6.291  11.548 -0.0854  0.2310 -0.2918
 6120TIP3    H139851   0.697   6.318  11.615  0.1221  1.0069 -0.3954
 6120TIP3    H239852   0.824   6.362  11.546  0.7457 -0.5084 -0.2565
 6121TIP3   OH239853   3.585   6.097  11.287  0.4876 -0.3954  0.1801
 6121TIP3    H139854   3.517   6.116  11.222  0.0746  0.5281  0.8668
 6121TIP3    H239855   3.631   6.021  11.251  0.8297  0.6066 -1.6047
 6122TIP3   OH239856   3.086   2.926   5.521 -0.0094 -0.4869 -0.8885
 6122TIP3    H139857   3.176   2.957   5.513  0.2830 -0.3649  1.9750
 6122TIP3    H239858   3.092   2.846   5.573 -1.5344 -0.7917 -1.1147
 6123TIP3   OH239859   5.951   3.631  16.200  0.0607  0.0650 -0.1099
 6123TIP3    H139860   5.928   3.690  16.272 -0.5547 -1.3278  0.8698
 6123TIP3    H239861   6.047   3.632  16.198  0.1021 -0.1342  0.9669
 6124TIP3   OH239862   4.482   0.779   0.363  0.3463 -0.7788  0.1737
 6124TIP3    H139863   4.492   0.842   0.434  0.3430 -0.3540 -0.1997
 6124TIP3    H239864   4.424   0.822   0.300  0.6853 -0.9768 -0.2864
 6125TIP3   OH239865   3.938   4.943  16.387  0.2226 -0.5879  0.2931
 6125TIP3    H139866   3.849   4.926  16.420 -0.7779 -1.7444 -2.6582
 6125TIP3    H239867   3.974   4.857  16.369 -0.1731 -0.1417 -3.4357
 6126TIP3   OH239868   4.585   0.180  15.107 -0.3115  0.3614  0.1614
 6126TIP3    H139869   4.636   0.252  15.143 -1.0009  1.4908 -1.0403
 6126TIP3    H239870   4.650   0.122  15.066  0.4054 -0.5814  2.4932
 6127TIP3   OH239871   0.769   2.000  13.464 -0.5103  0.0764 -0.2541
 6127TIP3    H139872   0.708   1.974  13.395 -1.5784  0.8577  0.3715
 6127TIP3    H239873   0.734   2.082  13.498 -0.8536 -0.9887  2.1998
 6128TIP3   OH239874   1.519   1.677  16.713 -0.0632  0.0874 -0.4355
 6128TIP3    H139875   1.424   1.694  16.713 -0.1740 -0.5107 -0.3045
 6128TIP3    H239876   1.536   1.636  16.629 -0.1791 -1.1499  0.1196
 6129TIP3   OH239877   4.066   2.725   6.288  0.3417 -0.0191  0.8998
 6129TIP3    H139878   4.116   2.702   6.366 -1.0004  0.0887  1.8225
 6129TIP3    H239879   4.066   2.820   6.286 -1.8621  0.0903  2.3454
 6130TIP3   OH239880   6.160   3.156  13.528 -0.0266  0.5847 -0.2602
 6130TIP3    H139881   6.228   3.090  13.542 -1.6954 -1.1076  0.1930
 6130TIP3    H239882   6.178   3.224  13.593  2.8129  1.5958 -1.9218
 6131TIP3   OH239883   6.583   1.863  13.363 -0.5592 -0.1177  0.3099
 6131TIP3    H139884   6.564   1.866  13.269  0.8076  0.3615  0.0155
 6131TIP3    H239885   6.507   1.902  13.405 -1.7177 -1.4355 -0.4955
 6132TIP3   OH239886   2.766   2.286  16.289  0.1459 -0.3535  0.6004
 6132TIP3    H139887   2.851   2.283  16.246  0.1386 -0.0061  0.5555
 6132TIP3    H239888   2.709   2.330  16.226  0.0792 -0.0503  0.8691
 6133TIP3   OH239889   4.537   3.543   4.993 -0.1237  0.1520  0.5338
 6133TIP3    H139890   4.616   3.578   4.951  0.2652  0.6327  1.6277
 6133TIP3    H239891   4.475   3.531   4.921 -0.0297  2.4295 -0.0197
 6134TIP3   OH239892   0.218   5.132  17.084 -0.1144  0.7168 -0.8135
 6134TIP3    H139893   0.214   5.174  16.998 -0.3878  0.3379 -0.9911
 6134TIP3    H239894   0.253   5.044  17.065 -1.1039  0.2830 -0.6752
 6135TIP3   OH239895   1.936   4.003  12.222  0.6682 -0.7711  0.0886
 6135TIP3    H139896   2.028   4.003  12.247  0.9575 -1.8991 -0.8452
 6135TIP3    H239897   1.888   4.015  12.304  1.6502  1.0216  0.4384
 6136TIP3   OH239898   2.625   5.309  12.932  0.3679  0.0543  0.0741
 6136TIP3    H139899   2.651   5.223  12.964 -4.4228 -1.5894  0.3005
 6136TIP3    H239900   2.606   5.359  13.012 -0.7908 -0.1401 -0.0706
 6137TIP3   OH239901   5.042   3.509  12.931 -0.0235  0.5383 -0.0411
 6137TIP3    H139902   5.017   3.600  12.940 -0.3394  0.3703  0.9061
 6137TIP3    H239903   5.029   3.472  13.019  0.7529 -0.2469 -0.2468
 6138TIP3   OH239904   1.051   5.541  15.992 -0.4057 -0.6164 -0.2138
 6138TIP3    H139905   1.088   5.520  15.906 -1.3199 -2.8432 -0.1307
 6138TIP3    H239906   0.969   5.587  15.972  0.5687  1.1006 -0.4438
 6139TIP3   OH239907   0.976   3.594   5.727 -0.1074 -0.1609 -0.1116
 6139TIP3    H139908   1.016   3.674   5.760  0.4717 -0.2825 -0.5016
 6139TIP3    H239909   0.896   3.584   5.779 -0.8985  1.3847 -0.9500
 6140TIP3   OH239910   6.722   2.519   4.774 -0.2039  0.2453 -0.4494
 6140TIP3    H139911   6.738   2.561   4.858  1.3922 -1.8965  0.4249
 6140TIP3    H239912   6.631   2.492   4.776 -0.0719 -0.1414  0.7836
 6141TIP3   OH239913   0.015   3.437   1.586  0.4498 -0.3954  0.0763
 6141TIP3    H139914  -0.014   3.350   1.560 -0.2260 -0.5175  1.1514
 6141TIP3    H239915   0.039   3.480   1.504  0.6318 -1.5283 -0.4843
 6142TIP3   OH239916   4.870   2.082   0.113  0.1119 -0.5642  0.1428
 6142TIP3    H139917   4.863   1.987   0.120 -1.7648 -0.5187 -0.5620
 6142TIP3    H239918   4.810   2.106   0.042 -0.7263  1.2763  1.3713
 6143TIP3   OH239919   3.694   4.581   3.635  0.1862 -0.0033  0.0046
 6143TIP3    H139920   3.739   4.626   3.706 -0.1819 -1.4694  1.2116
 6143TIP3    H239921   3.634   4.646   3.599  1.9182  1.4433 -0.4554
 6144TIP3   OH239922   6.760   6.658   4.538 -0.3279 -0.3575  0.2596
 6144TIP3    H139923   6.713   6.683   4.458 -0.4223  0.7663  0.6439
 6144TIP3    H239924   6.722   6.713   4.606  0.1532 -0.8891  0.9757
 6145TIP3   OH239925   2.867   1.380   2.157  0.1821 -0.0934 -0.3617
 6145TIP3    H139926   2.776   1.408   2.171  0.6642  0.7657  1.2893
 6145TIP3    H239927   2.871   1.357   2.064 -1.0967  2.2277 -1.0727
 6146TIP3   OH239928   0.548   3.064  13.265 -0.4621 -0.2311  0.2638
 6146TIP3    H139929   0.516   3.077  13.176 -0.5381 -1.9532 -0.0114
 6146TIP3    H239930   0.577   2.972  13.267 -0.7956 -0.3490  2.1072
 6147TIP3   OH239931   0.357   5.113  11.183  0.6125 -0.1691 -0.1801
 6147TIP3    H139932   0.413   5.168  11.238 -0.1156 -0.1599  0.5792
 6147TIP3    H239933   0.307   5.174  11.130 -1.8752  0.1013  2.2865
 6148TIP3   OH239934   6.863   2.399  11.136  0.0283 -0.4163 -0.2673
 6148TIP3    H139935   6.891   2.488  11.159 -0.8377  0.1263 -1.2032
 6148TIP3    H239936   6.836   2.360  11.219 -0.7410  0.6422  0.0058
 6149TIP3   OH239937   1.415   0.816   3.409 -0.2426 -0.3807  0.0071
 6149TIP3    H139938   1.422   0.795   3.502 -1.0439 -2.9467 -0.4144
 6149TIP3    H239939   1.329   0.783   3.384 -0.1907  0.6012 -1.5782
 6150TIP3   OH239940   4.912   2.776  11.640 -0.2087  0.4099 -0.1621
 6150TIP3    H139941   4.892   2.722  11.564  0.5225 -0.1174  0.0129
 6150TIP3    H239942   5.001   2.808  11.625  1.2349 -2.2248  1.8669
 6151TIP3   OH239943   3.042   6.760   2.808 -0.4204 -0.0321  0.3118
 6151TIP3    H139944   2.967   6.751   2.750 -0.8534  0.1721  0.8342
 6151TIP3    H239945   3.029   6.844   2.851  1.0012  0.8310 -0.8588
 6152TIP3   OH239946   2.627   4.971  14.418  0.1465  0.2483 -0.4819
 6152TIP3    H139947   2.637   4.978  14.513 -0.4629  0.5963 -0.4421
 6152TIP3    H239948   2.712   4.939  14.388  0.0320 -0.8142  0.2770
 6153TIP3   OH239949   3.840   5.862  12.562  0.2425 -0.0952 -0.4366
 6153TIP3    H139950   3.879   5.903  12.639 -0.2793 -1.6814  0.7255
 6153TIP3    H239951   3.747   5.884  12.568  0.1103 -0.6759 -0.2977
 6154TIP3   OH239952   0.952   6.095  14.166 -0.0508  0.1754  0.3190
 6154TIP3    H139953   0.981   6.034  14.234 -0.2411 -1.8020 -1.2814
 6154TIP3    H239954   1.034   6.128  14.128  0.1472 -1.5783 -0.8922
 6155TIP3   OH239955   2.520   2.040  14.284  0.4350 -0.1826 -0.1371
 6155TIP3    H139956   2.443   2.032  14.227  1.5281  0.5942 -1.7632
 6155TIP3    H239957   2.505   2.120  14.333 -1.3831 -1.7573  2.1432
 6156TIP3   OH239958   5.821   1.860   3.640 -0.5698 -0.0913  0.8682
 6156TIP3    H139959   5.916   1.851   3.637 -0.5033  0.5665  0.7706
 6156TIP3    H239960   5.790   1.818   3.560 -0.0003  3.5191 -1.4960
 6157TIP3   OH239961   1.537   4.203   3.534  0.5796  0.0548  0.0931
 6157TIP3    H139962   1.489   4.163   3.463  0.1564 -0.6102  0.7455
 6157TIP3    H239963   1.488   4.283   3.555  0.9712  0.5106 -0.6567
 6158TIP3   OH239964   3.710   3.303  15.294  0.2807  0.3242 -0.0483
 6158TIP3    H139965   3.804   3.321  15.296  0.2943  0.2711  1.4043
 6158TIP3    H239966   3.671   3.374  15.345 -0.2429 -0.6874  1.0164
 6159TIP3   OH239967   1.660   3.010   1.980 -0.0243  0.0209 -0.0233
 6159TIP3    H139968   1.708   3.087   1.951  1.3406 -0.7666  0.1046
 6159TIP3    H239969   1.695   2.991   2.067  1.0520 -1.8574 -0.8006
 6160TIP3   OH239970   5.566   5.038  14.290 -0.0670  0.1227 -0.3735
 6160TIP3    H139971   5.483   5.083  14.272 -1.1902 -2.2075 -1.4229
 6160TIP3    H239972   5.619   5.056  14.212  0.3258  1.2906  0.1299
 6161TIP3   OH239973   4.988   1.192   0.389 -0.3534  0.5397  0.2110
 6161TIP3    H139974   4.965   1.199   0.296 -4.1995 -1.6285  0.7945
 6161TIP3    H239975   5.053   1.121   0.392  0.2240  1.0011 -0.8197
 6162TIP3   OH239976   1.731   0.361   5.202  0.2743 -0.4708 -0.6084
 6162TIP3    H139977   1.802   0.423   5.218  0.5735 -1.1895  1.0632
 6162TIP3    H239978   1.659   0.415   5.168  1.4139  0.3376 -1.8743
 6163TIP3   OH239979   2.113   3.953  13.306 -0.0117  0.1662  0.4020
 6163TIP3    H139980   2.191   3.932  13.254 -0.5554  1.9272 -1.2121
 6163TIP3    H239981   2.147   3.995  13.385  0.7006  0.7062 -0.1837
 6164TIP3   OH239982   1.622   0.120   6.493 -0.5560 -0.0279  0.2503
 6164TIP3    H139983   1.553   0.060   6.521 -1.3072 -0.0306 -1.4702
 6164TIP3    H239984   1.636   0.099   6.400  1.2866  0.4416  0.3729
 6165TIP3   OH239985   0.724   6.399   4.072 -0.1578  0.2141  0.4860
 6165TIP3    H139986   0.704   6.307   4.090 -1.3688  0.0314 -1.4592
 6165TIP3    H239987   0.700   6.445   4.153  0.6275 -1.1761  1.5460
 6166TIP3   OH239988   5.631   0.740  16.575  0.2480 -0.5144 -0.3074
 6166TIP3    H139989   5.709   0.795  16.571  0.1202 -0.3664 -0.7885
 6166TIP3    H239990   5.638   0.694  16.659  0.0294  0.7189  0.4017
 6167TIP3   OH239991   1.862   4.150   3.880  0.4216 -0.6719 -0.1339
 6167TIP3    H139992   1.897   4.233   3.913 -1.3549  1.2272 -2.7226
 6167TIP3    H239993   1.921   4.126   3.809  0.9781 -1.7579  0.6587
 6168TIP3   OH239994   5.113   0.475   0.304  0.1043  0.5753  0.4738
 6168TIP3    H139995   5.108   0.463   0.209 -2.3361 -0.2946  0.6402
 6168TIP3    H239996   5.186   0.535   0.317  0.6844  0.4846 -1.9273
 6169TIP3   OH239997   4.222   1.456   4.137 -0.9721  0.0192 -0.4784
 6169TIP3    H139998   4.246   1.549   4.142 -0.6420 -0.0790 -0.2046
 6169TIP3    H239999   4.130   1.456   4.114 -1.1283  0.4288  0.1267
 6170TIP3   OH240000   3.503   3.289  13.254 -0.9470 -0.0171 -0.0997
 6170TIP3    H140001   3.591   3.265  13.225 -0.6785 -0.5675  1.0986
 6170TIP3    H240002   3.517   3.366  13.310 -1.5631  1.6669 -2.1407
 6171TIP3   OH240003   1.702   2.397   4.737 -0.8163 -0.3015 -0.4218
 6171TIP3    H140004   1.673   2.482   4.703  2.0413  0.9726  0.0028
 6171TIP3    H240005   1.741   2.353   4.661  0.7171  0.2640 -0.0123
 6172TIP3   OH240006   5.228   5.281   6.024  0.2887 -0.2180  0.5693
 6172TIP3    H140007   5.244   5.330   5.943 -1.4890  0.8371  0.7858
 6172TIP3    H240008   5.275   5.199   6.012  1.0737  0.4115 -1.0153
 6173TIP3   OH240009   4.612   5.545  11.287 -0.0124 -1.0254 -0.2592
 6173TIP3    H140010   4.535   5.524  11.233 -0.4250 -0.8137  0.2408
 6173TIP3    H240011   4.686   5.530  11.228 -0.3181 -2.9666 -0.2260
 6174TIP3   OH240012   2.916   6.137   2.315 -0.1127  0.3058 -0.1672
 6174TIP3    H140013   2.870   6.168   2.393 -0.3891  1.1843 -0.6780
 6174TIP3    H240014   2.945   6.216   2.270 -0.4910 -0.1741 -1.2827
 6175TIP3   OH240015   6.499   3.525   0.267  0.0856 -0.3966 -0.0491
 6175TIP3    H140016   6.530   3.490   0.183  0.0164  0.2488 -0.3516
 6175TIP3    H240017   6.579   3.535   0.320  0.3846  0.9655 -0.7146
 6176TIP3   OH240018   4.440   2.370   3.645  0.1035 -0.2225  0.1262
 6176TIP3    H140019   4.458   2.288   3.599 -0.7979 -0.0459 -0.5687
 6176TIP3    H240020   4.408   2.342   3.731 -0.4106 -0.6076 -0.1877
 6177TIP3   OH240021   6.035   5.895  13.182 -0.2160 -0.7055  0.1438
 6177TIP3    H140022   6.006   5.815  13.227  0.9368 -0.5052  1.3025
 6177TIP3    H240023   6.119   5.872  13.144 -0.6810 -0.5350 -1.0301
 6178TIP3   OH240024   0.965   4.489   3.743 -0.0509  0.0045 -0.0424
 6178TIP3    H140025   0.891   4.549   3.729  0.2034  0.2977 -0.1362
 6178TIP3    H240026   0.974   4.484   3.838 -0.1476  0.0197 -0.0318
 6179TIP3   OH240027   2.643   3.598  15.999 -0.0531  0.0021  0.6652
 6179TIP3    H140028   2.608   3.510  16.011 -2.2288  0.5150 -1.2331
 6179TIP3    H240029   2.693   3.593  15.917 -1.4873  0.8331 -0.3032
 6180TIP3   OH240030   5.103   1.393   3.031  0.0483 -0.3088 -0.8649
 6180TIP3    H140031   5.121   1.432   2.945 -0.8949  0.7182 -0.6289
 6180TIP3    H240032   5.173   1.329   3.044  1.4923  1.0865 -1.4390
 6181TIP3   OH240033   4.083   5.974  13.582  0.2670 -0.4747  0.3132
 6181TIP3    H140034   4.121   6.062  13.584 -2.0573  0.6687 -1.1863
 6181TIP3    H240035   4.108   5.939  13.497 -1.3261  0.0208 -0.3993
 6182TIP3   OH240036   3.176   2.175  15.930  0.0053 -0.9657 -0.5627
 6182TIP3    H140037   3.244   2.110  15.911  0.8910 -0.3125  0.2757
 6182TIP3    H240038   3.163   2.169  16.025  0.6184  0.5534 -0.3514
 6183TIP3   OH240039   1.266   4.676  13.663 -0.4554  0.1489 -0.5247
 6183TIP3    H140040   1.314   4.600  13.695  1.6745  1.3073 -0.7585
 6183TIP3    H240041   1.279   4.743  13.730 -0.2826  1.0170 -1.3893
 6184TIP3   OH240042   0.632   2.776  14.945 -0.3748  0.3189  0.1674
 6184TIP3    H140043   0.675   2.691  14.937 -0.0131  0.2895  1.9933
 6184TIP3    H240044   0.542   2.760  14.915 -0.1879 -0.6072  0.0659
 6185TIP3   OH240045   0.278   1.373  13.661 -0.5306 -0.3847  0.0895
 6185TIP3    H140046   0.268   1.278  13.665  0.4553 -0.4784  0.8951
 6185TIP3    H240047   0.244   1.404  13.745  2.1651 -0.3791  1.2768
 6186TIP3   OH240048   3.898   1.395  16.340 -0.3497  0.5831 -0.1667
 6186TIP3    H140049   3.908   1.346  16.258  1.6460 -0.5471  0.6756
 6186TIP3    H240050   3.953   1.472  16.328 -0.4416  0.6645 -0.0623
 6187TIP3   OH240051   4.773   6.355  12.728 -0.1746  0.0551  0.2186
 6187TIP3    H140052   4.762   6.404  12.646  0.4041 -1.4377 -0.8031
 6187TIP3    H240053   4.685   6.325  12.750 -0.0223 -1.7448 -1.3424
 6188TIP3   OH240054   1.478   2.580   3.703 -0.0093 -0.1395 -0.1199
 6188TIP3    H140055   1.573   2.585   3.689  0.0503  0.3556  0.4219
 6188TIP3    H240056   1.442   2.646   3.645  0.1385  1.0070  1.0379
 6189TIP3   OH240057   1.756   4.307   1.008 -0.1576  0.1505 -0.0887
 6189TIP3    H140058   1.841   4.350   1.004  0.5798 -1.2652 -0.4454
 6189TIP3    H240059   1.694   4.377   1.027  1.3140  0.9632  2.1048
 6190TIP3   OH240060   5.450   0.107  15.291  0.4860 -0.1683 -0.4376
 6190TIP3    H140061   5.509   0.114  15.366  0.5521 -3.0760 -0.0781
 6190TIP3    H240062   5.504   0.074  15.220 -0.0919  0.0609 -0.9940
 6191TIP3   OH240063   5.990   5.972  12.101 -0.9263 -0.6722 -0.6130
 6191TIP3    H140064   6.078   5.934  12.105 -0.6513 -0.2809 -2.2625
 6191TIP3    H240065   5.958   5.950  12.014 -1.6082  1.0168 -0.8207
 6192TIP3   OH240066   2.025   6.367   3.999  0.2581 -0.6026  0.3209
 6192TIP3    H140067   1.950   6.422   4.021  0.3573 -0.1886 -0.3461
 6192TIP3    H240068   1.997   6.318   3.922  0.8227 -0.1252 -0.1933
 6193TIP3   OH240069   3.611   1.825   4.299 -0.2434  0.3245  0.3164
 6193TIP3    H140070   3.587   1.787   4.215  0.8396  0.1507  0.0793
 6193TIP3    H240071   3.560   1.774   4.363 -0.4476 -0.0875 -0.1636
 6194TIP3   OH240072   0.691   1.170   2.626  0.7567 -0.1519  1.1826
 6194TIP3    H140073   0.608   1.214   2.648  1.3833  0.7845  1.7192
 6194TIP3    H240074   0.726   1.141   2.710  1.3777  0.1827  1.0409
 6195TIP3   OH240075   6.046   4.460   0.874 -0.9726 -0.2458 -0.5449
 6195TIP3    H140076   5.969   4.480   0.820 -0.4149  1.2845 -0.8085
 6195TIP3    H240077   6.040   4.520   0.948  0.5287  0.6395 -1.1161
 6196TIP3   OH240078   5.108   5.685  14.391  0.1620 -0.0102  0.6790
 6196TIP3    H140079   5.045   5.614  14.383 -0.8008  0.9223 -0.1839
 6196TIP3    H240080   5.160   5.662  14.468 -1.6210 -0.5065  1.8018
 6197TIP3   OH240081   0.234   1.712  16.389 -0.1534 -0.1364  0.6456
 6197TIP3    H140082   0.213   1.676  16.303 -2.0523  0.6578  0.7231
 6197TIP3    H240083   0.253   1.635  16.443 -1.4728 -0.8566  0.1399
 6198TIP3   OH240084   5.157   2.895   1.744 -0.1986 -0.1398  0.2774
 6198TIP3    H140085   5.213   2.915   1.819 -0.4829 -0.8647  0.6914
 6198TIP3    H240086   5.068   2.908   1.776 -0.3150  2.9974 -0.9344
 6199TIP3   OH240087   2.928   6.629  10.255  0.3567  0.3758  0.5682
 6199TIP3    H140088   2.897   6.711  10.294 -2.1167 -0.1142 -0.1806
 6199TIP3    H240089   2.989   6.657  10.186  2.3547  1.3637  2.5935
 6200TIP3   OH240090   2.021   6.446  16.297  0.3141  0.0819 -0.1796
 6200TIP3    H140091   2.006   6.502  16.220 -0.5152  0.8338  0.4930
 6200TIP3    H240092   1.963   6.371  16.283  2.0384 -1.0827 -1.4876
 6201TIP3   OH240093   0.052   1.937   1.351 -0.0256  0.8370  0.0064
 6201TIP3    H140094   0.021   2.023   1.380 -0.0763  0.9806 -0.4721
 6201TIP3    H240095  -0.028   1.888   1.330 -0.0310  0.4456  0.8977
 6202TIP3   OH240096   4.447   5.389  14.391  0.0452 -0.8493 -0.1446
 6202TIP3    H140097   4.529   5.343  14.409  0.1521 -0.3550  0.6994
 6202TIP3    H240098   4.379   5.331  14.424  0.2100 -0.1963  1.4136
 6203TIP3   OH240099   4.614   3.254  16.944  0.5176  0.0850 -0.0530
 6203TIP3    H140100   4.621   3.341  16.907 -0.2691  0.1328 -0.1080
 6203TIP3    H240101   4.630   3.195  16.870 -2.4452  0.1548 -0.8885
 6204TIP3   OH240102   2.099   1.710   2.926  0.1451 -0.1639  0.4745
 6204TIP3    H140103   2.184   1.671   2.904  0.7430  1.2772  0.1062
 6204TIP3    H240104   2.074   1.759   2.848 -0.3365  0.6024  1.0959
 6205TIP3   OH240105   2.453   5.142   3.313  0.4257  0.1576  0.1479
 6205TIP3    H140106   2.398   5.157   3.390  0.4194  0.0880  0.1574
 6205TIP3    H240107   2.478   5.050   3.319 -2.8366 -1.0823 -1.9942
 6206TIP3   OH240108   2.049   6.179   5.462 -0.2928  0.8713 -0.3866
 6206TIP3    H140109   2.014   6.194   5.374 -0.7345 -0.6050 -0.4925
 6206TIP3    H240110   2.082   6.265   5.490 -1.1574  1.6103 -1.5370
 6207TIP3   OH240111   4.099   3.487  13.375 -0.2616 -0.4835  0.0144
 6207TIP3    H140112   4.131   3.577  13.372 -2.2450  0.2589 -0.8655
 6207TIP3    H240113   4.110   3.454  13.286 -3.1455  0.3384 -0.7665
 6208TIP3   OH240114   2.972   1.145   4.604  0.6436 -0.3337  0.1931
 6208TIP3    H140115   2.932   1.073   4.652 -0.5669  0.8009  0.9639
 6208TIP3    H240116   3.064   1.143   4.629  0.4302 -1.0152  0.9574
 6209TIP3   OH240117   3.373   6.865  11.519  0.0774  0.2301 -0.0671
 6209TIP3    H140118   3.462   6.884  11.490  0.4184 -1.6834 -0.4027
 6209TIP3    H240119   3.378   6.776  11.555 -1.4823  0.4914  0.8897
 6210TIP3   OH240120   2.963   0.037  15.666 -0.2655 -0.5146  0.6750
 6210TIP3    H140121   3.008   0.079  15.593 -1.6917  1.1132  0.6757
 6210TIP3    H240122   2.971  -0.057  15.648  0.3752 -0.1861 -0.9638
 6211TIP3   OH240123   3.949   6.050  16.863  0.3517  1.2381  0.2098
 6211TIP3    H140124   3.976   6.048  16.771  0.0726  2.0471  0.1010
 6211TIP3    H240125   3.935   6.143  16.882  0.3541  1.0769  1.0558
 6212TIP3   OH240126   1.546   2.442   3.119 -0.0970 -0.0019 -0.0238
 6212TIP3    H140127   1.472   2.398   3.077 -0.8676 -0.8627  2.0886
 6212TIP3    H240128   1.602   2.370   3.150 -0.3099  0.5037  1.6515
 6213TIP3   OH240129   1.699   4.692   4.287 -0.1664  0.0454 -0.3975
 6213TIP3    H140130   1.679   4.700   4.194 -3.1520  1.1882  0.2305
 6213TIP3    H240131   1.667   4.773   4.326 -0.0532 -0.8898  1.7985
 6214TIP3   OH240132   3.768   3.865  10.911  0.2962  0.3478 -0.5244
 6214TIP3    H140133   3.794   3.950  10.875 -0.0269  0.5012 -0.3976
 6214TIP3    H240134   3.804   3.863  11.000 -0.4431  0.7188 -0.2125
 6215TIP3   OH240135   1.372   2.104   1.397  0.8023 -0.6430  0.2701
 6215TIP3    H140136   1.372   2.131   1.305 -1.1738  0.3492  0.5210
 6215TIP3    H240137   1.410   2.178   1.444  0.8870 -0.7452  0.3645
 6216TIP3   OH240138   0.666   4.238   0.653  0.5483 -0.1911 -1.1268
 6216TIP3    H140139   0.619   4.167   0.697  0.8230  0.1334 -0.2869
 6216TIP3    H240140   0.611   4.260   0.577 -0.3365 -0.2427 -0.5159
 6217TIP3   OH240141   1.224   4.980   2.105 -0.7528  0.0368 -0.0502
 6217TIP3    H140142   1.256   5.008   2.019 -1.0828 -0.3869 -0.3150
 6217TIP3    H240143   1.186   4.893   2.090 -0.0053 -0.4380  0.7035
 6218TIP3   OH240144   4.397   2.797  16.918  0.4501  0.1519  0.3062
 6218TIP3    H140145   4.366   2.762  17.002 -0.0248  1.3719  0.6616
 6218TIP3    H240146   4.382   2.891  16.925  1.8915  0.4672 -0.5354
 6219TIP3   OH240147   5.116   5.282  11.308  0.1963 -0.2488 -0.1426
 6219TIP3    H140148   5.129   5.339  11.383  0.5241 -0.4495 -0.0480
 6219TIP3    H240149   5.038   5.317  11.265 -0.8084 -0.9484  1.0408
 6220TIP3   OH240150   3.269   4.377  14.833 -0.1368  0.1473 -0.1927
 6220TIP3    H140151   3.340   4.337  14.782  0.5985  0.2024  0.7394
 6220TIP3    H240152   3.215   4.303  14.860 -0.6208  0.1342 -1.1633
 6221TIP3   OH240153   0.440   0.947  13.633  0.4629  0.6028  0.6238
 6221TIP3    H140154   0.473   0.987  13.552  0.9546 -0.8621  0.0713
 6221TIP3    H240155   0.345   0.947  13.622  0.5261  0.4527  0.0640
 6222TIP3   OH240156   6.659   5.387  14.731 -0.9298 -0.4177  0.1408
 6222TIP3    H140157   6.747   5.354  14.752 -1.0918 -0.0828  1.3929
 6222TIP3    H240158   6.650   5.372  14.637  0.7497  0.1814 -0.1480
 6223TIP3   OH240159   4.608   6.766   0.628 -0.5104  0.0952  0.3394
 6223TIP3    H140160   4.661   6.719   0.692 -1.1480 -0.8113  0.2326
 6223TIP3    H240161   4.634   6.858   0.636  0.2591 -0.1829  1.0579
 6224TIP3   OH240162   4.554   5.329  12.235  0.7659 -0.1999 -0.4482
 6224TIP3    H140163   4.496   5.254  12.249  0.4138  0.2465  0.5857
 6224TIP3    H240164   4.642   5.291  12.238  0.6155 -0.5093  0.6721
 6225TIP3   OH240165   6.437   3.956   0.648 -0.0559  0.0552 -0.7331
 6225TIP3    H140166   6.527   3.929   0.664  0.3779  1.7485 -0.0391
 6225TIP3    H240167   6.390   3.930   0.727  1.0375  3.9172  1.4655
 6226TIP3   OH240168   0.151   1.131  12.252  0.2879 -0.7510  0.1334
 6226TIP3    H140169   0.147   1.216  12.296 -0.5868 -1.4440  1.4558
 6226TIP3    H240170   0.242   1.123  12.223  0.6824  0.1036  1.0740
 6227TIP3   OH240171   2.006   2.467   0.418 -0.5531  0.0718  0.2227
 6227TIP3    H140172   1.949   2.517   0.360 -0.8279 -0.8986 -0.3799
 6227TIP3    H240173   2.058   2.533   0.464  1.2070  0.8752 -2.6632
 6228TIP3   OH240174   1.321   3.007   3.146  0.1014 -0.4848 -0.2628
 6228TIP3    H140175   1.386   2.943   3.120  1.5936  0.6951  0.4319
 6228TIP3    H240176   1.354   3.090   3.113 -1.0262  0.1514  0.1493
 6229TIP3   OH240177   5.190   2.416  14.712 -0.6978 -0.0183 -0.3835
 6229TIP3    H140178   5.129   2.400  14.641 -0.8280 -1.0235 -0.0643
 6229TIP3    H240179   5.275   2.387  14.678 -0.7442 -0.4157 -0.1614
 6230TIP3   OH240180   5.977   0.475  15.127  0.4762  0.0449 -0.1687
 6230TIP3    H140181   6.005   0.461  15.217 -2.3842 -0.3611  0.7510
 6230TIP3    H240182   5.995   0.392  15.082 -0.2727 -0.5846  0.6735
 6231TIP3   OH240183   2.321   5.055  13.129  0.3897  0.0792  0.6753
 6231TIP3    H140184   2.370   5.001  13.067 -0.7353  0.2986 -0.4451
 6231TIP3    H240185   2.388   5.092  13.186  1.2491 -1.8321  0.9693
 6232TIP3   OH240186   4.466   5.167  14.054  0.0001  0.3087 -0.1462
 6232TIP3    H140187   4.402   5.129  13.994  0.1804  0.4993 -0.4678
 6232TIP3    H240188   4.442   5.134  14.140 -1.3381  1.4281 -0.0561
 6233TIP3   OH240189   5.599   6.811  12.154  0.2484 -0.0248  0.0841
 6233TIP3    H140190   5.566   6.889  12.199 -0.9152  1.1145 -2.5529
 6233TIP3    H240191   5.522   6.758  12.137  0.2792  0.6200 -2.3939
 6234TIP3   OH240192   4.930   5.906   3.688  0.5350 -0.7677 -0.1547
 6234TIP3    H140193   5.019   5.932   3.713 -0.4200 -0.2777  3.2516
 6234TIP3    H240194   4.890   5.875   3.770 -2.6356 -0.4140 -1.4210
 6235TIP3   OH240195   4.172   5.126   4.020 -0.6659 -0.1606  0.5441
 6235TIP3    H140196   4.245   5.072   4.052  0.1849  1.6251  1.8197
 6235TIP3    H240197   4.094   5.076   4.041  0.1416 -2.4505 -1.4644
 6236TIP3   OH240198   1.559   6.485  12.564  0.8326 -0.3018  0.2920
 6236TIP3    H140199   1.629   6.518  12.619  0.1382  0.5184  0.6971
 6236TIP3    H240200   1.559   6.542  12.487  0.8114 -0.4969  0.1450
 6237TIP3   OH240201   1.494   5.557  12.597  0.7516 -0.2198  0.5417
 6237TIP3    H140202   1.485   5.546  12.502  0.9533 -0.6586  0.5731
 6237TIP3    H240203   1.505   5.652  12.609 -0.2559 -0.0542  0.2121
 6238TIP3   OH240204   0.760   1.551   1.394 -0.4374  0.0893  0.0298
 6238TIP3    H140205   0.676   1.592   1.375  0.2635  0.6161 -2.2135
 6238TIP3    H240206   0.808   1.554   1.311  0.9472 -2.2426  0.6484
 6239TIP3   OH240207   2.239   5.190   6.463  0.1351 -0.3059 -0.2907
 6239TIP3    H140208   2.269   5.260   6.521 -0.4619 -0.5480  0.3214
 6239TIP3    H240209   2.153   5.165   6.498 -0.0898 -0.6809 -1.0848
 6240TIP3   OH240210   5.544   4.177  16.044  0.5257 -0.5401  0.0974
 6240TIP3    H140211   5.452   4.194  16.062 -0.0529 -0.6800 -2.3845
 6240TIP3    H240212   5.573   4.253  15.993  2.5366  0.7116  2.8496
 6241TIP3   OH240213   1.052   3.510   0.077  0.3168  0.0879 -0.1982
 6241TIP3    H140214   0.984   3.550   0.023 -0.1562 -0.9296 -0.3673
 6241TIP3    H240215   1.124   3.574   0.075  0.3425  0.0734 -2.0710
 6242TIP3   OH240216   0.767   3.383   3.164  0.3589  0.0575  0.0568
 6242TIP3    H140217   0.849   3.393   3.115 -0.5174  1.7890 -1.1633
 6242TIP3    H240218   0.794   3.356   3.252  2.0048 -3.3259 -1.2955
 6243TIP3   OH240219   5.758   3.792   5.116 -0.2263 -0.2395  0.2044
 6243TIP3    H140220   5.752   3.723   5.051  0.2174 -0.9172  0.8596
 6243TIP3    H240221   5.828   3.763   5.175 -0.5736  0.3792  0.9409
 6244TIP3   OH240222   1.443   2.554   1.883 -0.5921 -0.1788 -0.3584
 6244TIP3    H140223   1.505   2.620   1.852 -1.4544  0.5963 -0.4795
 6244TIP3    H240224   1.480   2.471   1.853 -0.3942  0.3847 -1.8017
 6245TIP3   OH240225   4.820   0.021   4.182 -0.3326  0.1645  0.6393
 6245TIP3    H140226   4.855  -0.001   4.096  0.4228  0.4895  0.8548
 6245TIP3    H240227   4.834  -0.057   4.236  1.6425  0.8394  1.1902
 6246TIP3   OH240228   5.216   5.670   3.730 -0.1858 -0.9720  0.1474
 6246TIP3    H140229   5.208   5.764   3.714 -2.0568 -1.1843 -0.4175
 6246TIP3    H240230   5.264   5.637   3.655  0.7899 -0.4388  0.5165
 6247TIP3   OH240231   5.686   5.260  13.220  0.6709  0.1739  0.0686
 6247TIP3    H140232   5.716   5.176  13.255  1.7440  0.1545 -0.8559
 6247TIP3    H240233   5.675   5.315  13.298 -0.5803 -0.9671  0.7341
 6248TIP3   OH240234   6.511   1.792   6.294  0.2341 -0.5324  0.1294
 6248TIP3    H140235   6.560   1.753   6.366 -1.0366 -1.6094  0.4482
 6248TIP3    H240236   6.426   1.813   6.331 -0.3794 -0.9286 -1.0079
 6249TIP3   OH240237   3.861   3.512   1.409 -0.0052 -0.1269  0.1277
 6249TIP3    H140238   3.829   3.454   1.341  1.4463  0.1577 -0.8462
 6249TIP3    H240239   3.849   3.600   1.374  0.9499  0.0138  0.1270
 6250TIP3   OH240240   5.516   0.360   3.630  0.0590 -0.8245  0.1759
 6250TIP3    H140241   5.577   0.427   3.663  1.3071 -2.5913  1.6705
 6250TIP3    H240242   5.521   0.369   3.534 -0.3620  1.6367  0.3188
 6251TIP3   OH240243   5.559   6.168   2.143 -0.4206 -0.3756  0.6583
 6251TIP3    H140244   5.636   6.218   2.170 -0.1052 -0.8639  0.6757
 6251TIP3    H240245   5.590   6.077   2.136 -0.9052 -0.5196  0.3097
 6252TIP3   OH240246   2.794   3.877   5.678  0.7535  0.8588 -0.2155
 6252TIP3    H140247   2.853   3.834   5.740 -0.1250  0.1474  0.1445
 6252TIP3    H240248   2.762   3.807   5.622  4.6336  1.9152 -4.2863
 6253TIP3   OH240249   4.110   1.696  11.714  0.0993  0.3256 -0.3870
 6253TIP3    H140250   4.187   1.734  11.755 -1.5793  2.1227  1.3320
 6253TIP3    H240251   4.041   1.762  11.726 -2.6291 -2.5195  1.3391
 6254TIP3   OH240252   6.764   0.375   3.304  0.5613  0.2202  0.0553
 6254TIP3    H140253   6.681   0.361   3.350  0.5738  0.7162  0.2369
 6254TIP3    H240254   6.797   0.457   3.340  1.2523 -0.0976  0.1555
 6255TIP3   OH240255   2.031   0.822  10.961  0.3880  0.1271  0.1311
 6255TIP3    H140256   2.075   0.835  11.045 -0.5975 -0.4842  0.7667
 6255TIP3    H240257   2.100   0.830  10.896  1.3466 -0.3228  1.0624
 6256TIP3   OH240258   1.613   4.736   2.230  0.5252 -0.3271  0.3303
 6256TIP3    H140259   1.702   4.706   2.245  0.4441 -0.0637  1.4374
 6256TIP3    H240260   1.587   4.777   2.312 -0.1503  0.7894 -0.4030
 6257TIP3   OH240261   3.362   0.661   1.274  0.1175 -0.0258  0.3717
 6257TIP3    H140262   3.444   0.711   1.266  0.1211 -0.2398 -1.4680
 6257TIP3    H240263   3.319   0.697   1.351  1.3968  0.9058  0.6917
 6258TIP3   OH240264   4.230   1.289   0.594 -0.1370 -0.3529  0.5028
 6258TIP3    H140265   4.249   1.198   0.573 -0.0930 -0.2136 -0.0713
 6258TIP3    H240266   4.193   1.286   0.683 -1.6331 -1.1120 -0.1026
 6259TIP3   OH240267   1.220   1.389   3.921 -0.3332 -0.6437  0.1234
 6259TIP3    H140268   1.164   1.314   3.943 -0.6844 -0.0239  1.4342
 6259TIP3    H240269   1.289   1.387   3.987  0.0729 -0.2379 -0.2836
 6260TIP3   OH240270   6.369   0.499  11.462  0.6576  0.0126 -0.2198
 6260TIP3    H140271   6.311   0.573  11.444  0.9591  0.5693  1.0159
 6260TIP3    H240272   6.311   0.430  11.495  0.4780 -0.0675 -0.6839
 6261TIP3   OH240273   1.014   3.823   3.945  0.2165  0.0585 -0.5683
 6261TIP3    H140274   1.072   3.748   3.935  0.0977  0.1704 -2.4006
 6261TIP3    H240275   1.053   3.891   3.889  0.9182  1.7893  1.8210
 6262TIP3   OH240276   6.312   1.281  15.205  0.0832 -0.9230  0.3187
 6262TIP3    H140277   6.301   1.235  15.287 -1.6856 -2.9281 -0.9580
 6262TIP3    H240278   6.240   1.251  15.149  0.6613  1.0529 -1.6677
 6263TIP3   OH240279   5.771   4.190   4.304  0.2802 -0.4012 -0.3435
 6263TIP3    H140280   5.843   4.249   4.328  0.8948 -0.9433 -0.8306
 6263TIP3    H240281   5.776   4.120   4.369 -0.2181 -0.1167  0.0094
 6264TIP3   OH240282   4.735   1.318   6.439 -0.5795 -0.2164 -0.3982
 6264TIP3    H140283   4.824   1.353   6.445  0.2505 -1.9063 -2.0035
 6264TIP3    H240284   4.699   1.359   6.361 -0.4939 -0.9772 -0.8494
 6265TIP3   OH240285   0.828   5.032   1.094  0.3689 -0.5492 -0.1555
 6265TIP3    H140286   0.800   5.078   1.174  2.5909 -1.5347  1.2772
 6265TIP3    H240287   0.886   5.094   1.050 -0.9014  0.0166 -1.0989
 6266TIP3   OH240288   1.321   2.970  11.798  0.2339  0.1499  0.0414
 6266TIP3    H140289   1.316   3.065  11.789 -0.5126  0.2545  1.3236
 6266TIP3    H240290   1.410   2.948  11.771 -0.2949  0.8912 -2.6638
 6267TIP3   OH240291   2.221   5.513   3.038  0.7812 -0.0450  0.7717
 6267TIP3    H140292   2.196   5.605   3.032  2.0761  0.2414 -2.2845
 6267TIP3    H240293   2.316   5.515   3.053  0.9147 -0.8459  0.1144
 6268TIP3   OH240294   6.217   0.142   3.183 -0.0700 -0.1878 -0.0930
 6268TIP3    H140295   6.261   0.177   3.106  0.1204 -2.7770 -1.2730
 6268TIP3    H240296   6.124   0.152   3.164 -0.0303 -1.2856 -0.9285
 6269TIP3   OH240297   5.598   6.689  13.431 -0.6316  0.0836  0.6521
 6269TIP3    H140298   5.528   6.625  13.416 -1.1629  0.6169  0.8172
 6269TIP3    H240299   5.654   6.682  13.354 -0.7077 -0.5496  0.6490
 6270TIP3   OH240300   6.141   3.614   4.889 -0.8820 -0.5595  0.1806
 6270TIP3    H140301   6.131   3.522   4.865 -2.0675 -0.0470 -1.4762
 6270TIP3    H240302   6.088   3.661   4.824 -2.2143  1.1359  2.3604
 6271TIP3   OH240303   4.435   5.925   0.100  0.5304 -0.4238 -0.2556
 6271TIP3    H140304   4.479   5.988   0.158  0.8405  1.7467 -2.6340
 6271TIP3    H240305   4.351   5.967   0.079  0.5011 -1.0559 -1.4756
 6272TIP3   OH240306   3.404   6.814  17.076 -0.3147 -0.2129  0.5280
 6272TIP3    H140307   3.411   6.731  17.124 -0.9844 -0.5730  0.0214
 6272TIP3    H240308   3.332   6.800  17.015 -1.0763  1.0747  1.0873
 6273TIP3   OH240309   3.713   0.715   2.283 -0.0106 -0.5832  0.5778
 6273TIP3    H140310   3.674   0.696   2.368  1.1675  0.1590  1.3120
 6273TIP3    H240311   3.789   0.657   2.278 -0.6025 -1.3056 -0.4020
 6274TIP3   OH240312   3.954   1.555   5.510 -0.0203 -0.7868 -0.3685
 6274TIP3    H140313   3.943   1.511   5.426  0.1405 -1.0602 -0.2471
 6274TIP3    H240314   3.946   1.648   5.490  0.2556 -0.8406 -0.7213
 6275TIP3   OH240315   1.643   4.055  16.408 -0.0683 -0.6236  0.2692
 6275TIP3    H140316   1.565   4.009  16.438 -0.6308 -1.0501 -1.7052
 6275TIP3    H240317   1.611   4.133  16.365  0.7842  0.6400  1.8228
 6276TIP3   OH240318   0.834   1.103   1.171 -0.3774 -0.2299  0.0404
 6276TIP3    H140319   0.890   1.035   1.131  0.8881  0.2317  0.9715
 6276TIP3    H240320   0.862   1.184   1.129 -0.9076 -0.0843 -0.0407
 6277TIP3   OH240321   2.636   0.709  10.836 -0.0744 -0.8057  0.0047
 6277TIP3    H140322   2.548   0.742  10.852  0.1430 -0.5382  0.6805
 6277TIP3    H240323   2.654   0.652  10.911 -0.4660 -2.5321 -1.1502
 6278TIP3   OH240324   0.098   5.916  16.126  0.3987 -0.4111  0.1433
 6278TIP3    H140325   0.155   5.842  16.105 -2.1170 -2.2234 -0.7875
 6278TIP3    H240326   0.098   5.969  16.047 -0.3385 -1.2203 -0.4162
 6279TIP3   OH240327   5.875   3.866   1.262  0.2538 -0.2220  0.2030
 6279TIP3    H140328   5.797   3.920   1.250 -0.3101 -1.1240 -0.3852
 6279TIP3    H240329   5.847   3.778   1.235  1.3393 -0.6574  0.4465
 6280TIP3   OH240330   0.549   1.884   0.541  0.2068  0.1603 -0.1191
 6280TIP3    H140331   0.618   1.916   0.600 -1.0473  2.1726  0.3656
 6280TIP3    H240332   0.504   1.816   0.591  0.8446 -0.0556  0.1757
 6281TIP3   OH240333   6.318   1.628   4.276 -0.8366 -0.5078 -0.4998
 6281TIP3    H140334   6.275   1.588   4.352 -0.5798  1.0634  0.5247
 6281TIP3    H240335   6.275   1.714   4.268  1.7278  0.9333  0.2702
 6282TIP3   OH240336   0.251   2.633   3.802 -0.5998 -0.1104  0.1801
 6282TIP3    H140337   0.292   2.719   3.788  0.2585 -0.9123 -3.0813
 6282TIP3    H240338   0.302   2.594   3.873  1.0392  0.8941 -0.3810
 6283TIP3   OH240339   0.266   6.798  11.374 -0.1398 -0.3854  0.4168
 6283TIP3    H140340   0.253   6.810  11.280 -0.6236  0.2001  0.5553
 6283TIP3    H240341   0.305   6.880  11.403 -0.7033 -0.2714  0.8601
 6284TIP3   OH240342   3.770   2.170   3.568  0.0353 -0.2538 -0.0615
 6284TIP3    H140343   3.857   2.187   3.533 -0.7433 -0.4867 -2.2853
 6284TIP3    H240344   3.714   2.237   3.529 -1.1742 -1.4437 -0.4856
 6285TIP3   OH240345   0.907   4.890  11.581 -0.2372 -0.0230  0.1277
 6285TIP3    H140346   0.943   4.966  11.534 -0.0650  0.6740  1.3385
 6285TIP3    H240347   0.845   4.851  11.520 -3.1277  3.2466  0.6530
 6286TIP3   OH240348   5.747   3.491  15.220  0.1076  0.0903 -0.0781
 6286TIP3    H140349   5.662   3.453  15.240  1.0666 -1.5923  0.9809
 6286TIP3    H240350   5.798   3.420  15.181  0.7746  1.2990 -1.5301
 6287TIP3   OH240351   2.549   0.498  14.187  0.3610  0.0736  0.2174
 6287TIP3    H140352   2.544   0.454  14.272  2.6923 -0.1256  0.3215
 6287TIP3    H240353   2.524   0.589  14.206  0.3492 -0.0852  1.0022
 6288TIP3   OH240354   2.279   6.748   4.321 -0.1502 -0.1872  0.7474
 6288TIP3    H140355   2.270   6.747   4.226 -0.2720  0.7217  0.7391
 6288TIP3    H240356   2.334   6.672   4.341  0.2385 -0.1381 -0.0869
 6289TIP3   OH240357   4.164   1.555  12.253  0.0609  0.3153  0.0140
 6289TIP3    H140358   4.240   1.560  12.196 -0.0280  0.0492 -0.1287
 6289TIP3    H240359   4.150   1.462  12.267 -0.7426  0.3224 -0.6495
 6290TIP3   OH240360   6.087   2.719  12.754  0.1318 -0.5272 -0.1282
 6290TIP3    H140361   6.179   2.728  12.781  0.9383 -0.7224 -2.5423
 6290TIP3    H240362   6.048   2.805  12.772  1.0840 -0.1017 -0.0163
 6291TIP3   OH240363   5.202   1.339  14.525 -0.0391 -0.2041  0.5647
 6291TIP3    H140364   5.193   1.256  14.478  2.7207  0.5065 -1.5230
 6291TIP3    H240365   5.157   1.403  14.469 -0.2143  0.0498  0.9954
 6292TIP3   OH240366   0.545   3.978   2.245  0.2381  0.5968 -0.5013
 6292TIP3    H140367   0.481   3.937   2.187 -0.7624  0.9988  0.3055
 6292TIP3    H240368   0.593   4.037   2.188 -1.0602  1.3514 -0.8499
 6293TIP3   OH240369   6.808   0.318   2.157 -0.4434  0.0167  0.4288
 6293TIP3    H140370   6.803   0.381   2.085  3.4396  0.6851  0.5176
 6293TIP3    H240371   6.764   0.362   2.230 -0.8446  1.1100 -0.4370
 6294TIP3   OH240372   5.122   3.358   0.845  0.3263  0.0392 -0.3502
 6294TIP3    H140373   5.091   3.288   0.788 -0.3762 -0.8583  1.0802
 6294TIP3    H240374   5.204   3.324   0.882 -0.0152 -0.0469  0.3435
 6295TIP3   OH240375   3.311   3.985  13.216 -0.0036 -0.4211 -0.0090
 6295TIP3    H140376   3.296   4.065  13.164  0.4911  0.5668  1.3096
 6295TIP3    H240377   3.358   3.927  13.157 -1.1418 -0.0980 -1.2898
 6296TIP3   OH240378   4.088   4.294   1.550  0.1983  0.2999 -0.0175
 6296TIP3    H140379   4.044   4.341   1.621 -0.3198 -0.3917  0.1272
 6296TIP3    H240380   4.176   4.278   1.583  0.7313  2.0670 -0.4746
 6297TIP3   OH240381   6.631   5.245  14.169 -0.1973 -0.1425  0.1087
 6297TIP3    H140382   6.620   5.258  14.075  1.7049  0.9293 -0.0140
 6297TIP3    H240383   6.623   5.150  14.182 -1.0816 -0.2407 -1.0110
 6298TIP3   OH240384   2.204   1.232  16.540  0.4288  0.7129  0.9781
 6298TIP3    H140385   2.158   1.248  16.622  0.6323  3.2089  0.6707
 6298TIP3    H240386   2.290   1.200  16.568 -0.4173 -1.1352  1.6166
 6299TIP3   OH240387   6.799   4.343  16.890 -0.4664  0.4215 -0.1459
 6299TIP3    H140388   6.726   4.313  16.945 -0.9778 -1.7440 -1.8261
 6299TIP3    H240389   6.877   4.332  16.945 -1.0305 -0.9783  0.4181
 6300TIP3   OH240390   4.242   3.920  16.732 -0.0641 -0.0740 -0.2591
 6300TIP3    H140391   4.244   3.829  16.762 -1.0510 -0.4105 -1.1689
 6300TIP3    H240392   4.332   3.939  16.707 -0.0686 -1.2102 -1.2275
 6301TIP3   OH240393   0.883   5.144  11.456  0.2630  0.1486  0.0750
 6301TIP3    H140394   0.875   5.178  11.367  0.2462 -1.9067 -0.7683
 6301TIP3    H240395   0.960   5.188  11.492  1.3091 -0.2398 -1.5875
 6302TIP3   OH240396   1.262   1.140   4.856 -0.5711  0.1844 -0.0183
 6302TIP3    H140397   1.323   1.213   4.871 -1.5867  1.1115 -0.2487
 6302TIP3    H240398   1.175   1.180   4.860 -1.2469 -1.3388  1.6152
 6303TIP3   OH240399   0.618   6.346  10.647 -0.1818  0.3477 -0.0624
 6303TIP3    H140400   0.697   6.306  10.611  0.2194  0.9654  0.1215
 6303TIP3    H240401   0.648   6.427  10.687 -1.1156  1.3518 -1.2908
 6304TIP3   OH240402   5.282   5.723  14.161 -0.0473  0.3058 -0.5872
 6304TIP3    H140403   5.364   5.739  14.207  0.3281 -1.2605 -0.6463
 6304TIP3    H240404   5.214   5.740  14.226  0.4307 -0.6876  0.1921
 6305TIP3   OH240405   1.416   1.510   5.472 -0.3130  0.0631  0.4249
 6305TIP3    H140406   1.436   1.521   5.565  0.2879 -0.1278  0.3188
 6305TIP3    H240407   1.391   1.418   5.463 -1.2491  0.2918  0.5520
 6306TIP3   OH240408   2.827   3.345   2.111 -0.0402 -0.4455  0.2342
 6306TIP3    H140409   2.855   3.267   2.158 -0.4369  0.0852  1.4029
 6306TIP3    H240410   2.732   3.348   2.125  0.0189  0.4320  0.5166
 6307TIP3   OH240411   5.269   6.282   2.399  0.3814  0.0470  0.4416
 6307TIP3    H140412   5.221   6.268   2.317 -1.4722 -1.1505  1.6579
 6307TIP3    H240413   5.242   6.369   2.428  0.9294  0.4136 -0.1251
 6308TIP3   OH240414   0.255   1.890   5.609 -0.4679 -0.6014 -0.0733
 6308TIP3    H140415   0.160   1.880   5.615 -0.3943 -0.4657  1.9070
 6308TIP3    H240416   0.284   1.899   5.700  1.4436 -0.6002 -0.6453
 6309TIP3   OH240417   5.696   0.357   1.169  0.4551 -0.2657  0.1919
 6309TIP3    H140418   5.764   0.292   1.151  0.7752 -0.0707  0.6944
 6309TIP3    H240419   5.743   0.435   1.197  0.0975  0.3676 -0.9101
 6310TIP3   OH240420   5.441   5.021   4.034  0.3891 -0.2518  0.3898
 6310TIP3    H140421   5.434   4.977   3.950  0.8869  1.6540 -0.7159
 6310TIP3    H240422   5.501   4.967   4.085  1.0159 -0.8314 -0.9178
 6311TIP3   OH240423   1.594   1.049  12.172  0.0111 -0.4112 -0.0242
 6311TIP3    H140424   1.605   1.120  12.108  1.1540 -0.3387  0.2471
 6311TIP3    H240425   1.514   1.005  12.143  1.1840 -1.2256 -2.3682
 6312TIP3   OH240426   1.263   4.205   5.404 -0.3937  0.7479 -0.3396
 6312TIP3    H140427   1.263   4.216   5.499 -0.2247  1.7687 -0.4410
 6312TIP3    H240428   1.356   4.208   5.380 -0.3399 -0.9275 -0.4042
 6313TIP3   OH240429   6.556   2.543  16.015 -0.2601 -0.3591 -0.1044
 6313TIP3    H140430   6.515   2.543  16.102  2.6427  0.0106  1.3869
 6313TIP3    H240431   6.570   2.635  15.995  2.8205 -0.4372  1.0882
 6314TIP3   OH240432   6.330   5.420  11.720 -0.0567  0.0727  0.1985
 6314TIP3    H140433   6.356   5.505  11.754  0.4000 -0.1943  0.5257
 6314TIP3    H240434   6.389   5.405  11.646  0.9652 -0.6797  1.1404
 6315TIP3   OH240435   5.394   1.588   0.613 -0.3512  0.1192 -0.7420
 6315TIP3    H140436   5.332   1.632   0.556  2.6171  2.0122 -2.7859
 6315TIP3    H240437   5.416   1.507   0.566  0.0620  0.3597 -0.9749
 6316TIP3   OH240438   4.915   0.249  11.775  0.3824  0.0255  0.1222
 6316TIP3    H140439   4.913   0.272  11.682  1.9923 -2.9055 -0.7704
 6316TIP3    H240440   4.871   0.164  11.779  0.0111  0.2673  2.1293
 6317TIP3   OH240441   1.260   3.172   0.532  0.1794  0.0327  0.2401
 6317TIP3    H140442   1.308   3.090   0.520 -1.1902 -0.6751 -0.7293
 6317TIP3    H240443   1.210   3.158   0.613  0.6208  0.2643  0.5543
 6318TIP3   OH240444   0.262   4.229   0.795  0.2752 -0.2719 -0.7330
 6318TIP3    H140445   0.229   4.298   0.737  2.0262  1.2755  0.0297
 6318TIP3    H240446   0.193   4.163   0.794 -1.2606  1.2421 -1.8920
 6319TIP3   OH240447   0.511   1.096  15.124 -0.6803  0.1952 -1.1015
 6319TIP3    H140448   0.422   1.063  15.135 -0.7399  0.1551 -1.6879
 6319TIP3    H240449   0.535   1.128  15.211 -1.0982 -0.2039 -0.8344
 6320TIP3   OH240450   5.402   0.734   0.052  0.0875  0.0366 -0.2203
 6320TIP3    H140451   5.469   0.722  -0.015  0.8266  1.5322  0.2146
 6320TIP3    H240452   5.446   0.782   0.122 -0.8949 -0.7464  0.9737
 6321TIP3   OH240453   1.425   4.487  13.758 -0.4764 -0.1481 -0.4175
 6321TIP3    H140454   1.415   4.455  13.848 -1.9463 -0.8270 -0.7976
 6321TIP3    H240455   1.503   4.441  13.726 -1.0459 -1.3949 -0.0945
 6322TIP3   OH240456   3.864   6.061  13.025  0.3777  0.1938 -0.2118
 6322TIP3    H140457   3.944   6.096  12.985  0.9835 -0.4827  0.3702
 6322TIP3    H240458   3.858   6.105  13.110  0.7040 -0.4872  0.1787
 6323TIP3   OH240459   3.176   0.860   3.201 -0.0338  0.2562 -0.3434
 6323TIP3    H140460   3.101   0.909   3.168 -0.6000  0.1829  0.7861
 6323TIP3    H240461   3.138   0.787   3.250  0.7888 -1.9095 -2.7242
 6324TIP3   OH240462   1.488   0.546   2.344  0.0650  0.0931 -0.9306
 6324TIP3    H140463   1.532   0.596   2.275  0.7463 -0.9626 -1.2892
 6324TIP3    H240464   1.529   0.459   2.340  0.8666  0.2929  1.5040
 6325TIP3   OH240465   0.494   5.173  15.466  0.0142  0.4482  0.1131
 6325TIP3    H140466   0.471   5.266  15.466 -0.6020  0.3203 -1.2993
 6325TIP3    H240467   0.501   5.150  15.558 -1.6886  1.4599  0.5469
 6326TIP3   OH240468   4.901   2.525   6.085  0.1621 -0.4193  0.5084
 6326TIP3    H140469   4.977   2.526   6.143 -0.9297 -1.1382  2.0035
 6326TIP3    H240470   4.882   2.432   6.071 -1.1613 -0.2684  1.1606
 6327TIP3   OH240471   6.817   3.178   1.787 -0.3749  0.6317 -0.2257
 6327TIP3    H140472   6.870   3.194   1.865 -1.6283 -1.7463  1.2238
 6327TIP3    H240473   6.863   3.108   1.741 -0.7597  0.5550 -0.4938
 6328TIP3   OH240474   0.791   6.223   1.216  0.2262  0.3475 -0.6826
 6328TIP3    H140475   0.797   6.281   1.141  1.5516 -0.2649 -1.0864
 6328TIP3    H240476   0.705   6.182   1.208 -1.2779  3.0603  0.2719
 6329TIP3   OH240477   5.561   3.217   5.016  0.1521  0.0301 -0.0708
 6329TIP3    H140478   5.511   3.154   5.069 -1.4145  1.2363 -0.0353
 6329TIP3    H240479   5.652   3.200   5.039 -0.3879 -0.4517  1.9740
 6330TIP3   OH240480   6.255   4.013  16.537 -0.3511  0.0719  0.1663
 6330TIP3    H140481   6.337   4.027  16.490 -0.0895 -1.8596 -0.0679
 6330TIP3    H240482   6.264   4.065  16.617  0.7635  0.5059 -0.2192
 6331TIP3   OH240483   3.202   1.074  10.959 -0.2077 -0.0162 -0.0702
 6331TIP3    H140484   3.191   1.011  10.888 -0.0670 -0.5899  0.4096
 6331TIP3    H240485   3.145   1.042  11.029 -1.0501  1.0483 -0.2415
 6332TIP3   OH240486   2.312   0.825   4.672  0.4108 -0.0020  0.3460
 6332TIP3    H140487   2.262   0.881   4.730 -0.2054 -0.1426 -0.0387
 6332TIP3    H240488   2.315   0.872   4.589 -2.2836 -1.5927 -0.7644
 6333TIP3   OH240489   0.495   3.667  14.451  0.5928 -0.1146 -0.2482
 6333TIP3    H140490   0.484   3.585  14.402 -0.5699 -1.0889  1.5170
 6333TIP3    H240491   0.578   3.656  14.497  1.0020  0.2165 -0.8860
 6334TIP3   OH240492   0.885   5.713  15.876  0.2544  0.1944  0.5744
 6334TIP3    H140493   0.905   5.742  15.787  0.0223  3.3840  1.4181
 6334TIP3    H240494   0.806   5.761  15.899  0.8622  0.2172  2.8294
 6335TIP3   OH240495   1.049   6.745   5.860  0.1761  0.2375  0.3984
 6335TIP3    H140496   1.083   6.781   5.942  1.1134  1.5316 -0.5375
 6335TIP3    H240497   1.041   6.820   5.801  1.9447 -0.9788 -1.5308
 6336TIP3   OH240498   2.673   3.254   2.540 -1.1639  0.0115 -0.0717
 6336TIP3    H140499   2.728   3.311   2.485 -0.0455  1.1154  2.0496
 6336TIP3    H240500   2.583   3.281   2.520 -0.6846  2.2242  0.4764
 6337TIP3   OH240501   2.244   4.545  13.613 -0.1695 -0.3505 -0.9169
 6337TIP3    H140502   2.194   4.627  13.612  0.1900 -0.0931  0.5346
 6337TIP3    H240503   2.330   4.569  13.578  0.2873  0.1521  0.5057
 6338TIP3   OH240504   3.619   2.717  16.491  0.5287  0.1693  0.1686
 6338TIP3    H140505   3.646   2.642  16.436 -1.2049 -0.8065  0.5525
 6338TIP3    H240506   3.525   2.724  16.475  0.6158  2.1175  0.3794
 6339TIP3   OH240507   4.929   5.556  11.326  0.4547 -0.2042  0.8479
 6339TIP3    H140508   4.887   5.524  11.406  0.6328  0.2900  1.1437
 6339TIP3    H240509   4.911   5.650  11.325  0.7228 -0.1550  0.4730
 6340TIP3   OH240510   0.694   4.671  15.723 -0.5998  0.2265  0.1404
 6340TIP3    H140511   0.643   4.651  15.801 -2.3658 -0.8740 -1.2069
 6340TIP3    H240512   0.668   4.603  15.660  0.5721  1.2106 -1.4700
 6341TIP3   OH240513   2.546   3.487  16.437 -0.3139  0.7079 -0.5055
 6341TIP3    H140514   2.544   3.539  16.357  1.4869  0.6738 -0.6160
 6341TIP3    H240515   2.624   3.516  16.483 -0.7843  0.0325  0.7733
 6342TIP3   OH240516   3.694   5.916   0.973 -0.1229 -0.6702 -0.6792
 6342TIP3    H140517   3.603   5.931   1.000 -0.1853 -0.5470 -0.9627
 6342TIP3    H240518   3.736   6.002   0.983 -0.0781 -0.6890 -0.7090
 6343TIP3   OH240519   2.426   5.416  11.371  0.2308  0.4193  0.3911
 6343TIP3    H140520   2.407   5.340  11.316  4.2583  0.4720 -1.4417
 6343TIP3    H240521   2.396   5.391  11.459  0.6654 -2.9747 -0.3083
 6344TIP3   OH240522   2.165   3.477   3.084 -0.6232  0.1752  0.4720
 6344TIP3    H140523   2.231   3.469   3.016 -0.4623 -2.0792  0.8356
 6344TIP3    H240524   2.196   3.548   3.140 -0.0718  1.1371 -1.0106
 6345TIP3   OH240525   1.080   5.021  14.398 -0.1304 -0.3290  0.5970
 6345TIP3    H140526   1.052   4.953  14.458  1.7166 -0.9305  0.8579
 6345TIP3    H240527   1.073   4.981  14.311 -0.4702 -0.3185  0.6191
 6346TIP3   OH240528   1.597   5.565  13.653 -0.1471 -0.1173  0.2581
 6346TIP3    H140529   1.527   5.577  13.589  0.1553  0.9358  0.0998
 6346TIP3    H240530   1.566   5.610  13.732  0.1736  0.0005  0.3204
 6347TIP3   OH240531   4.875   0.053  12.299  0.0115  0.3882  0.3035
 6347TIP3    H140532   4.864   0.147  12.285 -1.2631  0.2677  0.3598
 6347TIP3    H240533   4.949   0.046  12.359  0.2982  1.3401  0.0764
 6348TIP3   OH240534   2.175   5.863  14.940 -0.4283  0.5120 -0.1945
 6348TIP3    H140535   2.238   5.846  15.009 -1.6151  0.1169  0.8196
 6348TIP3    H240536   2.141   5.777  14.916 -2.6338  0.9044  1.2889
 6349TIP3   OH240537   4.537   1.101  15.222 -0.3063  0.0799 -0.3634
 6349TIP3    H140538   4.628   1.129  15.215 -0.3971  0.7597  0.8076
 6349TIP3    H240539   4.515   1.114  15.315 -1.9741  1.1803 -0.8521
 6350TIP3   OH240540   2.405   2.426   2.391 -0.0006  0.6973  0.0070
 6350TIP3    H140541   2.440   2.449   2.305  2.0506  1.6287  1.0209
 6350TIP3    H240542   2.430   2.499   2.448 -0.0727 -0.5266  1.7038
 6351TIP3   OH240543   1.516   5.012   2.589  0.5905 -0.2251  0.5037
 6351TIP3    H140544   1.500   4.936   2.532 -0.0451  0.9402 -0.9302
 6351TIP3    H240545   1.469   5.084   2.547  1.9808  1.1982  1.2774
 6352TIP3   OH240546   0.126   0.945  12.031  0.8643 -0.6967  0.1735
 6352TIP3    H140547   0.040   0.986  12.039 -0.1363 -2.7453  0.6887
 6352TIP3    H240548   0.179   0.987  12.099  0.0198 -0.0052  0.4294
 6353TIP3   OH240549   6.637   0.019  16.483  0.0712  0.4237  0.3984
 6353TIP3    H140550   6.612   0.101  16.439 -0.3008 -0.2754 -0.7468
 6353TIP3    H240551   6.706  -0.017  16.428 -1.0833 -0.9625 -0.2051
 6354TIP3   OH240552   4.287   6.484  15.858  0.5241  0.3626 -0.8019
 6354TIP3    H140553   4.306   6.397  15.893 -1.7899  0.0301 -0.1969
 6354TIP3    H240554   4.360   6.538  15.888  2.5804 -1.5422 -2.1166
 6355TIP3   OH240555   0.695   6.036  14.055  0.5453 -0.2223 -0.5611
 6355TIP3    H140556   0.677   5.969  14.120  0.7797 -0.4405 -0.7203
 6355TIP3    H240557   0.784   6.065  14.073  0.0961  0.7658  0.1382
 6356TIP3   OH240558   4.820   2.482   6.479 -0.4716 -0.2991  0.1833
 6356TIP3    H140559   4.901   2.491   6.528 -0.5791 -1.5112  0.6285
 6356TIP3    H240560   4.834   2.403   6.425 -2.1517 -1.9374  1.9786
 6357TIP3   OH240561   2.493   4.911  13.627 -0.1995  0.0182 -0.2485
 6357TIP3    H140562   2.569   4.877  13.675 -1.2658 -0.2411  1.3531
 6357TIP3    H240563   2.493   5.005  13.647 -0.7374 -0.1171  0.4438
 6358TIP3   OH240564   3.277   3.224  11.265 -0.2348  0.2517  0.5829
 6358TIP3    H140565   3.222   3.157  11.306  0.7199 -0.9222 -0.0208
 6358TIP3    H240566   3.366   3.190  11.272  0.3472  1.7514  0.8179
 6359TIP3   OH240567   1.879   1.456   3.156  0.4163  0.2240  0.0493
 6359TIP3    H140568   1.802   1.512   3.154 -0.2528 -0.5366  1.9219
 6359TIP3    H240569   1.854   1.380   3.103  1.0127  1.2388 -1.7803
 6360TIP3   OH240570   1.065   1.441  14.966 -0.5745 -0.1795 -0.5415
 6360TIP3    H140571   1.003   1.495  15.014  0.9651  1.0735  0.1493
 6360TIP3    H240572   1.046   1.351  14.993 -3.3620 -0.1025 -1.9214
 6361TIP3   OH240573   2.749   1.511   0.411 -0.1940 -0.3094  0.2749
 6361TIP3    H140574   2.685   1.444   0.387 -2.5259  1.8165  0.1426
 6361TIP3    H240575   2.727   1.534   0.502  0.7073  0.1275  0.3936
 6362TIP3   OH240576   6.389   0.946   1.344  0.1921  0.1121 -0.3708
 6362TIP3    H140577   6.434   0.886   1.404  3.3808  2.5400 -0.0619
 6362TIP3    H240578   6.401   0.906   1.258 -0.5376 -1.2071  0.1059
 6363TIP3   OH240579   4.102   0.605   1.687  0.4662  0.9072 -0.0133
 6363TIP3    H140580   4.085   0.539   1.754  1.0010  0.5383 -0.2298
 6363TIP3    H240581   4.084   0.561   1.605 -2.9250  2.1706 -0.0808
 6364TIP3   OH240582   6.522   6.033   3.682 -0.7673  0.0228 -0.8416
 6364TIP3    H140583   6.593   6.071   3.733 -1.1468 -1.3611  0.7887
 6364TIP3    H240584   6.565   5.993   3.607 -0.2129  2.1688 -1.7437
 6365TIP3   OH240585   0.297   2.475  13.401  0.5443 -0.1030  0.8162
 6365TIP3    H140586   0.273   2.568  13.405  0.8389 -0.0505  1.3716
 6365TIP3    H240587   0.243   2.433  13.468  1.1584 -0.1655  1.2827
 6366TIP3   OH240588   2.587   1.229  10.103 -0.0137  0.7477  0.4726
 6366TIP3    H140589   2.608   1.135  10.112  0.7960  0.8303 -0.4090
 6366TIP3    H240590   2.672   1.271  10.092 -0.5019  1.2995 -1.6601
 6367TIP3   OH240591   1.735   0.628  14.597 -0.3608  0.6120 -0.4718
 6367TIP3    H140592   1.662   0.614  14.657 -0.0513  1.2240  0.0661
 6367TIP3    H240593   1.752   0.722  14.603 -0.3888  0.6921 -1.6058
 6368TIP3   OH240594   4.208   3.039  15.945 -0.1028  0.9853  0.5246
 6368TIP3    H140595   4.175   3.055  15.856 -0.5270  2.0685  0.8696
 6368TIP3    H240596   4.298   3.070  15.942 -0.0324  0.7692  0.3954
 6369TIP3   OH240597   0.992   6.478  16.432  0.6783 -0.6565 -0.2486
 6369TIP3    H140598   1.024   6.554  16.482 -0.2402 -0.3565 -0.0972
 6369TIP3    H240599   0.972   6.412  16.498  1.6812 -1.1274 -0.3943
 6370TIP3   OH240600   4.949   2.957  15.881  0.3183 -0.3800 -0.3098
 6370TIP3    H140601   4.949   2.947  15.976 -0.8842  0.2501 -0.2286
 6370TIP3    H240602   4.914   2.875  15.847 -1.0220  0.0772 -0.0959
 6371TIP3   OH240603   1.665   4.399  11.286 -0.3220  0.3330  0.4939
 6371TIP3    H140604   1.743   4.409  11.341 -0.3194  0.7657  0.4101
 6371TIP3    H240605   1.696   4.355  11.207 -0.0294  1.1302  0.1588
 6372TIP3   OH240606   4.175   4.356  12.541  0.1970 -0.0422 -0.9418
 6372TIP3    H140607   4.196   4.449  12.531  1.2388 -0.2811 -1.0382
 6372TIP3    H240608   4.225   4.312  12.472  0.7227 -0.8033 -0.1050
 6373TIP3   OH240609   4.937   2.089   3.526  0.1896  0.5550 -0.0605
 6373TIP3    H140610   5.020   2.069   3.568 -0.1073 -2.3036 -0.6172
 6373TIP3    H240611   4.870   2.064   3.590 -0.2320 -0.4752 -0.8725
 6374TIP3   OH240612   2.194   4.655   5.937 -0.0783  0.2908 -0.2807
 6374TIP3    H140613   2.182   4.735   5.989 -1.1966 -0.3602  0.4971
 6374TIP3    H240614   2.266   4.609   5.979  0.5286  0.8315 -0.6931
 6375TIP3   OH240615   2.487   0.445  16.494  0.3413 -0.2696 -0.3153
 6375TIP3    H140616   2.529   0.522  16.534 -1.2718  0.0472  0.8757
 6375TIP3    H240617   2.533   0.371  16.532 -0.6326  0.0501  1.6487
 6376TIP3   OH240618   1.456   1.528   0.689  0.5050  0.7095  0.1133
 6376TIP3    H140619   1.522   1.594   0.708  0.5578  0.6439  0.1574
 6376TIP3    H240620   1.488   1.483   0.610  2.0130 -1.2902  1.7579
 6377TIP3   OH240621   0.807   4.780   1.048  0.1085 -0.1655 -0.7010
 6377TIP3    H140622   0.815   4.875   1.040 -1.9774 -0.0324 -1.9217
 6377TIP3    H240623   0.749   4.754   0.977 -0.0809 -2.2648  0.1241
 6378TIP3   OH240624   6.802   2.795  13.087  0.9459 -0.0727 -0.1891
 6378TIP3    H140625   6.768   2.731  13.149  3.0469 -1.1719 -0.0898
 6378TIP3    H240626   6.755   2.876  13.108 -0.6916 -1.1949  0.6594
 6379TIP3   OH240627   3.543   3.517   0.623 -0.3664 -0.1906  0.0398
 6379TIP3    H140628   3.619   3.492   0.569  0.6859  0.7932  1.0208
 6379TIP3    H240629   3.516   3.436   0.665 -0.4643 -0.7388 -1.0462
 6380TIP3   OH240630   1.927   6.188   0.829 -0.0170  0.1863  0.2304
 6380TIP3    H140631   1.952   6.124   0.763  0.0923 -0.0041  0.4533
 6380TIP3    H240632   1.966   6.155   0.910  2.2777  1.8691 -0.1011
 6381TIP3   OH240633   3.002   0.967   0.498 -0.2993 -0.4686  0.0726
 6381TIP3    H140634   2.939   0.956   0.427 -2.3148  3.3104  1.0563
 6381TIP3    H240635   2.952   0.952   0.578  0.5407  0.6711  0.8416
 6382TIP3   OH240636   2.209   4.884   6.129 -0.6788 -0.1821  0.4333
 6382TIP3    H140637   2.302   4.884   6.152 -0.7054  0.8963  0.5648
 6382TIP3    H240638   2.164   4.891   6.213 -0.8274  1.2902  0.2534
 6383TIP3   OH240639   6.849   6.753   1.242  0.2958  0.2409 -0.6778
 6383TIP3    H140640   6.858   6.834   1.193  2.1150  1.1647  1.0401
 6383TIP3    H240641   6.784   6.772   1.309  0.9138  0.3906 -0.1113
 6384TIP3   OH240642   4.979   1.142   1.914 -0.1045  0.4189 -0.8939
 6384TIP3    H140643   4.917   1.204   1.954  0.5031  0.0913  0.6211
 6384TIP3    H240644   4.977   1.164   1.821 -0.6496  2.0647 -0.5389
 6385TIP3   OH240645   3.278   3.061  16.375 -0.4078 -0.3619 -0.0878
 6385TIP3    H140646   3.310   3.149  16.393  0.7702 -1.0670  1.6255
 6385TIP3    H240647   3.322   3.035  16.293 -1.2912  0.8570 -0.9676
 6386TIP3   OH240648   5.037   1.658   5.481 -0.2734  0.4500 -0.2571
 6386TIP3    H140649   5.104   1.704   5.532  0.0281  1.0275 -1.1423
 6386TIP3    H240650   5.036   1.705   5.397  0.2433 -1.3415 -1.3068
 6387TIP3   OH240651   3.547   2.413   5.654 -0.3745 -0.1581 -0.0501
 6387TIP3    H140652   3.501   2.336   5.689  1.1592 -0.7053  0.9175
 6387TIP3    H240653   3.626   2.376   5.614  0.2172  0.8775  0.1363
 6388TIP3   OH240654   4.479   2.115   3.513 -0.0161  0.1935  0.6746
 6388TIP3    H140655   4.540   2.075   3.575  2.3309  1.2498 -0.7762
 6388TIP3    H240656   4.469   2.050   3.443 -0.1280  0.2200  0.6662
 6389TIP3   OH240657   2.646   2.956   2.484 -0.6060 -0.5749 -0.3673
 6389TIP3    H140658   2.571   2.917   2.529  0.6744 -1.3977  1.1844
 6389TIP3    H240659   2.653   3.044   2.522  0.2728 -1.1513  0.8929
 6390TIP3   OH240660   2.054   0.275  14.999 -0.1282 -0.0142  0.0719
 6390TIP3    H140661   2.028   0.234  14.916 -0.2239 -1.2402  0.6858
 6390TIP3    H240662   2.054   0.203  15.062  0.2280  0.8493  1.0806
 6391TIP3   OH240663   3.061   2.531  15.471 -0.0413 -0.0056  0.2058
 6391TIP3    H140664   3.017   2.518  15.555 -1.2857  2.1756 -0.0151
 6391TIP3    H240665   2.990   2.548  15.410  0.9781  1.5751 -0.6013
 6392TIP3   OH240666   1.316   4.470   5.065 -0.1745  0.0009 -0.0019
 6392TIP3    H140667   1.223   4.495   5.061 -0.3511 -0.5718  0.4882
 6392TIP3    H240668   1.348   4.512   5.145 -0.1100 -0.1333  0.0419
 6393TIP3   OH240669   4.033   5.327   9.965 -0.2380  0.3126  0.0564
 6393TIP3    H140670   4.091   5.279   9.907 -0.0850 -0.5061  0.8607
 6393TIP3    H240671   3.945   5.298   9.940 -0.1777  0.0287  0.1706
 6394TIP3   OH240672   0.016   4.777  15.384 -0.5257 -0.2465 -0.2129
 6394TIP3    H140673   0.019   4.842  15.454 -1.7472  1.7213 -1.8563
 6394TIP3    H240674   0.108   4.758  15.365 -0.1557  0.3429  0.9059
 6395TIP3   OH240675   0.042   3.084  13.856  0.3830  0.8060  0.0572
 6395TIP3    H140676   0.137   3.071  13.849  0.2778 -1.0677  1.4061
 6395TIP3    H240677   0.008   2.999  13.884 -1.7091  1.4539 -0.3200
 6396TIP3   OH240678   6.355   0.935   3.834 -0.1455 -0.1137  0.0362
 6396TIP3    H140679   6.266   0.901   3.839 -0.5082  0.8444  0.1398
 6396TIP3    H240680   6.357   0.985   3.752 -0.1902  1.2234  0.8259
 6397TIP3   OH240681   3.164   2.744  14.470  0.9626  0.0810 -0.0237
 6397TIP3    H140682   3.149   2.701  14.386 -0.7975 -0.5580  0.5541
 6397TIP3    H240683   3.095   2.709  14.527  0.0400  2.9144  0.7654
 6398TIP3   OH240684   3.169   5.308   6.199 -0.1376  0.7305 -0.3469
 6398TIP3    H140685   3.222   5.381   6.168 -0.9333  1.5009  0.0385
 6398TIP3    H240686   3.232   5.239   6.220  0.6689  1.4572 -0.3171
 6399TIP3   OH240687   5.158   6.546  16.964  0.5444  0.4792 -0.0896
 6399TIP3    H140688   5.076   6.565  16.917  1.4764  1.8072 -1.2651
 6399TIP3    H240689   5.158   6.609  17.036  0.7661  0.8154 -0.3837
 6400TIP3   OH240690   4.303   2.770  16.592  0.1296  0.2517 -0.0391
 6400TIP3    H140691   4.232   2.734  16.645 -0.2409 -0.8985 -1.2632
 6400TIP3    H240692   4.382   2.748  16.641 -0.0069 -3.0798 -1.0983
 6401TIP3   OH240693   3.952   5.201  10.393 -0.4703  0.0824 -0.1464
 6401TIP3    H140694   3.937   5.106  10.400  0.4241  0.0770  4.1439
 6401TIP3    H240695   4.038   5.208  10.353 -0.1317 -0.9734  0.3580
 6402TIP3   OH240696   4.767   6.221  12.315 -1.0764 -0.4504  0.3806
 6402TIP3    H140697   4.862   6.228  12.309 -1.2264  1.1014 -1.0059
 6402TIP3    H240698   4.741   6.293  12.373 -1.5331  0.6516 -1.1255
 6403TIP3   OH240699   0.019   6.597   3.053 -0.3119  0.1070 -0.1464
 6403TIP3    H140700  -0.020   6.576   2.968  0.4169  0.3209 -0.5387
 6403TIP3    H240701   0.113   6.582   3.041 -0.4468 -2.4114  1.3839
 6404TIP3   OH240702   4.209   2.307  15.415 -0.4526  0.3064  0.0445
 6404TIP3    H140703   4.293   2.336  15.378  0.4083 -1.3107  0.6523
 6404TIP3    H240704   4.185   2.230  15.363 -1.2811  0.4087  0.2593
 6405TIP3   OH240705   3.548   0.165   3.590  0.0003  0.2311  0.0803
 6405TIP3    H140706   3.617   0.225   3.620  0.7567 -0.5707  0.0009
 6405TIP3    H240707   3.547   0.176   3.494  1.0390 -0.7783 -0.0762
 6406TIP3   OH240708   3.051   1.911  11.096  0.1975  0.7433  0.0557
 6406TIP3    H140709   3.037   1.852  11.021 -2.0001  0.1989  0.8391
 6406TIP3    H240710   2.995   1.877  11.165  0.6843  2.3962  1.3383
 6407TIP3   OH240711   3.576   0.516  14.445 -0.4212 -0.2851  0.0864
 6407TIP3    H140712   3.516   0.443  14.460  0.1919 -0.7731  0.1826
 6407TIP3    H240713   3.652   0.477  14.403 -0.7385  0.5499 -1.3500
 6408TIP3   OH240714   3.737   1.148  14.542 -0.4230  0.5258 -0.1910
 6408TIP3    H140715   3.662   1.157  14.600 -0.6848 -0.7409 -0.2959
 6408TIP3    H240716   3.752   1.236  14.507 -1.1548  1.0083  0.6875
 6409TIP3   OH240717   5.003   0.413  16.328 -0.1700 -0.3723  0.4210
 6409TIP3    H140718   5.023   0.363  16.408  1.1401 -0.1013  0.2915
 6409TIP3    H240719   4.966   0.495  16.359 -0.8731 -0.7864  0.6955
 6410TIP3   OH240720   5.602   0.570   4.286  0.0939 -0.4963 -0.1779
 6410TIP3    H140721   5.578   0.478   4.296  0.8793 -0.4871  2.5885
 6410TIP3    H240722   5.696   0.568   4.267  0.0820 -0.2644 -0.2593
 6411TIP3   OH240723   5.961   4.464   2.308  0.2705 -0.3990 -0.4963
 6411TIP3    H140724   5.967   4.495   2.218  0.7347 -1.0387 -0.6968
 6411TIP3    H240725   5.979   4.370   2.302 -1.2100 -0.7406  0.0750
 6412TIP3   OH240726   5.037   2.383  15.461  0.0829 -0.8088 -0.2307
 6412TIP3    H140727   4.997   2.463  15.428  0.3678 -0.6230 -0.1295
 6412TIP3    H240728   4.965   2.321  15.469  0.0795 -1.0586 -1.7691
 6413TIP3   OH240729   3.906   1.434   2.333  0.1862  0.4174  0.3406
 6413TIP3    H140730   3.967   1.502   2.362  1.1800 -0.4889  0.4560
 6413TIP3    H240731   3.926   1.358   2.388 -0.6795 -0.0634  0.0090
 6414TIP3   OH240732   6.572   5.907   0.927  0.0677  0.4459  0.6312
 6414TIP3    H140733   6.489   5.955   0.927  0.4648  1.1679  1.1165
 6414TIP3    H240734   6.548   5.817   0.908 -0.8936  0.5483  1.2607
 6415TIP3   OH240735   3.232   3.862  14.027 -0.0382 -0.3230  0.2503
 6415TIP3    H140736   3.281   3.808  13.965 -1.0182  1.0149 -1.7966
 6415TIP3    H240737   3.300   3.906  14.079  0.7880 -1.9128  0.5855
 6416TIP3   OH240738   6.194   6.091   1.592 -0.3003 -0.4504  0.1790
 6416TIP3    H140739   6.241   6.018   1.632 -2.8489 -1.3297  1.8474
 6416TIP3    H240740   6.145   6.051   1.520  0.2299  0.1385 -0.5247
 6417TIP3   OH240741   5.848   4.900   6.002 -0.0195  0.1257  0.0866
 6417TIP3    H140742   5.916   4.843   5.967 -1.3048 -1.2788 -0.2726
 6417TIP3    H240743   5.835   4.870   6.092 -0.3609  0.1829  0.0596
 6418TIP3   OH240744   5.315   1.573   0.300  0.6313  0.1241 -0.2593
 6418TIP3    H140745   5.318   1.553   0.207  1.9749  1.3370 -0.5157
 6418TIP3    H240746   5.378   1.513   0.340  1.5607  0.9708 -0.4332
 6419TIP3   OH240747   6.092   2.160  12.634 -0.0348  0.5535 -0.0661
 6419TIP3    H140748   6.180   2.187  12.607  0.2537 -0.9332 -0.7414
 6419TIP3    H240749   6.033   2.219  12.587  0.5910  0.8500 -0.4903
 6420TIP3   OH240750   0.896   2.479  13.717  0.3202  0.4919 -0.0607
 6420TIP3    H140751   0.847   2.529  13.652  0.8354  0.1909 -0.6814
 6420TIP3    H240752   0.928   2.545  13.779 -0.7889  0.7031  0.3067
 6421TIP3   OH240753   4.729   4.019  14.006  0.3904 -0.0869 -0.3935
 6421TIP3    H140754   4.785   3.963  13.952 -0.5024 -1.7786  0.3553
 6421TIP3    H240755   4.668   3.958  14.049  0.3887  1.2856  1.7087
 6422TIP3   OH240756   0.451   0.512  12.507  0.2531 -0.7799  0.0846
 6422TIP3    H140757   0.364   0.481  12.480  0.1038  1.1230 -1.8606
 6422TIP3    H240758   0.433   0.583  12.568  0.3867  0.1182 -0.8982
 6423TIP3   OH240759   3.358   6.103   1.622  0.7293 -0.1396 -0.3111
 6423TIP3    H140760   3.403   6.064   1.548  0.4772 -2.8623  0.8581
 6423TIP3    H240761   3.311   6.030   1.664 -4.0215  2.2090 -0.8295
 6424TIP3   OH240762   0.912   0.826  15.746 -0.2951  0.9519 -0.5070
 6424TIP3    H140763   0.931   0.753  15.806  2.2315  1.9878  0.1202
 6424TIP3    H240764   0.952   0.800  15.663 -0.3935  1.1406 -0.6136
 6425TIP3   OH240765   2.088   0.197   4.007  0.3949  0.0824 -0.0044
 6425TIP3    H140766   2.172   0.196   3.961  0.3343 -0.3913 -0.1067
 6425TIP3    H240767   2.042   0.120   3.976 -0.2893  0.6090 -0.3217
 6426TIP3   OH240768   1.344   5.295   4.832  0.1812 -0.0606  0.3791
 6426TIP3    H140769   1.421   5.294   4.889  0.0636 -0.2863  0.5324
 6426TIP3    H240770   1.380   5.308   4.744  0.5184 -1.6511  0.2523
 6427TIP3   OH240771   1.218   3.810   0.585  0.0578  0.5472 -0.1478
 6427TIP3    H140772   1.183   3.899   0.597 -0.5043  0.2410  0.5250
 6427TIP3    H240773   1.195   3.764   0.665  0.7063 -0.0983 -0.3230
 6428TIP3   OH240774   5.543   2.425  12.724 -0.4343 -0.1943  0.3330
 6428TIP3    H140775   5.627   2.392  12.692  0.1540  0.6888  0.9348
 6428TIP3    H240776   5.511   2.481  12.654 -1.1271 -1.4584 -0.4137
 6429TIP3   OH240777   0.034   0.029   2.103 -0.5330  0.1664 -0.5012
 6429TIP3    H140778  -0.003   0.111   2.134  0.4571  1.3492 -2.2698
 6429TIP3    H240779   0.122   0.027   2.140 -0.8598 -0.5591  0.2621
 6430TIP3   OH240780   6.623   1.252  13.581 -0.4033  0.0367  0.4921
 6430TIP3    H140781   6.606   1.186  13.514 -0.3116 -0.1756  0.6765
 6430TIP3    H240782   6.702   1.297  13.551 -0.3095 -0.1202  0.5089
 6431TIP3   OH240783   0.729   2.707   0.232 -0.3478 -0.3819  0.4145
 6431TIP3    H140784   0.734   2.788   0.181 -1.6724 -0.5815 -0.0719
 6431TIP3    H240785   0.808   2.658   0.207  1.3688  1.4270  1.9733
 6432TIP3   OH240786   2.360   1.176   5.713 -0.4385 -0.7963  0.6525
 6432TIP3    H140787   2.289   1.211   5.766  1.1416 -0.2465  2.5047
 6432TIP3    H240788   2.339   1.206   5.624 -1.4173  1.1984  1.4692
 6433TIP3   OH240789   6.113   1.331  13.137 -0.3653 -0.1316  0.3770
 6433TIP3    H140790   6.102   1.426  13.131 -1.1471 -0.1211  1.6529
 6433TIP3    H240791   6.031   1.295  13.103 -0.2959 -0.3318  0.4189
 6434TIP3   OH240792   0.812   0.642  12.488 -0.1304  0.3702  0.0242
 6434TIP3    H140793   0.841   0.693  12.412  0.4816  0.5326  0.3590
 6434TIP3    H240794   0.826   0.700  12.563 -0.8627  0.2605  0.2487
 6435TIP3   OH240795   3.621   2.590  15.644 -0.1834 -0.0293  0.4209
 6435TIP3    H140796   3.539   2.631  15.672  1.1834  1.4951  2.4689
 6435TIP3    H240797   3.614   2.499  15.674 -2.2770 -0.8244 -2.0861
 6436TIP3   OH240798   0.034   6.737   0.773  0.3908  0.2451 -0.2661
 6436TIP3    H140799  -0.014   6.820   0.781  1.5064  0.8745  0.0325
 6436TIP3    H240800  -0.023   6.673   0.815 -0.0596  1.0360  0.3551
 6437TIP3   OH240801   1.139   3.844  13.128 -0.3712 -0.5895 -0.3563
 6437TIP3    H140802   1.107   3.815  13.214  0.4737 -1.0242 -0.1802
 6437TIP3    H240803   1.222   3.798  13.117  0.2159  0.5582 -0.7889
 6438TIP3   OH240804   2.299   2.101  14.119  0.3646  0.0637  0.0437
 6438TIP3    H140805   2.362   2.122  14.050 -0.1654  0.1386 -0.4231
 6438TIP3    H240806   2.235   2.173  14.115 -0.4307 -0.6526 -0.3173
 6439TIP3   OH240807   2.869   2.517  15.665  0.5867 -0.0701  0.4570
 6439TIP3    H140808   2.879   2.445  15.727  0.9139 -0.2268  0.2256
 6439TIP3    H240809   2.787   2.499  15.620  0.6410 -0.2697  0.4367
 6440TIP3   OH240810   2.526   5.266   3.080  0.2649 -0.6060  0.1417
 6440TIP3    H140811   2.613   5.240   3.050  0.7396  0.8434  0.2237
 6440TIP3    H240812   2.505   5.204   3.150  1.5843 -0.4655  0.6803
 6441TIP3   OH240813   6.224   0.408   2.319 -0.2793 -0.3043 -0.0215
 6441TIP3    H140814   6.228   0.445   2.230  1.4895  1.0285  0.5403
 6441TIP3    H240815   6.305   0.357   2.327 -0.8587 -1.1573  0.5377
 6442TIP3   OH240816   5.312   5.382   6.337 -0.0682  0.1893  0.5844
 6442TIP3    H140817   5.352   5.451   6.283  1.8756 -0.5396  1.0177
 6442TIP3    H240818   5.252   5.337   6.278  1.0291  0.2515 -0.6183
 6443TIP3   OH240819   0.808   3.469   0.618 -0.2028 -0.4735  0.1716
 6443TIP3    H140820   0.896   3.452   0.584  0.0545  0.5192  0.3030
 6443TIP3    H240821   0.795   3.403   0.686  0.7022 -0.2547  0.5758
 6444TIP3   OH240822   6.252   6.294  15.025  0.1175  0.0935 -0.3443
 6444TIP3    H140823   6.339   6.297  15.064 -0.4083  0.0725  0.8753
 6444TIP3    H240824   6.259   6.231  14.953  1.2895  0.6791 -0.7658
 6445TIP3   OH240825   1.477   5.364  16.166 -0.0990 -0.4918  0.2891
 6445TIP3    H140826   1.411   5.416  16.120 -0.6335 -1.4262 -0.0108
 6445TIP3    H240827   1.428   5.315  16.232  0.7120  1.2797  2.3558
 6446TIP3   OH240828   1.122   0.711  11.359 -0.0395 -0.7666 -0.2563
 6446TIP3    H140829   1.167   0.696  11.442  1.4775  1.0709 -0.6626
 6446TIP3    H240830   1.140   0.632  11.308  0.1101 -1.3603  0.6789
 6447TIP3   OH240831   6.377   2.003  16.717  0.3489  0.2352  0.0889
 6447TIP3    H140832   6.313   2.028  16.784  0.2129  2.4715 -0.7699
 6447TIP3    H240833   6.462   2.012  16.760  0.1995 -0.0432  0.4465
 6448TIP3   OH240834   0.923   2.695   5.958 -0.2755  0.1893 -0.1335
 6448TIP3    H140835   0.931   2.788   5.978 -1.5226  0.2958 -0.0432
 6448TIP3    H240836   0.829   2.681   5.946 -0.2766 -1.3300  1.2897
 6449TIP3   OH240837   1.255   0.104   0.834 -0.2695 -0.0023 -0.0778
 6449TIP3    H140838   1.213   0.190   0.842 -0.8350 -0.3877  1.3244
 6449TIP3    H240839   1.254   0.086   0.740 -0.1049  1.5375 -0.3932
 6450TIP3   OH240840   3.154   4.517  16.375 -0.0279 -0.6829 -0.7236
 6450TIP3    H140841   3.065   4.484  16.381  0.2130 -1.5434 -1.5427
 6450TIP3    H240842   3.167   4.567  16.455 -1.4342 -0.0448 -0.8640
 6451TIP3   OH240843   6.833   4.756   6.156 -0.4734  0.1940 -0.0885
 6451TIP3    H140844   6.773   4.829   6.143  1.8375  2.1230 -0.5369
 6451TIP3    H240845   6.895   4.787   6.222 -0.1113 -1.8489  0.6096
 6452TIP3   OH240846   3.020   4.037   6.502  0.1707  0.0723  0.4653
 6452TIP3    H140847   3.029   3.944   6.522  0.3379  0.3024  1.5207
 6452TIP3    H240848   3.110   4.070   6.502  0.2690 -0.0745 -1.6018
 6453TIP3   OH240849   1.370   1.076  12.657 -0.3928 -0.3549  0.2469
 6453TIP3    H140850   1.308   1.118  12.716 -1.1024 -0.3912 -0.4523
 6453TIP3    H240851   1.400   0.999  12.704 -3.3057 -2.1530 -0.5629
 6454TIP3   OH240852   6.777   1.413  12.884  0.3526 -0.0012  0.5916
 6454TIP3    H140853   6.857   1.443  12.842  0.6811 -2.6018 -0.8989
 6454TIP3    H240854   6.787   1.318  12.889 -2.0674 -0.2805  1.5972
 6455TIP3   OH240855   4.903   2.205  12.137  0.8049  0.2300 -0.4515
 6455TIP3    H140856   4.851   2.127  12.116  1.1794 -0.7089  1.8614
 6455TIP3    H240857   4.844   2.278  12.120 -0.4533 -0.6863 -0.1898
 6456TIP3   OH240858   6.667   4.085   0.107 -0.2681  0.0069  0.2893
 6456TIP3    H140859   6.676   4.171   0.065 -1.4369  0.5417  1.0952
 6456TIP3    H240860   6.656   4.105   0.200 -1.3739 -0.9687  0.3819
 6457TIP3   OH240861   4.359   1.516  11.252 -0.4004 -0.2044 -0.2011
 6457TIP3    H140862   4.360   1.484  11.343  0.7246  0.1291 -0.0815
 6457TIP3    H240863   4.319   1.602  11.257 -1.2417 -0.5891 -0.1732
 6458TIP3   OH240864   2.855   6.741   2.615  0.4913 -0.1566  0.2212
 6458TIP3    H140865   2.860   6.659   2.566  0.4715 -0.2255  0.3344
 6458TIP3    H240866   2.793   6.723   2.686  1.5661 -0.5050  1.1098
 6459TIP3   OH240867   3.974   2.183   1.324  0.6748  0.0547  0.1321
 6459TIP3    H140868   3.995   2.250   1.260  1.0847 -1.0596 -0.9463
 6459TIP3    H240869   4.022   2.209   1.403  3.3403 -0.5059 -1.1767
 6460TIP3   OH240870   6.827   4.210  13.667 -0.2692 -0.2121 -0.4393
 6460TIP3    H140871   6.848   4.303  13.674  0.8125 -0.3845 -1.0332
 6460TIP3    H240872   6.886   4.167  13.729  0.2738 -0.6141 -1.2113
 6461TIP3   OH240873   6.185   3.909  15.172 -0.1490 -0.3738  0.0322
 6461TIP3    H140874   6.168   3.900  15.078  1.2935 -0.1470 -0.2793
 6461TIP3    H240875   6.240   3.834  15.194 -1.0124 -0.7838  0.8493
 6462TIP3   OH240876   4.459   0.029  12.730 -0.2654  0.1043  0.0855
 6462TIP3    H140877   4.369   0.054  12.748 -0.5013 -0.7907  0.2447
 6462TIP3    H240878   4.477   0.061  12.642 -0.8342  0.0579 -0.0511
 6463TIP3   OH240879   1.466   6.544   4.749 -0.2187 -0.6648 -0.3792
 6463TIP3    H140880   1.456   6.610   4.817  0.6315 -0.0801 -0.8125
 6463TIP3    H240881   1.420   6.467   4.783 -1.9685  0.3891 -0.2217
 6464TIP3   OH240882   0.622   1.645   3.409  0.7614  0.5917  0.0265
 6464TIP3    H140883   0.624   1.740   3.408  0.7500  0.5943  0.2666
 6464TIP3    H240884   0.548   1.622   3.466  0.5932  0.4412 -0.2499
 6465TIP3   OH240885   6.023   4.444   0.001 -0.2001 -0.0042  0.3804
 6465TIP3    H140886   6.107   4.445  -0.045  1.0271 -1.6755  2.4482
 6465TIP3    H240887   6.034   4.507   0.072 -1.1979  0.7345 -0.1018
 6466TIP3   OH240888   3.905   6.730   2.149  0.3516 -0.0224 -0.1626
 6466TIP3    H140889   3.990   6.688   2.144 -0.6025 -1.9233 -1.4467
 6466TIP3    H240890   3.924   6.823   2.136  2.1328 -0.5133 -1.5270
 6467TIP3   OH240891   5.926   0.686   1.446 -0.2754  0.0503 -0.5084
 6467TIP3    H140892   5.873   0.762   1.425  1.6253  1.1285 -1.7520
 6467TIP3    H240893   6.016   0.718   1.442  0.5333 -1.3765  2.6666
 6468TIP3   OH240894   2.133   2.674   4.774  0.1991 -0.3458 -0.2127
 6468TIP3    H140895   2.137   2.741   4.706  0.8871  0.9124  1.0166
 6468TIP3    H240896   2.220   2.634   4.774  0.0371 -0.7062 -0.4024
 6469TIP3   OH240897   2.329   5.129   5.558 -0.2567  0.5916 -0.0879
 6469TIP3    H140898   2.354   5.047   5.600 -1.6001  0.3564  0.3044
 6469TIP3    H240899   2.342   5.195   5.627 -2.6383  0.1810  0.8566
 6470TIP3   OH240900   6.253   5.967   5.622 -0.5324 -0.0777 -0.0272
 6470TIP3    H140901   6.241   6.043   5.679  0.4461  0.1490 -0.0898
 6470TIP3    H240902   6.250   5.891   5.680  0.0638  0.1247  0.2750
 6471TIP3   OH240903   5.997   6.477   2.872  0.4852 -0.0878 -0.4372
 6471TIP3    H140904   6.076   6.501   2.823  0.8462  1.3265  0.7451
 6471TIP3    H240905   6.028   6.467   2.962 -0.2657 -1.9884 -0.3619
 6472TIP3   OH240906   4.380   3.331   1.709  0.3779 -0.6120 -0.3297
 6472TIP3    H140907   4.366   3.379   1.628  2.8852 -0.1822 -0.5862
 6472TIP3    H240908   4.293   3.324   1.748 -0.3766  2.5426 -1.1597
 6473TIP3   OH240909   5.693   4.840  14.050  0.0223 -0.1263 -0.1584
 6473TIP3    H140910   5.741   4.787  14.114 -0.3710  0.4225  0.6109
 6473TIP3    H240911   5.712   4.799  13.966  1.7786  0.0146  0.1202
 6474TIP3   OH240912   0.887   4.386  12.502 -0.2869 -0.1671  1.2015
 6474TIP3    H140913   0.828   4.426  12.565  0.0336 -0.0822  1.4473
 6474TIP3    H240914   0.957   4.347  12.555  0.0862  0.0735  0.8881
 6475TIP3   OH240915   0.239   0.573   2.405 -0.2066  0.0162 -0.0096
 6475TIP3    H140916   0.173   0.643   2.402  1.8330  2.0247 -1.5114
 6475TIP3    H240917   0.208   0.508   2.342 -0.0468  1.7229 -1.9781
 6476TIP3   OH240918   6.200   3.162   5.363  0.5283 -0.5047 -0.3012
 6476TIP3    H140919   6.248   3.207   5.293  0.1022  0.1112 -0.2074
 6476TIP3    H240920   6.120   3.213   5.373 -0.2219 -1.5981 -0.5504
 6477TIP3   OH240921   5.727   3.684  16.062 -0.3116  0.5293  0.3236
 6477TIP3    H140922   5.800   3.665  16.120 -0.9981 -2.5051  0.3928
 6477TIP3    H240923   5.698   3.772  16.086  2.0501  1.0287  1.6086
 6478TIP3   OH240924   0.082   2.738  15.912 -0.2696  0.3885  0.5643
 6478TIP3    H140925   0.148   2.676  15.944  0.9725  1.4959  0.2448
 6478TIP3    H240926   0.043   2.693  15.837  0.1017 -0.3014  0.7653
 6479TIP3   OH240927   5.466   6.251   3.125  0.3843 -0.0386 -0.5027
 6479TIP3    H140928   5.441   6.319   3.188 -0.3735 -0.5353 -0.2547
 6479TIP3    H240929   5.528   6.196   3.172  0.1609 -0.1473 -0.3328
 6480TIP3   OH240930   3.117   5.471   5.913  0.4459  0.2918 -0.5406
 6480TIP3    H140931   3.109   5.398   5.852 -0.2597  0.0253 -0.1399
 6480TIP3    H240932   3.039   5.523   5.898  0.6463  0.6354 -0.3914
 6481TIP3   OH240933   5.857   4.477  10.879 -0.1440  0.3441  0.3805
 6481TIP3    H140934   5.912   4.553  10.902  0.5257  0.1778 -0.5878
 6481TIP3    H240935   5.824   4.445  10.963 -0.0967  1.4553  0.8404
 6482TIP3   OH240936   1.787   4.073   1.669 -0.0634 -0.0637  0.0026
 6482TIP3    H140937   1.748   4.159   1.687  0.5748  0.9367 -2.8511
 6482TIP3    H240938   1.739   4.039   1.595  1.9001 -0.5687 -1.1207
 6483TIP3   OH240939   2.433   4.822   4.577 -0.2697  0.4502 -0.3409
 6483TIP3    H140940   2.515   4.787   4.613 -0.2391  0.8647 -0.0038
 6483TIP3    H240941   2.397   4.749   4.526 -0.1759 -0.0653  0.3059
 6484TIP3   OH240942   2.270   0.921   4.038 -0.7333  0.2932  0.5920
 6484TIP3    H140943   2.241   1.002   4.081 -2.0038  0.3758 -0.3508
 6484TIP3    H240944   2.290   0.861   4.110 -2.2374  0.6245  1.3245
 6485TIP3   OH240945   6.681   1.361  11.696 -0.5405  0.8284 -0.0072
 6485TIP3    H140946   6.658   1.406  11.615  0.6054 -1.3882 -1.6426
 6485TIP3    H240947   6.600   1.319  11.724 -0.7873  1.0884 -0.3270
 6486TIP3   OH240948   2.836   0.582  14.917 -0.3117 -0.3531 -0.0483
 6486TIP3    H140949   2.741   0.575  14.915 -0.4740  1.4181  0.1086
 6486TIP3    H240950   2.859   0.619  14.831 -0.3267  4.2074  1.6552
 6487TIP3   OH240951   3.559   6.719   3.480  0.0092  0.5797  0.4300
 6487TIP3    H140952   3.559   6.702   3.574 -0.6134  0.9818  0.5113
 6487TIP3    H240953   3.479   6.769   3.465 -1.1658 -1.4847 -0.6694
 6488TIP3   OH240954   1.565   4.027   6.582 -0.2342  0.6068 -0.3945
 6488TIP3    H140955   1.572   3.972   6.660 -0.3324  2.8732  1.3069
 6488TIP3    H240956   1.642   4.004   6.530  0.3128 -0.3362  0.7766
 6489TIP3   OH240957   1.730   4.713  13.765 -0.3569  0.0529  0.0941
 6489TIP3    H140958   1.768   4.777  13.825 -1.2447  1.2970 -0.6323
 6489TIP3    H240959   1.801   4.688  13.707  0.3648 -0.7402  1.2742
 6490TIP3   OH240960   4.299   3.867  12.257  0.3283 -0.3490  0.0897
 6490TIP3    H140961   4.382   3.818  12.253  0.3586 -0.2392 -1.7327
 6490TIP3    H240962   4.321   3.953  12.221 -0.3712  0.0029  0.4971
 6491TIP3   OH240963   4.619   6.487  15.099 -0.2681  0.1965 -0.4135
 6491TIP3    H140964   4.619   6.556  15.166 -2.0162  1.0439 -1.2047
 6491TIP3    H240965   4.693   6.509  15.042  1.3941 -0.6715  1.2932
 6492TIP3   OH240966   2.767   2.986  11.424  0.2010 -0.0401  0.0914
 6492TIP3    H140967   2.774   2.990  11.519  0.2813  0.7028  0.0646
 6492TIP3    H240968   2.848   2.943  11.395  0.5234  0.4107  0.3170
 6493TIP3   OH240969   2.754   3.471   1.726 -0.1389 -0.2196  0.2016
 6493TIP3    H140970   2.839   3.498   1.761  0.2608 -1.9840  0.7007
 6493TIP3    H240971   2.772   3.388   1.682 -1.5313 -0.3842 -0.0924
 6494TIP3   OH240972   0.457   6.850   4.427 -0.4235 -0.0421  0.0938
 6494TIP3    H140973   0.489   6.846   4.518  1.0849  1.0839 -0.3546
 6494TIP3    H240974   0.368   6.813   4.432  0.1640 -1.3918  1.7559
 6495TIP3   OH240975   3.973   5.885  14.644 -0.1535 -0.5155  0.5729
 6495TIP3    H140976   4.023   5.925  14.572 -1.7090  2.6645  1.0670
 6495TIP3    H240977   3.884   5.917  14.632 -0.5349 -0.0452  3.7397
 6496TIP3   OH240978   1.368   1.901   2.177  0.3232 -0.1735 -0.3843
 6496TIP3    H140979   1.371   1.817   2.133 -0.4968 -1.4999  1.9000
 6496TIP3    H240980   1.449   1.945   2.152  0.1697 -1.0680 -2.6378
 6497TIP3   OH240981   4.985   3.781  12.966  0.2348  0.0966  0.7142
 6497TIP3    H140982   4.949   3.868  12.950 -0.3605 -0.3535 -0.4959
 6497TIP3    H240983   5.070   3.798  13.008 -0.5945  1.1996  2.0161
 6498TIP3   OH240984   5.639   6.316  13.608 -0.0696  0.0860  0.3989
 6498TIP3    H140985   5.698   6.372  13.658 -0.6416  0.8018  0.2920
 6498TIP3    H240986   5.556   6.320  13.656 -0.4688  0.3530 -0.3016
 6499TIP3   OH240987   0.111   3.768   0.699  0.7308 -0.8622 -0.0658
 6499TIP3    H140988   0.191   3.732   0.736 -0.0314 -1.9153  0.5952
 6499TIP3    H240989   0.040   3.730   0.751 -0.1381  1.8402  0.9079
 6500TIP3   OH240990   6.834   5.959  12.310 -0.2732  0.0605  0.2801
 6500TIP3    H140991   6.827   5.891  12.377  1.7622  1.5789  2.2081
 6500TIP3    H240992   6.755   6.011  12.320 -0.8626 -0.8052  0.2139
 6501TIP3   OH240993   6.009   6.552  12.638 -0.1323 -0.1470  0.0572
 6501TIP3    H140994   5.966   6.514  12.561 -0.1119 -1.0355  0.4735
 6501TIP3    H240995   5.991   6.490  12.709 -0.6626  0.9499  0.9251
 6502TIP3   OH240996   5.629   3.084   4.046  0.4131 -0.1694  0.3531
 6502TIP3    H140997   5.692   3.104   3.977  0.2071  0.4046  0.3244
 6502TIP3    H240998   5.575   3.014   4.009 -0.0933  0.5598 -0.3231
 6503TIP3   OH240999   3.306   3.455   3.343 -0.2441  0.0320  0.1917
 6503TIP3    H141000   3.236   3.390   3.336  0.7771 -0.9822 -1.3150
 6503TIP3    H241001   3.364   3.420   3.410  0.9804 -1.3610 -1.5161
 6504TIP3   OH241002   2.973   1.936   1.897  0.9477  0.1784  0.1454
 6504TIP3    H141003   2.964   1.862   1.957  2.0665 -0.5443 -0.5349
 6504TIP3    H241004   2.907   1.921   1.830  0.6760  0.1956  0.4088
 6505TIP3   OH241005   0.956   0.802  14.242  0.5199  0.3719  0.4460
 6505TIP3    H141006   1.002   0.876  14.202  0.4698 -0.3816 -1.1067
 6505TIP3    H241007   0.863   0.818  14.224  0.6022 -0.7491 -1.2321
 6506TIP3   OH241008   2.283   4.299  12.529 -0.0280 -0.0305  0.0808
 6506TIP3    H141009   2.296   4.394  12.527  0.4224 -0.0296  1.7569
 6506TIP3    H241010   2.314   4.270  12.443  0.0127  1.3080 -0.3918
 6507TIP3   OH241011   6.650   3.823   5.037  0.2624  0.4776  0.7914
 6507TIP3    H141012   6.669   3.887   4.969 -0.4350 -0.7932 -0.6480
 6507TIP3    H241013   6.593   3.870   5.099 -2.9340  0.4838 -1.8565
 6508TIP3   OH241014   2.616   2.766   0.440  0.2648  0.2308 -0.0480
 6508TIP3    H141015   2.540   2.746   0.495  1.3135 -1.9927  0.7080
 6508TIP3    H241016   2.671   2.822   0.495  0.7852 -1.0585  0.7721
 6509TIP3   OH241017   2.197   5.198  14.841 -0.6045 -0.1924 -0.3802
 6509TIP3    H141018   2.194   5.181  14.747 -1.6294 -2.0511 -0.0756
 6509TIP3    H241019   2.131   5.265  14.856 -1.4008 -0.8561 -0.8391
 6510TIP3   OH241020   5.252   5.522   0.471  0.0388  0.3197 -0.2228
 6510TIP3    H141021   5.240   5.568   0.554 -1.0014 -0.5442  0.1257
 6510TIP3    H241022   5.221   5.433   0.489  2.0196 -0.5613 -0.8600
 6511TIP3   OH241023   6.271   6.236   5.707 -0.0829 -0.1077 -0.1147
 6511TIP3    H141024   6.205   6.216   5.774 -2.2795  0.9178 -1.8170
 6511TIP3    H241025   6.224   6.290   5.644  1.7936 -1.2617 -2.6544
 6512TIP3   OH241026   1.258   2.967   6.603  0.3106 -0.2633 -0.1531
 6512TIP3    H141027   1.337   2.932   6.644  1.1964  0.2084 -1.4249
 6512TIP3    H241028   1.289   3.033   6.542 -1.0885  0.1107 -0.4947
 6513TIP3   OH241029   3.072   5.972   3.840  0.0857 -0.7076 -0.3327
 6513TIP3    H141030   3.168   5.967   3.843  0.2138 -0.0567 -1.9523
 6513TIP3    H241031   3.049   5.937   3.754 -1.0343  0.1329 -0.4077
 6514TIP3   OH241032   3.609   5.537  15.415 -0.4815 -0.0900 -0.0566
 6514TIP3    H141033   3.615   5.611  15.476  0.8108  0.0493 -0.3248
 6514TIP3    H241034   3.547   5.477  15.457  1.1742 -0.5033  1.9681
 6515TIP3   OH241035   1.190   1.418   6.283 -0.3392  0.0209 -0.5587
 6515TIP3    H141036   1.129   1.441   6.214 -1.1095 -2.8537 -0.9349
 6515TIP3    H241037   1.145   1.351   6.335  2.6342 -2.8761 -1.3436
 6516TIP3   OH241038   0.794   3.203  14.681 -0.2163 -0.0817  0.2417
 6516TIP3    H141039   0.813   3.209  14.588 -1.6451  0.8508 -0.0203
 6516TIP3    H241040   0.815   3.112  14.705  0.4695 -0.2322 -0.9036
 6517TIP3   OH241041   0.340   0.280  12.919  0.6036 -0.4210 -0.7316
 6517TIP3    H141042   0.298   0.203  12.881 -0.1000  0.5899 -2.1188
 6517TIP3    H241043   0.294   0.294  13.002 -1.2215  0.1226 -1.7936
 6518TIP3   OH241044   0.846   1.011  16.806  0.1427  0.4244 -0.4115
 6518TIP3    H141045   0.885   1.077  16.864 -0.2789  0.7686 -0.5144
 6518TIP3    H241046   0.920   0.957  16.777  0.3525  0.1892  0.5179
 6519TIP3   OH241047   0.882   0.819  12.676  0.3408  0.1153  0.1784
 6519TIP3    H141048   0.936   0.897  12.660  0.5109 -0.2055 -0.8878
 6519TIP3    H241049   0.878   0.812  12.771  0.5178  1.2969  0.2881
 6520TIP3   OH241050   6.139   0.803   3.002  0.0759 -0.0068 -0.1149
 6520TIP3    H141051   6.206   0.781   2.937  2.4867 -0.9613  2.4799
 6520TIP3    H241052   6.150   0.896   3.018  1.2480 -0.2635  0.7003
 6521TIP3   OH241053   0.973   1.486   3.098 -0.0140  0.4347  0.4621
 6521TIP3    H141054   1.021   1.569   3.101 -0.4548  0.6787  0.8821
 6521TIP3    H241055   1.038   1.420   3.123  0.2992  0.6685  0.2713
 6522TIP3   OH241056   5.467   3.247  16.271 -0.9144 -0.0268 -0.1944
 6522TIP3    H141057   5.495   3.323  16.219  0.9403 -0.1273  0.5721
 6522TIP3    H241058   5.449   3.283  16.358  0.9627 -0.5509  0.4579
 6523TIP3   OH241059   3.078   2.039  13.836  0.0872  0.7255  0.2174
 6523TIP3    H141060   2.983   2.047  13.837 -0.0703 -0.7810  0.4584
 6523TIP3    H241061   3.094   1.952  13.798  1.3801  1.1062 -0.1612
 6524TIP3   OH241062   3.785   0.320  11.701  0.2047  0.2662  0.1235
 6524TIP3    H141063   3.806   0.278  11.618 -1.2467 -0.3944  0.0632
 6524TIP3    H241064   3.760   0.409  11.677  1.4853  0.6219  0.0563
 6525TIP3   OH241065   2.554   1.258  12.550  0.0618 -0.2715 -0.7482
 6525TIP3    H141066   2.467   1.297  12.544  0.2130  0.0953 -0.5380
 6525TIP3    H241067   2.549   1.199  12.625 -0.1994 -0.7505 -1.1351
 6526TIP3   OH241068   4.656   5.074  12.789  0.4622 -0.7067  0.1236
 6526TIP3    H141069   4.676   5.112  12.875  0.1646  1.0508 -0.5618
 6526TIP3    H241070   4.741   5.041  12.758  0.8164 -0.2329  0.5654
 6527TIP3   OH241071   0.462   0.232  15.804 -0.1797 -0.2011  0.1644
 6527TIP3    H141072   0.403   0.159  15.787 -0.3774 -0.0179  0.0578
 6527TIP3    H241073   0.418   0.308  15.767 -0.1975  0.0506  0.6924
 6528TIP3   OH241074   6.513   4.716  15.042  0.1453  0.3640 -0.3041
 6528TIP3    H141075   6.541   4.688  14.955  0.3718 -0.0926 -0.0837
 6528TIP3    H241076   6.594   4.742  15.087  0.3723 -1.6651  0.5922
 6529TIP3   OH241077   4.995   4.308  13.542 -0.0075  0.0478  0.0795
 6529TIP3    H141078   5.083   4.274  13.561 -0.3315 -1.6629 -1.2095
 6529TIP3    H241079   4.939   4.271  13.610 -0.1402 -1.0065 -0.5833
 6530TIP3   OH241080   1.200   4.677   2.095 -0.2837 -0.5923  0.0449
 6530TIP3    H141081   1.289   4.645   2.114  0.1135  0.4912  0.1176
 6530TIP3    H241082   1.149   4.652   2.172 -0.0732 -1.3131 -0.0395
 6531TIP3   OH241083   6.192   6.251  11.993 -0.0240  0.5325  0.1765
 6531TIP3    H141084   6.260   6.316  11.977 -0.1508  0.4207 -0.8641
 6531TIP3    H241085   6.132   6.295  12.054  1.5748  0.1943  2.0545
 6532TIP3   OH241086   0.717   1.715   6.660  0.3282 -0.8707  0.0543
 6532TIP3    H141087   0.648   1.654   6.684  0.0923 -0.6072  0.0420
 6532TIP3    H241088   0.795   1.659   6.648 -0.0075 -1.2360 -0.4756
 6533TIP3   OH241089   1.259   3.873   3.214 -0.1188  0.2046  0.3327
 6533TIP3    H141090   1.311   3.850   3.137  4.7763  0.3278  3.1440
 6533TIP3    H241091   1.255   3.791   3.264 -2.7175  0.2516  0.3017
 6534TIP3   OH241092   0.500   4.794   3.064  0.2982 -0.2605  0.1239
 6534TIP3    H141093   0.568   4.728   3.068  0.9035 -0.0186 -3.3355
 6534TIP3    H241094   0.466   4.800   3.154  2.5162 -2.7560  1.2324
 6535TIP3   OH241095   6.296   5.306   5.605  0.3661 -0.0926  0.3340
 6535TIP3    H141096   6.269   5.233   5.550 -1.6386  0.4374  0.5296
 6535TIP3    H241097   6.223   5.320   5.664  2.1963 -0.2406  2.7861
 6536TIP3   OH241098   5.560   0.870  13.544 -0.5181  0.1144 -0.4310
 6536TIP3    H141099   5.477   0.830  13.517 -0.6073 -3.4477  3.8677
 6536TIP3    H241100   5.618   0.796  13.561  1.7186  2.1844  1.7492
 6537TIP3   OH241101   3.209   4.395  16.852 -0.1342  0.4500  0.3356
 6537TIP3    H141102   3.163   4.478  16.845  0.2999  0.6516 -0.2016
 6537TIP3    H241103   3.148   4.331  16.815  0.2597  0.8155 -1.0149
 6538TIP3   OH241104   6.461   4.460   0.400 -0.4115 -1.0234  0.4640
 6538TIP3    H141105   6.409   4.433   0.324  0.3832 -0.2166 -0.4073
 6538TIP3    H241106   6.451   4.555   0.403  0.5178 -0.9187  0.6273
 6539TIP3   OH241107   1.105   2.876  14.268  1.1031  0.2186 -0.6899
 6539TIP3    H141108   1.134   2.879  14.177  0.8045  0.0852 -0.7915
 6539TIP3    H241109   1.021   2.922  14.268  0.5150 -0.7999 -0.7183
 6540TIP3   OH241110   0.200   3.751  16.725 -0.2258 -0.4357  0.7725
 6540TIP3    H141111   0.164   3.832  16.760 -0.3442  0.4452 -1.2407
 6540TIP3    H241112   0.123   3.700  16.699 -0.1105 -0.0966 -0.2545
 6541TIP3   OH241113   3.671   3.689  11.693 -0.3216 -0.6040  0.0752
 6541TIP3    H141114   3.646   3.660  11.781  1.3447  0.8630  1.1114
 6541TIP3    H241115   3.590   3.721  11.654 -1.0866 -1.2682  1.0702
 6542TIP3   OH241116   2.152   2.669   6.113 -0.3852 -0.3952 -0.0004
 6542TIP3    H141117   2.081   2.705   6.167  0.5275 -1.0255  1.6969
 6542TIP3    H241118   2.204   2.617   6.174  2.0712  0.7549 -0.9744
 6543TIP3   OH241119   3.605   2.131  11.801  0.2867 -0.4764  0.3949
 6543TIP3    H141120   3.622   2.038  11.812 -0.3775 -0.7166 -0.5125
 6543TIP3    H241121   3.511   2.141  11.817  0.3165  0.0124  0.2995
 6544TIP3   OH241122   3.912   6.371   4.858 -0.0973  0.2981  0.6277
 6544TIP3    H141123   3.919   6.454   4.904  0.2800 -0.4613  2.0090
 6544TIP3    H241124   3.834   6.329   4.895 -0.7814  0.3736 -0.6640
 6545TIP3   OH241125   0.471   6.007  11.981 -0.7290 -0.1332 -0.5236
 6545TIP3    H141126   0.522   5.934  12.018 -1.5801  0.7442  2.6636
 6545TIP3    H241127   0.478   5.994  11.886  0.4791 -3.4105 -0.1445
 6546TIP3   OH241128   3.088   2.183  14.828 -0.5567  0.1739  0.2471
 6546TIP3    H141129   3.021   2.115  14.837 -1.2739  0.6609 -1.0604
 6546TIP3    H241130   3.171   2.136  14.832 -1.0396 -0.9001 -1.2011
 6547TIP3   OH241131   0.047   2.327   3.551 -0.1087  0.0001 -0.1448
 6547TIP3    H141132   0.132   2.289   3.572  0.1861  0.9415  0.4243
 6547TIP3    H241133   0.027   2.383   3.626 -0.5275  0.9533 -0.9469
 6548TIP3   OH241134   0.436   6.346  12.560  0.2616 -0.1068 -0.3658
 6548TIP3    H141135   0.389   6.306  12.634  0.3562 -0.3386 -0.4303
 6548TIP3    H241136   0.438   6.278  12.493 -0.6234  0.3967 -0.9329
 6549TIP3   OH241137   0.918   5.670   3.531 -0.0294  0.3391  0.7505
 6549TIP3    H141138   0.911   5.601   3.598  3.3185  0.1442  1.0626
 6549TIP3    H241139   0.848   5.649   3.469 -0.6450 -1.9271  2.0547
 6550TIP3   OH241140   2.778   2.662  16.431  0.1657 -0.5987 -0.9516
 6550TIP3    H141141   2.695   2.625  16.401 -1.1038  1.9258 -0.8504
 6550TIP3    H241142   2.805   2.605  16.503 -1.5291 -1.4402 -0.9273
 6551TIP3   OH241143   4.934   0.432  14.443  0.2629  0.1971 -0.6775
 6551TIP3    H141144   4.864   0.438  14.508  0.2591  0.2912 -0.6891
 6551TIP3    H241145   4.933   0.517  14.400  0.3366  0.1722 -0.7275
 6552TIP3   OH241146   0.247   3.974   2.563  0.0991 -0.3116  0.6594
 6552TIP3    H141147   0.262   4.056   2.609  1.5010 -0.4232  0.4438
 6552TIP3    H241148   0.333   3.951   2.527 -0.8071 -0.5012 -1.5380
 6553TIP3   OH241149   5.770   6.537  13.725  0.0410  0.0786 -0.5520
 6553TIP3    H141150   5.802   6.525  13.815 -1.4603  0.0131  0.0191
 6553TIP3    H241151   5.817   6.614  13.693 -0.5118  1.0766  0.8783
 6554TIP3   OH241152   1.916   6.856  13.529 -0.7146  0.6744 -0.1356
 6554TIP3    H141153   1.895   6.853  13.622 -0.6682  0.7695 -0.1216
 6554TIP3    H241154   1.926   6.950  13.510  0.2312  0.6173 -0.0153
 6555TIP3   OH241155   4.399   3.618   0.038 -0.2332  0.4789 -0.4501
 6555TIP3    H141156   4.308   3.593   0.023 -0.4500  1.6543 -1.2385
 6555TIP3    H241157   4.425   3.664  -0.042  0.7020  1.1484  0.2090
 6556TIP3   OH241158   3.020   6.828   6.098  0.7860  0.0149  0.7983
 6556TIP3    H141159   3.004   6.810   6.190  0.7882 -1.8773  0.4618
 6556TIP3    H241160   3.074   6.755   6.068  0.5395  0.4442 -0.7731
 6557TIP3   OH241161   3.991   1.720   1.736 -0.5143 -0.6778  0.2008
 6557TIP3    H141162   3.936   1.669   1.794  0.4913 -1.2152  0.7074
 6557TIP3    H241163   3.981   1.679   1.650  1.2337 -2.5774  0.8282
 6558TIP3   OH241164   5.450   1.840  14.788 -0.5224 -0.1254 -0.4125
 6558TIP3    H141165   5.451   1.756  14.743 -0.7993 -1.0977  1.3073
 6558TIP3    H241166   5.362   1.848  14.824 -0.7517  1.2948 -1.2273
 6559TIP3   OH241167   3.039   6.584  16.383  0.4398 -0.0497  0.1420
 6559TIP3    H141168   2.958   6.537  16.401  0.2031 -0.1431 -1.0871
 6559TIP3    H241169   3.092   6.522  16.334  1.6455 -0.3082  1.6763
 6560TIP3   OH241170   2.349   0.473   5.481 -0.1824  0.9497 -0.6902
 6560TIP3    H141171   2.389   0.468   5.568 -0.1992  0.1714 -0.7213
 6560TIP3    H241172   2.422   0.465   5.421 -0.2879  0.4076 -0.7472
 6561TIP3   OH241173   4.208   1.193  16.023 -0.1251 -0.0400  0.5513
 6561TIP3    H141174   4.198   1.288  16.029  0.3096 -0.0285  1.2559
 6561TIP3    H241175   4.230   1.178  15.931 -1.5252  0.3960  0.1229
 6562TIP3   OH241176   3.756   1.868  10.293  0.0204 -0.1190 -0.2891
 6562TIP3    H141177   3.795   1.792  10.250 -0.6542 -1.6921  1.6532
 6562TIP3    H241178   3.663   1.845  10.301 -0.4870  1.5781 -0.9220
 6563TIP3   OH241179   6.070   3.458   1.369 -0.3570  0.0283  0.0230
 6563TIP3    H141180   6.038   3.525   1.309 -0.2863 -0.9681 -1.1683
 6563TIP3    H241181   6.164   3.453   1.352 -0.2396  0.1304  0.6296
 6564TIP3   OH241182   2.632   3.598  10.880 -0.7990 -0.1844  0.2975
 6564TIP3    H141183   2.722   3.565  10.879 -0.6101  0.3151  0.5448
 6564TIP3    H241184   2.578   3.522  10.859 -0.2410 -0.2149 -1.1785
 6565TIP3   OH241185   2.358   6.786  15.436  0.0860 -0.1523 -0.2337
 6565TIP3    H141186   2.422   6.772  15.506 -0.0217  0.9450  0.1085
 6565TIP3    H241187   2.280   6.817  15.481 -0.3919 -0.6156 -0.7322
 6566TIP3   OH241188   5.142   2.107   4.817  1.1434 -0.5027 -0.1112
 6566TIP3    H141189   5.106   2.159   4.744  1.6588  0.9897  0.6688
 6566TIP3    H241190   5.114   2.153   4.896  1.3764 -1.5840  0.6251
 6567TIP3   OH241191   2.503   1.889   4.438  0.4157 -0.1374 -0.0947
 6567TIP3    H141192   2.528   1.895   4.346  1.5587 -0.0903  0.1955
 6567TIP3    H241193   2.430   1.828   4.440 -0.2362  0.5892 -1.1367
 6568TIP3   OH241194   3.471   1.214  13.346  0.0105  0.3080 -0.3065
 6568TIP3    H141195   3.522   1.137  13.372  0.0219  0.0753 -1.0085
 6568TIP3    H241196   3.522   1.288  13.380 -0.2612  0.0057  0.8293
 6569TIP3   OH241197   1.453   6.293  13.319 -0.2841 -0.0846  0.0268
 6569TIP3    H141198   1.433   6.309  13.227 -0.9673 -1.0183  0.0053
 6569TIP3    H241199   1.380   6.331  13.367 -0.1654 -0.0252  0.1633
 6570TIP3   OH241200   1.935   5.766  12.799  0.1447  0.4934 -0.3484
 6570TIP3    H141201   1.998   5.813  12.853 -1.0070  0.9465  0.6478
 6570TIP3    H241202   1.951   5.798  12.710 -0.0088  2.1176  0.1711
 6571TIP3   OH241203   2.118   2.984  16.631  0.0706  0.0843  0.0554
 6571TIP3    H141204   2.026   2.968  16.611  0.3480 -1.3894 -0.1308
 6571TIP3    H241205   2.116   3.032  16.714 -0.8229 -3.1468  2.0913
 6572TIP3   OH241206   4.293   6.693  11.162  0.0675  0.1317  0.3828
 6572TIP3    H141207   4.376   6.674  11.205 -0.8430 -1.4632  1.5576
 6572TIP3    H241208   4.275   6.615  11.108 -0.5178  0.5814 -0.0894
 6573TIP3   OH241209   5.437   3.494   5.144  0.1689  0.0239 -0.1210
 6573TIP3    H141210   5.461   3.418   5.091  0.0483 -0.2396  0.2010
 6573TIP3    H241211   5.417   3.562   5.080  0.3462 -0.1926 -0.4102
 6574TIP3   OH241212   1.257   5.854  14.244 -0.3721  0.5599  0.0397
 6574TIP3    H141213   1.232   5.837  14.153  1.3589 -1.5429 -0.1181
 6574TIP3    H241214   1.189   5.812  14.296  0.0259 -0.5989 -0.3405
 6575TIP3   OH241215   3.642   1.757   0.727 -0.0969  0.0284 -0.1509
 6575TIP3    H141216   3.684   1.836   0.694 -0.0060 -0.3759 -1.0370
 6575TIP3    H241217   3.549   1.769   0.708  0.0805 -0.6456 -1.5078
 6576TIP3   OH241218   4.019   2.486   3.479  0.5282  0.2642  0.2420
 6576TIP3    H141219   4.058   2.400   3.466 -2.2909 -1.2984  1.2804
 6576TIP3    H241220   3.972   2.478   3.562 -3.6994  1.1866 -1.8118
 6577TIP3   OH241221   6.193   3.193  16.308 -0.0597 -0.2401  0.1052
 6577TIP3    H141222   6.101   3.165  16.315  0.5931 -2.1319  2.9244
 6577TIP3    H241223   6.223   3.198  16.399  2.4740  0.9761 -0.7125
 6578TIP3   OH241224   2.876   0.081   0.269 -0.5006  0.1124  0.3585
 6578TIP3    H141225   2.971   0.066   0.271  0.2220  3.7308  0.2695
 6578TIP3    H241226   2.850   0.079   0.361 -1.0706 -3.7703  0.2905
 6579TIP3   OH241227   5.159   1.122  17.043 -0.3008 -0.1145  0.0679
 6579TIP3    H141228   5.070   1.158  17.045 -0.0503  0.4788  1.0500
 6579TIP3    H241229   5.201   1.157  17.122  0.3529 -1.5398  0.3835
 6580TIP3   OH241230   1.290   1.122   4.139  0.4563 -0.3622  0.2882
 6580TIP3    H141231   1.337   1.079   4.067  1.1951  0.3805  0.3083
 6580TIP3    H241232   1.202   1.086   4.135  0.5147 -0.3964 -0.9337
 6581TIP3   OH241233   2.863   2.355   4.758 -1.0499  0.1167 -0.8064
 6581TIP3    H141234   2.886   2.326   4.670  0.6857  0.4160 -0.4933
 6581TIP3    H241235   2.800   2.426   4.744 -0.1098  0.7759 -1.8643
 6582TIP3   OH241236   6.013   3.174   3.658 -0.0439  0.3929  0.1637
 6582TIP3    H141237   6.044   3.155   3.747  0.7028 -0.1931 -0.2225
 6582TIP3    H241238   5.982   3.264   3.663  1.8945  1.0651  0.5072
 6583TIP3   OH241239   4.390   6.736  16.952  0.1497  0.1587  0.4231
 6583TIP3    H141240   4.399   6.641  16.948 -0.7195  0.1071 -0.6738
 6583TIP3    H241241   4.320   6.756  16.890  0.0232  1.4760  0.9668
 6584TIP3   OH241242   2.667   1.671  14.796 -0.7181 -0.5537 -0.4591
 6584TIP3    H141243   2.707   1.685  14.710  0.6838  0.2090  0.2706
 6584TIP3    H241244   2.678   1.577  14.812  0.4972 -0.4359 -0.4542
 6585TIP3   OH241245   0.261   3.890  12.729  0.3789 -0.6948  0.0355
 6585TIP3    H141246   0.228   3.970  12.769 -0.5913 -1.8421  1.6564
 6585TIP3    H241247   0.202   3.874  12.655  0.6203  0.1033 -0.3360
 6586TIP3   OH241248   5.572   2.588  11.445  0.1885  0.3604 -0.1750
 6586TIP3    H141249   5.571   2.684  11.448 -0.0177  0.3499  0.1160
 6586TIP3    H241250   5.526   2.567  11.364  2.0811  0.5496 -1.3658
 6587TIP3   OH241251   6.812   1.865   0.491  0.2339  0.0894  0.1574
 6587TIP3    H141252   6.754   1.793   0.467 -1.0105  0.9292  0.4874
 6587TIP3    H241253   6.899   1.838   0.463 -0.0443 -1.9150  1.0855
 6588TIP3   OH241254   6.752   0.494  14.939 -0.4742 -0.1917  0.2711
 6588TIP3    H141255   6.789   0.580  14.918 -0.0202 -0.1703  1.1142
 6588TIP3    H241256   6.795   0.434  14.878  0.7195 -0.1185  1.0188
 6589TIP3   OH241257   5.262   2.009   4.543 -0.2306 -0.3436 -0.3405
 6589TIP3    H141258   5.296   1.990   4.630  0.7602 -0.4623 -0.7364
 6589TIP3    H241259   5.337   2.044   4.495 -1.3617  2.0811 -0.4455
 6590TIP3   OH241260   2.418   0.607  15.358  0.1658 -0.5528  0.5354
 6590TIP3    H141261   2.446   0.679  15.416  0.3079  0.1759 -0.4115
 6590TIP3    H241262   2.480   0.536  15.377  1.7447  0.5014 -0.4036
 6591TIP3   OH241263   3.757   0.004  14.299 -0.2279 -0.1483  0.3954
 6591TIP3    H141264   3.756  -0.006  14.394  1.0142  0.9020  0.5400
 6591TIP3    H241265   3.714  -0.075  14.267 -2.4077  0.3324  1.8772
 6592TIP3   OH241266   1.114   2.299  17.007 -0.1318  1.1280  0.1677
 6592TIP3    H141267   1.029   2.267  16.980 -0.6171  0.5326  2.1829
 6592TIP3    H241268   1.106   2.311  17.102  2.6822 -1.2816  0.8704
 6593TIP3   OH241269   0.825   0.118   6.312 -0.1172  0.3533 -0.0946
 6593TIP3    H141270   0.888   0.161   6.254 -1.3381  0.6309 -1.2422
 6593TIP3    H241271   0.875   0.046   6.350  1.2352  1.2506 -0.0640
 6594TIP3   OH241272   0.145   5.648   2.950  0.0307 -0.0208 -0.8628
 6594TIP3    H141273   0.092   5.583   2.904 -0.0646 -0.9579  0.4802
 6594TIP3    H241274   0.230   5.604   2.963  0.4130  0.6379 -1.1088
 6595TIP3   OH241275   5.490   2.035   2.925 -0.2108  0.4754  0.1844
 6595TIP3    H141276   5.479   1.947   2.887  2.4721 -0.6247  1.6906
 6595TIP3    H241277   5.457   2.026   3.015 -0.0680  1.0729  0.2969
 6596TIP3   OH241278   4.276   1.026  13.541 -0.1367 -0.1777  0.1419
 6596TIP3    H141279   4.293   1.116  13.569  2.9919 -0.1523 -1.3959
 6596TIP3    H241280   4.286   1.029  13.446  0.4669 -2.2078  0.1040
 6597TIP3   OH241281   6.237   3.074   1.641  0.4486  0.0310 -0.0949
 6597TIP3    H141282   6.169   3.082   1.573  0.5188  0.6873 -0.0906
 6597TIP3    H241283   6.285   2.995   1.617 -1.2570 -1.3423  0.7426
 6598TIP3   OH241284   6.205   1.317   3.267  0.2961 -0.2934 -0.0524
 6598TIP3    H141285   6.216   1.400   3.220 -0.0667  0.0252  0.4151
 6598TIP3    H241286   6.118   1.286   3.241  0.1056 -0.1303  0.3754
 6599TIP3   OH241287   4.503   3.162   5.156 -0.4764 -0.5648  0.1963
 6599TIP3    H141288   4.434   3.147   5.221 -1.2214  1.3365 -0.0790
 6599TIP3    H241289   4.555   3.234   5.193 -1.4793  1.2100 -1.6363
 6600TIP3   OH241290   4.255   4.102  15.231  0.1446  0.0257 -0.1532
 6600TIP3    H141291   4.260   4.152  15.150 -0.6755 -0.1231 -0.3009
 6600TIP3    H241292   4.283   4.014  15.206  1.1878  0.2908  0.0206
 6601TIP3   OH241293   5.322   5.953   1.213 -0.3170  0.1642 -0.0585
 6601TIP3    H141294   5.374   5.931   1.290 -0.6026 -0.9526 -0.1638
 6601TIP3    H241295   5.232   5.957   1.244 -0.3460  0.5127 -0.1816
 6602TIP3   OH241296   4.377   3.616  11.346 -0.3192  0.2233  0.4229
 6602TIP3    H141297   4.415   3.673  11.413 -0.8725  0.1354  0.8193
 6602TIP3    H241298   4.451   3.570  11.308 -0.0696 -0.2128  1.4299
 6603TIP3   OH241299   2.140   5.488  13.990  0.0941 -0.3183 -0.1742
 6603TIP3    H141300   2.098   5.418  13.941  0.9302 -1.7595  1.0835
 6603TIP3    H241301   2.172   5.446  14.070  1.1167  1.3837  0.3706
 6604TIP3   OH241302   5.901   6.779  14.608 -0.1020  0.8635  0.1182
 6604TIP3    H141303   5.867   6.865  14.634  1.7994  1.9708 -0.8626
 6604TIP3    H241304   5.950   6.749  14.685  0.2659  1.2499  0.0417
 6605TIP3   OH241305   3.351   1.509   2.896 -0.4687  0.1470  0.2786
 6605TIP3    H141306   3.303   1.549   2.824 -0.0242  0.7782  0.3187
 6605TIP3    H241307   3.380   1.584   2.949  2.0354 -0.0695 -0.6694
 6606TIP3   OH241308   1.687   2.994  13.372 -0.2135 -0.2303  0.5053
 6606TIP3    H141309   1.656   2.925  13.431 -1.8894 -0.7678 -0.9320
 6606TIP3    H241310   1.632   3.069  13.392 -0.0627 -0.0785  0.3525
 6607TIP3   OH241311   0.846   0.264  15.356  0.0714  0.4197  0.3430
 6607TIP3    H141312   0.761   0.306  15.363 -0.4595 -0.5833  0.0874
 6607TIP3    H241313   0.840   0.188  15.414  0.6391  0.1026 -0.0009
 6608TIP3   OH241314   3.649   3.430   0.355  0.2972  0.2886  0.0661
 6608TIP3    H141315   3.669   3.404   0.265  2.1048 -0.1186  0.5384
 6608TIP3    H241316   3.604   3.514   0.346 -0.0240  0.0027 -1.2254
 6609TIP3   OH241317   0.350   5.327   0.541  0.3816 -0.0615  0.0054
 6609TIP3    H141318   0.383   5.360   0.624 -0.4434  1.2424 -0.1682
 6609TIP3    H241319   0.280   5.266   0.566  0.5458 -0.1413  0.2779
 6610TIP3   OH241320   2.576   4.282  13.445  0.4470 -0.1179 -0.0857
 6610TIP3    H141321   2.649   4.245  13.495  0.4488 -1.8974 -1.3272
 6610TIP3    H241322   2.586   4.377  13.456  3.1963 -0.2718 -0.5460
 6611TIP3   OH241323   5.140   1.152   5.178 -0.1012  0.0821  0.6812
 6611TIP3    H141324   5.141   1.140   5.273  1.1522  0.8772  0.7947
 6611TIP3    H241325   5.058   1.199   5.162 -0.4539 -0.2844  1.3291
 6612TIP3   OH241326   2.586   0.460   6.068  0.9152 -0.0118 -0.6828
 6612TIP3    H141327   2.554   0.524   6.131 -0.2465 -2.0083  0.8526
 6612TIP3    H241328   2.682   0.469   6.071  0.8726  0.0474  1.2686
 6613TIP3   OH241329   4.862   3.820   0.306 -0.1785  0.3155  0.0518
 6613TIP3    H141330   4.911   3.872   0.370 -0.8399 -1.0114  1.7017
 6613TIP3    H241331   4.771   3.827   0.333 -0.8211  1.5986 -2.1653
 6614TIP3   OH241332   2.981   3.571   0.399 -0.1622 -0.2132 -0.3223
 6614TIP3    H141333   2.992   3.507   0.469 -1.2342  0.3820  0.4126
 6614TIP3    H241334   2.971   3.655   0.444  0.8021  0.4218 -1.2602
 6615TIP3   OH241335   2.861   3.956   3.284  0.6705 -0.1161  0.2700
 6615TIP3    H141336   2.873   3.926   3.194  1.4372  0.0805  0.2962
 6615TIP3    H241337   2.768   3.977   3.291 -0.0818 -3.0809  0.4462
 6616TIP3   OH241338   4.037   4.998  13.278  0.7745  0.5879  0.6513
 6616TIP3    H141339   4.071   5.060  13.214  1.7114  0.2334  0.7835
 6616TIP3    H241340   4.112   4.941  13.298  0.4684  0.5962  1.9353
 6617TIP3   OH241341   4.739   2.419   1.402 -0.2073 -0.0641  0.2896
 6617TIP3    H141342   4.655   2.378   1.381 -0.4828  0.3366  0.5916
 6617TIP3    H241343   4.733   2.441   1.495 -1.0859  2.9547 -0.3789
 6618TIP3   OH241344   1.658   5.011   1.018  0.1207  0.0161 -0.1671
 6618TIP3    H141345   1.651   5.105   1.033 -0.2607 -0.0812  0.3105
 6618TIP3    H241346   1.711   4.979   1.091 -0.7730 -0.3052  0.3591
 6619TIP3   OH241347   2.053   6.199  13.170 -0.0669  0.0855 -0.2023
 6619TIP3    H141348   2.001   6.255  13.229 -0.6697 -1.7246  1.0778
 6619TIP3    H241349   2.032   6.110  13.197  1.5375 -0.7714 -1.5872
 6620TIP3   OH241350   3.521   5.327  12.296 -0.1717 -0.1086 -0.1469
 6620TIP3    H141351   3.479   5.286  12.372  0.2359 -0.5227 -0.1369
 6620TIP3    H241352   3.615   5.324  12.316 -0.0673 -0.1527 -0.6320
 6621TIP3   OH241353   6.827   5.335  16.622 -0.1334  0.1017 -0.2226
 6621TIP3    H141354   6.740   5.346  16.583 -0.3788  0.1841  0.3392
 6621TIP3    H241355   6.887   5.378  16.561 -0.3840 -0.6810 -1.0400
 6622TIP3   OH241356   3.534   4.996   5.591 -0.4326  0.5080 -0.0500
 6622TIP3    H141357   3.575   4.970   5.508  1.3914 -2.6375  1.6305
 6622TIP3    H241358   3.535   4.916   5.644 -3.1815  1.9075  2.4218
 6623TIP3   OH241359   0.719   4.307   0.921  0.5143  0.6474  0.3024
 6623TIP3    H141360   0.625   4.319   0.933  0.7490  1.9707  0.9640
 6623TIP3    H241361   0.727   4.271   0.832 -0.5688  1.3421 -0.1012
 6624TIP3   OH241362   4.354   2.515   5.991 -0.1067  0.2644  0.3298
 6624TIP3    H141363   4.444   2.526   5.960 -0.9044  1.2733 -1.8159
 6624TIP3    H241364   4.303   2.501   5.912 -1.6986 -1.6786  1.6075
 6625TIP3   OH241365   1.461   3.286   5.473  0.3729  0.3274  0.3413
 6625TIP3    H141366   1.414   3.368   5.455  1.5465  0.9048 -0.1516
 6625TIP3    H241367   1.553   3.307   5.460  0.7944 -0.7864  1.3418
 6626TIP3   OH241368   2.553   1.333   4.263 -0.0515 -0.3197 -0.0754
 6626TIP3    H141369   2.599   1.414   4.286  0.1505 -0.4399 -0.0496
 6626TIP3    H241370   2.479   1.330   4.324  1.2272 -1.3089  1.5170
 6627TIP3   OH241371   6.299   3.179  13.861  0.0048 -0.0403 -0.0549
 6627TIP3    H141372   6.370   3.115  13.871  2.0658  1.8248 -1.8761
 6627TIP3    H241373   6.328   3.238  13.792 -1.7694  2.9260  1.5172
 6628TIP3   OH241374   1.805   1.048  14.141  0.1341  0.0339  0.4567
 6628TIP3    H141375   1.854   1.130  14.145  0.3677 -0.0597 -0.3665
 6628TIP3    H241376   1.750   1.057  14.064  2.1057 -1.6303 -1.2777
 6629TIP3   OH241377   4.230   0.785   0.579  0.2367  0.0570  0.0726
 6629TIP3    H141378   4.261   0.779   0.669 -1.1253  0.9816  0.6344
 6629TIP3    H241379   4.168   0.713   0.570 -0.8542  0.9255  0.4172
 6630TIP3   OH241380   2.201   5.364  12.759  0.2766  0.2680 -0.7656
 6630TIP3    H141381   2.180   5.398  12.846 -0.6184  0.4391 -1.0434
 6630TIP3    H241382   2.201   5.441  12.702 -0.1828  0.0180 -1.1106
 6631TIP3   OH241383   5.197   2.095  13.279 -0.5952 -0.3284  0.8853
 6631TIP3    H141384   5.194   2.008  13.239 -0.6361  0.1809 -0.2370
 6631TIP3    H241385   5.201   2.077  13.373 -1.1515 -1.5379  0.7026
 6632TIP3   OH241386   0.435   2.451  14.167  0.0085 -0.4976  0.4968
 6632TIP3    H141387   0.517   2.403  14.181  0.4320 -0.3005 -1.0855
 6632TIP3    H241388   0.380   2.427  14.241  1.1982 -1.2929  1.1531
 6633TIP3   OH241389   2.519   0.635  12.207  0.6854  0.5004 -0.7068
 6633TIP3    H141390   2.602   0.663  12.167  2.2987  0.0216  2.0641
 6633TIP3    H241391   2.475   0.716  12.230  1.6156  0.7797  0.1284
 6634TIP3   OH241392   6.034   5.527  15.058 -0.3079  0.0872  0.4102
 6634TIP3    H141393   6.033   5.622  15.061 -0.1761  0.0704  1.2056
 6634TIP3    H241394   6.099   5.506  14.991 -1.0525  0.5547 -0.4789
 6635TIP3   OH241395   5.860   1.321  13.031  0.2611 -0.0040  0.1863
 6635TIP3    H141396   5.790   1.256  13.032  0.6258 -0.4535 -1.3560
 6635TIP3    H241397   5.822   1.395  12.984 -0.5735  1.4714  2.9568
 6636TIP3   OH241398   0.524   0.429  12.803 -0.1030 -0.6191 -0.9655
 6636TIP3    H141399   0.482   0.443  12.718  0.3828 -2.0743 -1.4874
 6636TIP3    H241400   0.459   0.378  12.853 -0.7246  0.9311 -0.1320
 6637TIP3   OH241401   6.728   1.302  14.228 -0.6411  0.0674 -0.6622
 6637TIP3    H141402   6.693   1.389  14.210  0.8396  0.7277 -0.5236
 6637TIP3    H241403   6.662   1.261  14.284 -0.6451  1.7124  0.6141
 6638TIP3   OH241404   4.588   3.012  12.832  0.2136  0.3466 -0.3555
 6638TIP3    H141405   4.603   2.997  12.926  0.9636 -1.2288 -0.6905
 6638TIP3    H241406   4.666   2.976  12.790 -0.3211  0.6278 -1.6086
 6639TIP3   OH241407   6.520   1.986  15.783  0.2941 -0.1157 -0.6400
 6639TIP3    H141408   6.447   2.039  15.815 -0.5858 -1.3186 -0.6084
 6639TIP3    H241409   6.583   2.050  15.750  0.1246  1.0647  1.1461
 6640TIP3   OH241410   0.789   6.013  11.533  0.0721  0.3633 -0.7316
 6640TIP3    H141411   0.738   6.013  11.452 -1.5683  0.9424  0.2609
 6640TIP3    H241412   0.813   6.104  11.547  0.5727  0.2300 -0.6786
 6641TIP3   OH241413   5.323   0.519   2.526  0.2260 -0.3875 -0.2291
 6641TIP3    H141414   5.289   0.430   2.538  0.9064 -0.5326  0.7368
 6641TIP3    H241415   5.403   0.507   2.474  0.1655 -0.3030 -0.3433
 6642TIP3   OH241416   1.456   1.547   3.694  0.3008 -0.1494  0.0487
 6642TIP3    H141417   1.447   1.601   3.615  1.6605 -0.3569 -0.2615
 6642TIP3    H241418   1.465   1.610   3.765 -0.3962  0.0351 -0.0163
 6643TIP3   OH241419   2.398   6.754   2.643  0.2941  0.0851 -0.0051
 6643TIP3    H141420   2.339   6.758   2.568  1.6622 -0.7580 -1.1661
 6643TIP3    H241421   2.345   6.716   2.713 -1.8357  3.3517  0.3885
 6644TIP3   OH241422   5.351   5.542  13.972  0.7733  0.6255  0.1768
 6644TIP3    H141423   5.282   5.485  13.938  1.4401 -0.0359 -0.0931
 6644TIP3    H241424   5.307   5.595  14.038 -0.2426  0.9721 -0.7356
 6645TIP3   OH241425   5.975   2.809  15.222  0.0164 -0.0260  0.7585
 6645TIP3    H141426   6.039   2.805  15.151  1.4341 -0.8682  2.0133
 6645TIP3    H241427   5.917   2.881  15.198 -0.9380 -1.6419 -2.3439
 6646TIP3   OH241428   5.474   3.973  13.197  0.2250  0.4286 -0.0830
 6646TIP3    H141429   5.458   4.022  13.278  0.0593  0.1979  0.0275
 6646TIP3    H241430   5.569   3.970  13.189  0.2359  1.4303 -0.5015
 6647TIP3   OH241431   5.993   4.879   4.045  0.5511 -0.2562 -0.6280
 6647TIP3    H141432   6.024   4.914   3.962 -0.3384 -0.0296 -0.8780
 6647TIP3    H241433   6.053   4.915   4.110  1.0348 -0.1425 -1.1312
 6648TIP3   OH241434   1.933   5.889  12.539  0.3302  0.5721  0.3314
 6648TIP3    H141435   1.892   5.811  12.502  0.2714 -0.1935  1.9522
 6648TIP3    H241436   1.860   5.949  12.557  0.1489  0.1550  1.0178
 6649TIP3   OH241437   3.439   3.986  13.565 -0.0379 -0.2570  0.1814
 6649TIP3    H141438   3.348   3.957  13.555 -0.2498 -0.0209  1.2079
 6649TIP3    H241439   3.490   3.923  13.516 -0.5503 -2.0030  1.7729
 6650TIP3   OH241440   3.260   4.738  12.770 -0.2454 -0.4694 -0.3358
 6650TIP3    H141441   3.251   4.645  12.748  0.1357 -0.5246 -0.2565
 6650TIP3    H241442   3.219   4.746  12.856  2.2026 -1.1149  0.9623
 6651TIP3   OH241443   1.862   2.298  12.127  0.5942 -0.6155 -0.5814
 6651TIP3    H141444   1.785   2.353  12.115  0.1996 -1.1472 -0.5329
 6651TIP3    H241445   1.936   2.356  12.109  0.3215  0.5847  1.7894
 6652TIP3   OH241446   6.637   3.489   0.714  0.0447  0.1573  0.2177
 6652TIP3    H141447   6.680   3.547   0.776  0.5461  0.7668 -0.6775
 6652TIP3    H241448   6.627   3.407   0.761  1.6862  0.1663  0.6407
 6653TIP3   OH241449   0.281   0.150  16.185  0.6170  0.2270  0.5334
 6653TIP3    H141450   0.200   0.199  16.173  1.3122  0.9711 -1.8638
 6653TIP3    H241451   0.263   0.063  16.150  0.7447  0.2915  0.3025
 6654TIP3   OH241452   2.693   3.712   2.395  0.3777 -0.2787  0.1905
 6654TIP3    H141453   2.695   3.776   2.466 -0.9452  0.0914 -0.0856
 6654TIP3    H241454   2.784   3.683   2.386  0.6402 -0.0251  1.7474
 6655TIP3   OH241455   3.559   5.322  15.204 -0.1524  0.0827  0.2423
 6655TIP3    H141456   3.523   5.406  15.230  0.2856  0.2843  0.1963
 6655TIP3    H241457   3.603   5.338  15.121  0.6707  0.0016  0.6498
 6656TIP3   OH241458   6.673   5.433   2.611 -0.7244  0.5548  0.4294
 6656TIP3    H141459   6.749   5.397   2.565 -1.0602  0.3719  0.0100
 6656TIP3    H241460   6.653   5.514   2.564 -1.7610 -0.1988 -0.4802
 6657TIP3   OH241461   0.670   0.544   5.581  0.1086 -0.1778  0.0275
 6657TIP3    H141462   0.725   0.528   5.504 -1.4516 -0.3726 -1.0904
 6657TIP3    H241463   0.663   0.639   5.587  2.3364 -0.0296  1.5318
 6658TIP3   OH241464   1.638   0.662   5.491  0.1781 -0.1154 -0.0099
 6658TIP3    H141465   1.640   0.735   5.429 -1.1717 -0.0494 -0.0001
 6658TIP3    H241466   1.725   0.662   5.530  0.0695  1.7999  0.3292
 6659TIP3   OH241467   4.994   2.771  10.510 -0.1644 -0.3525  0.1867
 6659TIP3    H141468   5.075   2.796  10.465 -0.7468  1.7337  0.2049
 6659TIP3    H241469   4.939   2.736  10.441  0.5574 -1.3566  0.0938
 6660TIP3   OH241470   5.312   0.467   1.731 -0.2004 -0.2092  0.4476
 6660TIP3    H141471   5.352   0.539   1.683 -0.6817  0.1932  0.6547
 6660TIP3    H241472   5.340   0.480   1.822  0.1696 -0.6030  0.3990
 6661TIP3   OH241473   2.341   6.708  14.364 -0.3077 -0.2803  0.0112
 6661TIP3    H141474   2.289   6.710  14.283  0.5349 -2.3596 -0.6489
 6661TIP3    H241475   2.392   6.789  14.362 -0.8823  0.0784 -1.1432
 6662TIP3   OH241476   4.674   2.036   3.690  0.3177 -0.3175  0.1166
 6662TIP3    H141477   4.741   1.977   3.725 -1.3013 -0.8929  2.4673
 6662TIP3    H241478   4.663   2.102   3.758  0.1934  1.2146 -1.3287
 6663TIP3   OH241479   1.798   0.427   0.326 -0.9931  0.4169 -0.2767
 6663TIP3    H141480   1.765   0.340   0.305 -1.3317  0.9742 -2.2770
 6663TIP3    H241481   1.797   0.431   0.422  1.4024 -2.6395  0.0158
 6664TIP3   OH241482   5.711   4.995  12.376 -0.0236  0.5224  0.0590
 6664TIP3    H141483   5.627   4.991  12.421 -0.6275 -0.0422 -1.1058
 6664TIP3    H241484   5.762   5.059  12.427 -1.2727  1.1455  0.5607
 6665TIP3   OH241485   3.513   6.570  13.055 -0.0718 -0.1990  0.1393
 6665TIP3    H141486   3.544   6.489  13.094 -2.1911 -1.2992 -0.3231
 6665TIP3    H241487   3.538   6.564  12.962 -1.8660 -1.2601 -0.3178
 6666TIP3   OH241488   5.533   4.613  17.033 -0.4644  0.5510 -0.5581
 6666TIP3    H141489   5.520   4.532  17.084 -3.0109  0.9052 -0.5392
 6666TIP3    H241490   5.590   4.586  16.961 -0.3658 -0.9954  0.0422
 6667TIP3   OH241491   4.000   2.198  12.655 -0.0545 -0.3567 -0.2051
 6667TIP3    H141492   4.076   2.255  12.661  0.0416 -0.5637  0.6197
 6667TIP3    H241493   4.036   2.111  12.637  0.0744 -0.8305  2.0712
 6668TIP3   OH241494   2.161   1.332   5.132 -0.9993  0.1815  0.5716
 6668TIP3    H141495   2.130   1.249   5.167 -1.6346 -0.8909 -2.3134
 6668TIP3    H241496   2.136   1.396   5.199  1.9465 -2.0808  4.2412
 6669TIP3   OH241497   4.744   3.334   3.681  0.1296  0.0328  0.0902
 6669TIP3    H141498   4.799   3.390   3.627 -2.2621  0.7680 -1.7631
 6669TIP3    H241499   4.729   3.256   3.628 -0.4559 -0.2454  0.6423
 6670TIP3   OH241500   4.249   5.983   1.613 -0.3048 -0.3536  0.1167
 6670TIP3    H141501   4.244   6.077   1.599  0.5883 -0.2881  0.1666
 6670TIP3    H241502   4.162   5.958   1.643 -0.4983  0.4864  0.2660
 6671TIP3   OH241503   2.457   1.201  15.761  0.8115 -0.0299  0.3281
 6671TIP3    H141504   2.424   1.128  15.813 -0.6075  0.0212 -0.4733
 6671TIP3    H241505   2.392   1.270  15.772  1.1534  0.4361 -0.4792
 6672TIP3   OH241506   1.270   6.767  14.810 -0.6123 -0.8745 -0.1080
 6672TIP3    H141507   1.254   6.770  14.716 -0.6550 -0.3394 -0.0835
 6672TIP3    H241508   1.332   6.838  14.826 -3.3271  1.4832  0.7886
 6673TIP3   OH241509   0.569   1.915  15.027 -0.1558 -0.5895  0.5279
 6673TIP3    H141510   0.642   1.970  15.056 -0.4243  0.0129  0.0514
 6673TIP3    H241511   0.519   1.898  15.107 -0.1295 -0.0579  0.6617
 6674TIP3   OH241512   6.345   0.160  13.366  0.1506 -0.2476  0.2198
 6674TIP3    H141513   6.410   0.189  13.430  0.4997 -1.2667  0.3342
 6674TIP3    H241514   6.396   0.124  13.294 -0.2797 -1.1116  0.3348
 6675TIP3   OH241515   4.580   3.666   1.773  0.7597 -0.0980 -0.0934
 6675TIP3    H141516   4.550   3.627   1.855  1.2042  1.1683  0.6923
 6675TIP3    H241517   4.669   3.633   1.762  0.8242  0.0033  0.1197
 6676TIP3   OH241518   3.659   3.041   4.164 -0.2302  0.3168  0.2262
 6676TIP3    H141519   3.638   3.038   4.071  0.5544  2.0250 -0.0420
 6676TIP3    H241520   3.738   3.094   4.169  0.3333 -0.6017  1.7873
 6677TIP3   OH241521   6.062   4.917   1.219 -0.1468  0.3823 -0.1318
 6677TIP3    H141522   6.133   4.934   1.281  0.4503 -2.5480  0.1538
 6677TIP3    H241523   5.983   4.911   1.274  0.2315 -1.2569  0.2855
 6678TIP3   OH241524   6.439   6.630   2.658  0.2743 -0.0338  0.7492
 6678TIP3    H141525   6.492   6.567   2.609  0.7541  0.9555 -0.0388
 6678TIP3    H241526   6.491   6.710   2.658 -0.3618  0.3899  1.6630
 6679TIP3   OH241527   0.519   1.636   4.922 -0.1141  0.3038  0.3809
 6679TIP3    H141528   0.525   1.678   5.008 -1.4516  2.7369 -0.6557
 6679TIP3    H241529   0.439   1.583   4.927  0.6548 -0.8406  1.1114
 6680TIP3   OH241530   4.669   2.792   0.657  0.1924 -0.8725 -0.2988
 6680TIP3    H141531   4.735   2.780   0.726 -0.4489  3.0624  1.2986
 6680TIP3    H241532   4.703   2.863   0.603 -2.6901  1.5511  0.7840
 6681TIP3   OH241533   2.926   6.801  13.441  0.0139 -0.4830 -0.4522
 6681TIP3    H141534   2.907   6.826  13.351  0.6684  0.7144 -0.2745
 6681TIP3    H241535   2.855   6.741  13.465 -0.2196 -0.7433 -1.7146
 6682TIP3   OH241536   0.387   4.029   2.881 -0.1171 -0.7566 -0.1286
 6682TIP3    H141537   0.299   4.015   2.916 -0.4567 -2.3753 -1.4938
 6682TIP3    H241538   0.373   4.082   2.802  0.5475  2.0513  1.5133
 6683TIP3   OH241539   4.424   2.951   2.705  0.0544 -0.7591  0.0849
 6683TIP3    H141540   4.466   2.883   2.758 -2.4324 -1.6910  0.9800
 6683TIP3    H241541   4.356   2.906   2.656 -1.1588  0.9537  0.0961
 6684TIP3   OH241542   6.042   4.897  14.662  0.3346 -0.0076  0.4286
 6684TIP3    H141543   6.107   4.880  14.729 -0.6620  0.9715  1.6943
 6684TIP3    H241544   6.012   4.986  14.679 -0.7627 -0.1538 -0.6001
 6685TIP3   OH241545   4.172   0.155  12.794 -0.0896  0.1129  0.0502
 6685TIP3    H141546   4.206   0.243  12.782 -0.4504  0.2120 -0.2618
 6685TIP3    H241547   4.117   0.160  12.872 -0.4736  0.2731 -0.2281
 6686TIP3   OH241548   6.361   4.701  13.071  0.6442  0.1322  0.2520
 6686TIP3    H141549   6.332   4.664  12.988  0.4887 -0.3800  0.5335
 6686TIP3    H241550   6.292   4.764  13.094  0.1427 -0.5119  0.5287
 6687TIP3   OH241551   0.979   4.915   2.309  0.0606 -0.0458  0.0703
 6687TIP3    H141552   0.951   4.903   2.400 -2.2094  0.5720 -0.4836
 6687TIP3    H241553   1.073   4.929   2.315 -0.2246  1.4557  2.4718
 6688TIP3   OH241554   4.289   3.006   4.440 -0.0450  0.4486 -0.0517
 6688TIP3    H141555   4.249   3.016   4.526  0.3023 -1.4196  0.3686
 6688TIP3    H241556   4.219   2.973   4.384 -0.9064  3.7195 -1.1620
 6689TIP3   OH241557   5.539   1.723   3.266  0.1350  0.8172  0.1111
 6689TIP3    H141558   5.519   1.775   3.343  0.5683  0.8264  0.2207
 6689TIP3    H241559   5.458   1.674   3.249 -0.1759  1.3018  0.1774
 6690TIP3   OH241560   6.710   5.747   1.499 -0.3921 -0.4163  0.0739
 6690TIP3    H141561   6.781   5.789   1.451  0.8180 -1.2478  1.0458
 6690TIP3    H241562   6.637   5.744   1.438  1.2379 -1.9518 -1.9402
 6691TIP3   OH241563   1.192   2.480   1.977 -0.4959 -0.0198  0.5735
 6691TIP3    H141564   1.282   2.509   1.962 -0.6691  0.3120  0.1840
 6691TIP3    H241565   1.155   2.544   2.038 -0.4431 -0.2054  0.8027
 6692TIP3   OH241566   3.439   6.175   1.968  0.3933 -0.3343  0.9249
 6692TIP3    H141567   3.395   6.091   1.957 -0.6067  0.1125  1.3382
 6692TIP3    H241568   3.385   6.222   2.031 -0.2922  1.4595 -0.8879
 6693TIP3   OH241569   0.572   1.607  16.860 -0.6021 -0.2100 -0.1834
 6693TIP3    H141570   0.589   1.696  16.891 -0.9410  0.5802 -2.1155
 6693TIP3    H241571   0.506   1.617  16.792 -0.4902 -1.9296 -0.6012
 6694TIP3   OH241572   0.899   0.328   1.617  0.4622  0.5147  0.3462
 6694TIP3    H141573   0.965   0.296   1.678  0.2479  1.2920  1.0106
 6694TIP3    H241574   0.822   0.345   1.671  0.3553  1.4838 -0.0870
 6695TIP3   OH241575   3.812   2.800   1.554  0.0049 -0.0951  0.1005
 6695TIP3    H141576   3.843   2.875   1.503 -0.2833  0.7913  1.1684
 6695TIP3    H241577   3.869   2.728   1.528 -0.3686  0.2157 -1.7187
 6696TIP3   OH241578   6.336   4.419   1.566  0.6867 -0.1443  0.6783
 6696TIP3    H141579   6.432   4.423   1.576  0.7995  1.3037 -0.5998
 6696TIP3    H241580   6.305   4.383   1.649  2.2880  0.0333  1.4007
 6697TIP3   OH241581   6.716   5.794  16.191 -0.2101  0.2155  0.1554
 6697TIP3    H141582   6.675   5.793  16.104 -0.0328 -0.9626  0.0754
 6697TIP3    H241583   6.793   5.849  16.181  0.4253 -0.8002 -0.7393
 6698TIP3   OH241584   1.970   2.967  14.531 -0.0375  0.2152 -0.6575
 6698TIP3    H141585   1.882   3.001  14.513 -0.8578 -0.7900  1.1350
 6698TIP3    H241586   1.965   2.934  14.620  2.0088 -0.4578 -0.7342
 6699TIP3   OH241587   6.070   5.145  15.606 -0.1793  0.0057  0.1984
 6699TIP3    H141588   6.051   5.147  15.700  0.5777 -4.0216  0.6386
 6699TIP3    H241589   5.987   5.169  15.565 -1.5073 -1.2068  1.9650
 6700TIP3   OH241590   2.477   4.235  13.950  0.1600 -0.0815  0.5276
 6700TIP3    H141591   2.489   4.278  14.034 -1.5551 -1.0376  1.3021
 6700TIP3    H241592   2.479   4.306  13.886 -0.2456  0.8659  1.5371
 6701TIP3   OH241593   6.326   5.200  11.975  0.1075 -0.2368  0.3781
 6701TIP3    H141594   6.343   5.279  12.026 -1.1241  0.5802 -0.4037
 6701TIP3    H241595   6.282   5.232  11.896 -1.0929 -1.7714  0.3831
 6702TIP3   OH241596   5.899   6.481  12.114  0.2125 -0.6642 -0.2572
 6702TIP3    H141597   5.881   6.510  12.025 -0.6234 -0.7864 -0.1352
 6702TIP3    H241598   5.919   6.388  12.106  0.1155 -0.6800 -0.3126
 6703TIP3   OH241599   2.453   5.312   0.210 -0.1074  0.1874 -0.5548
 6703TIP3    H141600   2.385   5.337   0.147 -0.4200  0.4268 -0.1267
 6703TIP3    H241601   2.521   5.379   0.200  0.5458 -0.6076 -1.7008
 6704TIP3   OH241602   6.187   4.283  12.609 -0.5105 -0.1150 -0.3466
 6704TIP3    H141603   6.273   4.326  12.609 -0.7996  0.5097  0.9885
 6704TIP3    H241604   6.203   4.199  12.566  0.5636  0.3819 -0.9577
 6705TIP3   OH241605   5.740   0.837  12.036 -0.1093  0.1079  0.2733
 6705TIP3    H141606   5.782   0.814  11.953 -1.7881  0.6465 -0.7721
 6705TIP3    H241607   5.807   0.886  12.084  0.7380  0.2066 -0.9536
 6706TIP3   OH241608   3.085   5.260   5.738  0.6254 -0.1285 -0.4738
 6706TIP3    H141609   3.126   5.201   5.675  0.6244  0.0383 -0.6316
 6706TIP3    H241610   3.085   5.211   5.820  0.0126 -0.6113 -0.7516
 6707TIP3   OH241611   3.742   2.639   1.888 -0.0115  0.2566  0.0574
 6707TIP3    H141612   3.657   2.597   1.875  0.1183  0.0733 -0.1907
 6707TIP3    H241613   3.729   2.729   1.859 -0.2602  0.3645  0.4921
 6708TIP3   OH241614   5.182   3.719   6.226 -0.6623  0.0715 -0.1630
 6708TIP3    H141615   5.263   3.763   6.199 -0.6435 -0.9138 -1.8939
 6708TIP3    H241616   5.210   3.632   6.255 -1.0251 -0.0385 -0.1362
 6709TIP3   OH241617   5.364   4.344  15.146 -0.0045 -0.0446 -0.8240
 6709TIP3    H141618   5.400   4.405  15.211  0.6059 -0.5375 -0.6827
 6709TIP3    H241619   5.351   4.263  15.194 -0.4625 -0.1365 -1.0984
 6710TIP3   OH241620   6.066   0.251  15.529 -0.2027  0.0675  0.3402
 6710TIP3    H141621   6.076   0.184  15.462 -1.7507 -0.7545  0.9061
 6710TIP3    H241622   6.008   0.213  15.594  0.1895  1.3528  1.4992
 6711TIP3   OH241623   2.573   1.604  16.184  0.0547  0.6736  0.4648
 6711TIP3    H141624   2.637   1.550  16.137  0.2854  1.2706  0.0822
 6711TIP3    H241625   2.595   1.694  16.160 -1.1117  0.8824  0.0846
 6712TIP3   OH241626   0.415   3.198  16.703  0.6391  0.4152  0.2069
 6712TIP3    H141627   0.496   3.228  16.662  0.3259  0.5017 -0.3664
 6712TIP3    H241628   0.360   3.276  16.707  0.3113  0.2046 -0.0838
 6713TIP3   OH241629   2.704   3.189   0.832  0.0592  0.0675 -0.2737
 6713TIP3    H141630   2.661   3.239   0.901  1.1442 -0.8642  1.1155
 6713TIP3    H241631   2.639   3.185   0.762 -1.0147  1.1599  0.6136
 6714TIP3   OH241632   1.737   3.856   5.003 -0.1220  0.6892 -0.2035
 6714TIP3    H141633   1.672   3.787   5.013  1.4541 -0.6993  1.1810
 6714TIP3    H241634   1.788   3.829   4.926 -1.1115  1.7440 -1.2548
 6715TIP3   OH241635   5.650   2.714   4.544  0.6152 -0.5445 -0.0528
 6715TIP3    H141636   5.716   2.645   4.549 -2.3143 -3.5793  1.4188
 6715TIP3    H241637   5.599   2.693   4.466  0.8330  1.2955 -0.7494
 6716TIP3   OH241638   3.824   2.805   3.002 -0.8991 -1.0970  0.6538
 6716TIP3    H141639   3.878   2.768   2.931  1.3308  0.4087  1.4494
 6716TIP3    H241640   3.872   2.782   3.082 -0.5552  1.5766  1.3088
 6717TIP3   OH241641   2.496   2.831   5.321  0.0775  0.1809 -0.5157
 6717TIP3    H141642   2.566   2.775   5.287 -0.3509 -1.6377  1.4173
 6717TIP3    H241643   2.540   2.886   5.386  0.0776  0.5405 -0.8154
 6718TIP3   OH241644   1.255   1.397   0.170 -0.0941 -0.4984  0.4165
 6718TIP3    H141645   1.240   1.442   0.253  0.9086  2.2934 -0.7843
 6718TIP3    H241646   1.182   1.425   0.115  0.7031 -0.0692 -0.4488
 6719TIP3   OH241647   1.046   6.405  11.900  0.0097  0.4996  0.0985
 6719TIP3    H141648   1.053   6.460  11.822  1.6268 -0.9540 -0.8461
 6719TIP3    H241649   0.954   6.414  11.927 -0.4011  1.6166 -1.5194
 6720TIP3   OH241650   6.864   6.243  12.184 -0.2471 -0.2621 -0.2401
 6720TIP3    H141651   6.889   6.278  12.099 -0.4378  0.3556 -0.0458
 6720TIP3    H241652   6.816   6.163  12.163 -1.6130  0.6520 -0.8099
 6721TIP3   OH241653   1.103   5.069  13.831  0.4216 -0.2657 -0.1235
 6721TIP3    H141654   1.085   5.077  13.737 -0.1403 -0.3013 -0.0256
 6721TIP3    H241655   1.026   5.106  13.874  1.6165  1.8013  0.3502
 6722TIP3   OH241656   1.100   2.597  15.979  0.2036  0.0732 -0.3948
 6722TIP3    H141657   1.156   2.547  15.919 -0.3336  1.4356 -2.1450
 6722TIP3    H241658   1.113   2.688  15.952 -2.1504  0.4966 -0.2731
 6723TIP3   OH241659   3.877   5.360  16.989 -0.1679 -0.5552  0.4048
 6723TIP3    H141660   3.819   5.338  16.916 -1.6359 -0.6067  1.5594
 6723TIP3    H241661   3.825   5.418  17.044  1.3739  0.5373  0.7781
 6724TIP3   OH241662   2.951   2.349   5.027  0.3225  0.7060 -0.0151
 6724TIP3    H141663   2.913   2.426   5.069  0.5610  0.8845 -0.1207
 6724TIP3    H241664   2.939   2.364   4.933 -0.1057  0.3632 -0.0182
 6725TIP3   OH241665   5.521   0.555  12.018 -0.3246  0.3466 -0.2109
 6725TIP3    H141666   5.580   0.598  12.080 -1.1356 -1.3070  1.8250
 6725TIP3    H241667   5.472   0.627  11.978  2.0306  1.6568 -0.9557
 6726TIP3   OH241668   5.638   2.679   2.506 -0.2477  0.3871  0.2378
 6726TIP3    H141669   5.546   2.667   2.527 -0.1609 -1.3462 -0.2183
 6726TIP3    H241670   5.640   2.693   2.411 -0.0503  0.6872  0.2823
 6727TIP3   OH241671   4.738   2.729  13.205  0.5684  0.0962 -0.2784
 6727TIP3    H141672   4.661   2.680  13.236 -1.0216  1.4222 -1.8905
 6727TIP3    H241673   4.767   2.681  13.128  0.7922  0.1000 -0.1955
 6728TIP3   OH241674   4.958   0.367   5.623  0.0931 -0.1927 -0.0184
 6728TIP3    H141675   4.949   0.320   5.540  0.1074  1.9171 -1.2960
 6728TIP3    H241676   4.875   0.355   5.668 -1.3944  1.6577 -2.0718
 6729TIP3   OH241677   2.467   1.198  11.346  0.4639 -0.6636 -0.1047
 6729TIP3    H141678   2.391   1.249  11.318  0.4281  0.8168  2.3420
 6729TIP3    H241679   2.449   1.178  11.438  3.5012  0.7682  0.9284
 6730TIP3   OH241680   5.846   6.819  16.407 -0.4594  0.8647 -0.5900
 6730TIP3    H141681   5.769   6.858  16.448 -0.4741  0.3932 -0.1658
 6730TIP3    H241682   5.837   6.840  16.314 -1.5304  0.1100 -0.6762
 6731TIP3   OH241683   2.336   6.010  10.729  0.1848 -0.2048 -0.2061
 6731TIP3    H141684   2.314   5.934  10.783  1.6850  0.5212  1.5315
 6731TIP3    H241685   2.253   6.035  10.687 -1.3470 -0.1589  2.6322
 6732TIP3   OH241686   6.620   4.703   0.712  0.2109  0.0886 -0.0468
 6732TIP3    H141687   6.588   4.648   0.784 -2.6267  0.7544 -0.6597
 6732TIP3    H241688   6.605   4.793   0.741  0.9622  0.4294 -0.6680
 6733TIP3   OH241689   4.699   1.542  16.604 -0.4168  0.3998  0.5677
 6733TIP3    H141690   4.740   1.492  16.533 -1.3053 -0.1049  0.3941
 6733TIP3    H241691   4.687   1.630  16.568  0.7716  0.6540  0.7280
 6734TIP3   OH241692   1.164   1.167  12.811 -0.1606 -0.0011 -0.3409
 6734TIP3    H141693   1.158   1.136  12.901  0.0191 -0.9762 -0.6432
 6734TIP3    H241694   1.136   1.258  12.814 -1.4709 -0.3923  0.4940
 6735TIP3   OH241695   4.119   2.758  14.634 -0.6186 -0.4413 -0.0026
 6735TIP3    H141696   4.210   2.746  14.659  0.3774  0.8665 -2.6243
 6735TIP3    H241697   4.100   2.850  14.652 -1.1027 -0.4604 -0.3704
 6736TIP3   OH241698   3.226   5.495  16.446 -0.4283 -0.4310  0.5267
 6736TIP3    H141699   3.218   5.402  16.425  1.5888 -0.7057  0.7235
 6736TIP3    H241700   3.215   5.539  16.362  1.4466 -1.0880 -0.1238
 6737TIP3   OH241701   6.208   2.785   2.790 -0.2807 -0.5765 -0.2836
 6737TIP3    H141702   6.148   2.753   2.859 -0.9251 -2.0957 -1.4870
 6737TIP3    H241703   6.290   2.801   2.836 -0.6814 -1.5868  0.8575
 6738TIP3   OH241704   2.092   2.682   5.752  0.1563  1.0556  0.2678
 6738TIP3    H141705   2.012   2.736   5.751 -0.3870  0.3509 -2.0285
 6738TIP3    H241706   2.065   2.599   5.712  1.5536 -0.0307  1.4788
 6739TIP3   OH241707   3.580   2.390  16.754 -0.3328 -0.2646 -0.4246
 6739TIP3    H141708   3.496   2.408  16.796 -0.0220  0.4933 -0.1061
 6739TIP3    H241709   3.557   2.355  16.668 -0.9728 -0.0115 -0.3611
 6740TIP3   OH241710   3.050   0.508   5.339 -0.2849  0.2205 -0.2255
 6740TIP3    H141711   3.002   0.436   5.381 -0.7522  1.1147  0.8264
 6740TIP3    H241712   2.985   0.578   5.331  0.4164  0.8704 -0.3234
 6741TIP3   OH241713   5.925   5.583   6.150  0.7048 -0.0655 -0.1232
 6741TIP3    H141714   5.840   5.554   6.180  0.7607  0.6932  0.8227
 6741TIP3    H241715   5.963   5.629   6.225  1.8435 -0.1845 -0.6030
 6742TIP3   OH241716   1.792   5.272  10.942 -0.3055  0.0746  0.3461
 6742TIP3    H141717   1.735   5.290  10.867  1.1465 -0.0565 -0.8448
 6742TIP3    H241718   1.869   5.230  10.904  0.7770  0.6077  1.8462
 6743TIP3   OH241719   0.873   5.489   2.193  0.2800  0.1385  0.3944
 6743TIP3    H141720   0.901   5.575   2.163  2.3427 -0.3924  0.6578
 6743TIP3    H241721   0.869   5.496   2.288  1.4093 -0.3058  0.4844
 6744TIP3   OH241722   4.100   1.279  12.234  0.3652  0.0821 -0.0100
 6744TIP3    H141723   4.101   1.219  12.160  0.1284  0.6673 -0.4936
 6744TIP3    H241724   4.099   1.222  12.311  0.6808 -0.5300 -0.4524
 6745TIP3   OH241725   4.395   0.138   0.309 -0.1521 -0.3658  0.0536
 6745TIP3    H141726   4.474   0.189   0.328  0.0737 -0.1705 -1.3610
 6745TIP3    H241727   4.407   0.057   0.359 -0.0258  0.4863  1.4740
 6746TIP3   OH241728   6.347   2.671  15.701  0.4683  0.3373 -0.1004
 6746TIP3    H141729   6.402   2.609  15.749 -1.1528 -0.6804  0.5373
 6746TIP3    H241730   6.275   2.691  15.761  0.3550  1.9932 -0.7281
 6747TIP3   OH241731   5.191   0.743  15.418 -0.0421 -0.1823 -0.2652
 6747TIP3    H141732   5.176   0.723  15.510 -0.6310  0.6579 -0.1651
 6747TIP3    H241733   5.173   0.661  15.372 -0.7544 -0.3402  0.2777
 6748TIP3   OH241734   6.057   2.062  11.791  0.3943  0.4748 -0.3302
 6748TIP3    H141735   6.126   2.019  11.843 -0.5026 -1.7334 -0.8375
 6748TIP3    H241736   5.976   2.025  11.824 -0.2223 -1.0724 -3.2232
 6749TIP3   OH241737   4.257   1.366   3.746 -0.7014 -0.2169  0.1250
 6749TIP3    H141738   4.321   1.364   3.675 -0.1612 -0.8871  0.6129
 6749TIP3    H241739   4.268   1.452   3.786  0.4062 -0.5725  0.6426
 6750TIP3   OH241740   6.592   4.484   5.812 -0.9280  0.6541 -0.1893
 6750TIP3    H141741   6.613   4.573   5.839  0.2898  0.7500 -1.3541
 6750TIP3    H241742   6.640   4.428   5.874 -1.4857  0.7974  0.3810
 6751TIP3   OH241743   4.095   2.252  13.277 -0.3069  0.3918 -0.3694
 6751TIP3    H141744   4.177   2.206  13.292 -1.1727 -0.4588  2.2771
 6751TIP3    H241745   4.110   2.340  13.310 -0.9274 -0.2797  1.8674
 6752TIP3   OH241746   3.396   4.911   5.301 -0.3230 -0.0667  0.0424
 6752TIP3    H141747   3.341   4.988   5.285  0.4108  0.1591 -1.5023
 6752TIP3    H241748   3.365   4.878   5.386 -2.5434  0.3010 -0.5480
 6753TIP3   OH241749   0.468   6.812  16.657  0.3167 -0.1996 -0.4849
 6753TIP3    H141750   0.553   6.833  16.694  0.6598 -1.8020 -0.2653
 6753TIP3    H241751   0.409   6.805  16.732  0.4094 -0.8222 -0.4611
 6754TIP3   OH241752   3.639   6.690  12.473 -0.5817  0.1554 -0.2774
 6754TIP3    H141753   3.701   6.626  12.439 -0.1373  0.8481 -0.8126
 6754TIP3    H241754   3.554   6.645  12.471 -0.6418  0.2363 -2.6398
 6755TIP3   OH241755   3.037   3.784  11.110 -0.5693  0.4236  0.7282
 6755TIP3    H141756   2.955   3.823  11.141 -1.8294 -0.4622 -1.2591
 6755TIP3    H241757   3.079   3.853  11.060 -2.6393 -0.4204 -2.5089
 6756TIP3   OH241758   0.691   6.608  14.981  0.2160  0.1834  0.1787
 6756TIP3    H141759   0.601   6.638  14.984 -0.5635 -1.6008 -2.4346
 6756TIP3    H241760   0.743   6.687  14.965 -1.1904  0.8664 -1.1543
 6757TIP3   OH241761   1.670   4.719   5.069 -0.1632 -0.2633  0.1937
 6757TIP3    H141762   1.727   4.763   5.132 -1.5060 -0.3844  1.5564
 6757TIP3    H241763   1.695   4.756   4.984  1.5216  0.0952  0.7961
 6758TIP3   OH241764   3.285   3.500  15.371 -0.3713 -0.1526 -0.1609
 6758TIP3    H141765   3.203   3.551  15.374 -0.8547 -0.8302  3.8419
 6758TIP3    H241766   3.345   3.550  15.426  0.7030 -1.5252 -0.0539
 6759TIP3   OH241767   1.311   5.585   0.533 -0.0031  0.9349 -0.2296
 6759TIP3    H141768   1.385   5.587   0.595  1.0383  0.9035 -1.4211
 6759TIP3    H241769   1.312   5.495   0.498  1.4002  1.7523 -2.5194
 6760TIP3   OH241770   1.711   3.331  12.720  0.1386 -0.0457  0.0832
 6760TIP3    H141771   1.639   3.269  12.715 -2.1408  2.4059  0.2077
 6760TIP3    H241772   1.751   3.315  12.806 -0.4824 -1.1812  0.1817
 6761TIP3   OH241773   3.148   2.593   0.246 -0.1951 -0.0643 -0.4677
 6761TIP3    H141774   3.243   2.588   0.238 -0.1447  0.5547 -0.3385
 6761TIP3    H241775   3.120   2.643   0.170 -0.1926  1.6140  0.5784
 6762TIP3   OH241776   0.121   6.810  11.098  0.3211  0.5178  0.0594
 6762TIP3    H141777   0.146   6.831  11.008  0.9004 -0.7037 -0.0879
 6762TIP3    H241778   0.081   6.891  11.132 -1.0135  0.6277 -1.6674
 6763TIP3   OH241779   2.536   4.853   3.642  0.8504 -0.2441  0.0358
 6763TIP3    H141780   2.592   4.925   3.611  1.1611 -0.5218 -0.0604
 6763TIP3    H241781   2.551   4.783   3.579 -0.3748  0.0127 -0.5691
 6764TIP3   OH241782   4.568   1.075   2.861 -0.6204 -0.0406 -0.5164
 6764TIP3    H141783   4.649   1.124   2.849  0.9281 -2.6324 -1.5587
 6764TIP3    H241784   4.569   1.047   2.952 -1.3785  1.5518  0.0077
 6765TIP3   OH241785   3.776   3.153  16.777  0.1850 -0.0187 -0.2108
 6765TIP3    H141786   3.853   3.097  16.778  1.0282  1.0975  0.2088
 6765TIP3    H241787   3.801   3.227  16.720 -1.3270 -0.6152 -1.7452
 6766TIP3   OH241788   3.598   6.718   6.428  0.3304 -0.1198 -0.4077
 6766TIP3    H141789   3.566   6.768   6.353 -0.5072  0.1216  0.1052
 6766TIP3    H241790   3.559   6.760   6.504  1.6361  0.0084  0.2314
 6767TIP3   OH241791   1.258   0.483  10.434 -0.5207 -0.3067 -0.1249
 6767TIP3    H141792   1.184   0.423  10.429 -0.8835  0.0467  0.8035
 6767TIP3    H241793   1.312   0.447  10.505 -0.7494  0.4514  0.4487
 6768TIP3   OH241794   5.715   2.657   2.883 -0.0325 -0.1705 -0.1654
 6768TIP3    H141795   5.619   2.650   2.878 -0.0670  0.7050 -1.0903
 6768TIP3    H241796   5.735   2.652   2.976 -0.9141 -1.1046 -0.0113
 6769TIP3   OH241797   6.679   5.811  11.359 -0.0612  0.1473 -0.2527
 6769TIP3    H141798   6.761   5.812  11.310  0.8913  0.4573  1.2756
 6769TIP3    H241799   6.646   5.900  11.352 -0.2605  0.0292 -0.8508
 6770TIP3   OH241800   3.228   1.682   1.409  0.3531  0.5237 -0.6689
 6770TIP3    H141801   3.311   1.688   1.362  0.0104  1.1443 -1.2091
 6770TIP3    H241802   3.168   1.640   1.347  0.8296 -2.1106  0.5220
 6771TIP3   OH241803   3.265   2.712   4.515 -0.2954 -0.1448 -0.9402
 6771TIP3    H141804   3.260   2.807   4.530 -2.5981 -0.3400 -0.0346
 6771TIP3    H241805   3.320   2.680   4.587 -1.9861  0.2232  0.5896
 6772TIP3   OH241806   6.279   4.991  16.793  0.5998 -0.0431  0.3048
 6772TIP3    H141807   6.300   5.069  16.845  2.3618  0.3074 -0.8365
 6772TIP3    H241808   6.360   4.971  16.746 -0.3711 -1.4596 -0.8615
 6773TIP3   OH241809   3.422   4.797  15.727  0.2075  0.3515  0.2220
 6773TIP3    H141810   3.397   4.776  15.637 -0.8721 -1.3774  0.8632
 6773TIP3    H241811   3.346   4.843  15.763 -0.2320 -0.7976  0.8218
 6774TIP3   OH241812   2.156   3.330   6.593 -0.0199  0.1585 -0.9518
 6774TIP3    H141813   2.196   3.342   6.679 -0.7500  0.5458 -0.6556
 6774TIP3    H241814   2.208   3.384   6.534  1.4549 -1.3288 -1.0619
 6775TIP3   OH241815   4.593   4.004   1.750 -0.1382  0.5651  0.0319
 6775TIP3    H141816   4.532   3.957   1.692 -0.7542  0.6778  0.5796
 6775TIP3    H241817   4.665   4.030   1.692  1.5066 -3.1364  0.0915
 6776TIP3   OH241818   4.007   6.646   4.300  0.0744 -0.2123 -0.1086
 6776TIP3    H141819   4.084   6.671   4.248  0.4076  1.1894  0.9899
 6776TIP3    H241820   3.962   6.729   4.316 -0.6553 -0.7820  0.8288
 6777TIP3   OH241821   3.848   5.500   1.685 -0.3916  0.0905  0.0473
 6777TIP3    H141822   3.878   5.591   1.683  0.1754 -0.0751  0.5125
 6777TIP3    H241823   3.917   5.454   1.734 -0.4585 -0.6647 -0.5564
 6778TIP3   OH241824   6.454   6.862  16.127  0.2515  0.1954 -0.0361
 6778TIP3    H141825   6.393   6.825  16.063  1.0561  2.3763 -2.2303
 6778TIP3    H241826   6.400   6.883  16.203 -0.9591 -1.4351 -0.3746
 6779TIP3   OH241827   2.936   3.305  12.848 -0.0130  0.4227 -0.2656
 6779TIP3    H141828   2.954   3.249  12.924 -1.1883  0.9801  0.4514
 6779TIP3    H241829   3.023   3.324  12.811  0.4407 -1.6033 -0.3574
 6780TIP3   OH241830   4.957   1.118   1.622 -0.1722  0.1967  0.8765
 6780TIP3    H141831   4.874   1.141   1.580 -1.2060 -0.0446  2.7190
 6780TIP3    H241832   5.020   1.182   1.588 -1.4211  1.2780  0.5445
 6781TIP3   OH241833   0.040   5.364   0.294 -0.3947  0.0762 -0.2001
 6781TIP3    H141834   0.000   5.308   0.228  0.2097  1.4943 -1.8448
 6781TIP3    H241835   0.012   5.452   0.270  1.6947  0.8638  0.0579
 6782TIP3   OH241836   5.360   1.584  15.781 -0.2272  0.0066  0.0936
 6782TIP3    H141837   5.385   1.632  15.860 -0.2991  0.3019 -0.0593
 6782TIP3    H241838   5.433   1.525  15.764 -0.5106 -0.5413  0.7619
 6783TIP3   OH241839   2.656   0.474   0.762 -0.0148  0.1654 -0.2634
 6783TIP3    H141840   2.748   0.451   0.764  0.2060  0.8253 -1.5838
 6783TIP3    H241841   2.610   0.390   0.755  0.4520 -0.1863  0.8109
 6784TIP3   OH241842   1.955   1.292  14.105 -0.6488  0.4873  0.1052
 6784TIP3    H141843   1.944   1.310  14.012 -0.0781 -1.3756 -0.3664
 6784TIP3    H241844   2.004   1.210  14.108 -0.6929  0.4824  2.0515
 6785TIP3   OH241845   4.485   5.916   0.449 -0.1952  0.7616  0.0855
 6785TIP3    H141846   4.544   5.931   0.375  1.0722 -1.2187  0.6292
 6785TIP3    H241847   4.450   5.828   0.434  0.7186 -0.0157  2.2358
 6786TIP3   OH241848   3.385   6.779   5.538 -0.6188  0.1457  0.6934
 6786TIP3    H141849   3.461   6.837   5.528  0.5753 -0.9009  2.7572
 6786TIP3    H241850   3.361   6.755   5.449  0.2389  2.0433 -0.1085
 6787TIP3   OH241851   4.675   0.535  13.919  0.3407  0.2068 -0.2111
 6787TIP3    H141852   4.584   0.519  13.944  0.5119  0.6571  0.7333
 6787TIP3    H241853   4.723   0.461  13.956  0.1268 -1.1521 -2.4485
 6788TIP3   OH241854   6.758   0.932   2.891  0.7621  0.4777  0.1139
 6788TIP3    H141855   6.672   0.968   2.912  0.7014  0.8033 -0.6699
 6788TIP3    H241856   6.820   0.996   2.926  0.6777  0.5781  0.0786
 6789TIP3   OH241857   6.233   2.859  11.579  0.3387 -0.6748 -0.3903
 6789TIP3    H141858   6.295   2.803  11.531 -0.6666 -1.0188 -1.3328
 6789TIP3    H241859   6.202   2.922  11.514 -2.0113 -1.9386 -0.5871
 6790TIP3   OH241860   3.431   6.420   3.342  0.6181 -0.5156 -0.4138
 6790TIP3    H141861   3.466   6.496   3.296 -0.0426 -0.4446 -0.8163
 6790TIP3    H241862   3.482   6.415   3.423  1.2345 -0.1512 -0.7745
 6791TIP3   OH241863   2.071   6.377  14.409  0.2300  0.1074 -0.3232
 6791TIP3    H141864   1.991   6.344  14.451  0.1786  0.6518  0.0212
 6791TIP3    H241865   2.090   6.459  14.455  1.1203 -0.1281 -0.2365
 6792TIP3   OH241866   0.600   2.717  14.400 -0.4720 -0.7048  0.3531
 6792TIP3    H141867   0.594   2.777  14.474 -0.5281 -0.0068 -0.2062
 6792TIP3    H241868   0.668   2.655  14.424  0.9448  0.7207  0.1571
 6793TIP3   OH241869   4.541   6.792   3.405  0.2012 -0.0770  0.5214
 6793TIP3    H141870   4.546   6.801   3.500  2.1882 -1.2224  0.5990
 6793TIP3    H241871   4.581   6.872   3.371  1.0389 -0.4085  0.7096
 6794TIP3   OH241872   5.860   1.439   6.014 -0.1771 -0.3022 -0.1516
 6794TIP3    H141873   5.828   1.407   5.930  1.3495  0.3955 -1.0314
 6794TIP3    H241874   5.781   1.451   6.067 -1.2792  0.5222 -1.9143
 6795TIP3   OH241875   0.721   1.281   1.763  0.2544 -0.5730  0.2857
 6795TIP3    H141876   0.707   1.259   1.671  1.0476  0.5373 -0.1198
 6795TIP3    H241877   0.670   1.216   1.811  1.0646 -2.1374 -0.8895
 6796TIP3   OH241878   4.235   4.385  16.691 -0.2267 -0.3821  0.3553
 6796TIP3    H141879   4.259   4.448  16.622 -0.4704 -1.0876 -0.3845
 6796TIP3    H241880   4.161   4.337  16.655 -0.2406 -0.8866  1.0430
 6797TIP3   OH241881   0.108   2.564   0.294  0.2777 -0.9665 -0.1516
 6797TIP3    H141882   0.105   2.470   0.314 -1.1221 -0.9212 -0.0528
 6797TIP3    H241883   0.138   2.605   0.376 -0.5464 -1.2127  0.2819
 6798TIP3   OH241884   2.135   0.149   2.373  0.3807  0.4392  0.7657
 6798TIP3    H141885   2.081   0.083   2.331  1.8238 -0.0259 -0.4565
 6798TIP3    H241886   2.104   0.233   2.337  1.8862  0.0383 -1.7929
 6799TIP3   OH241887   4.754   6.090   2.490  0.7271 -0.4811  0.1912
 6799TIP3    H141888   4.799   6.067   2.408 -0.1986 -0.8674 -0.2213
 6799TIP3    H241889   4.792   6.031   2.555  0.9962 -0.6371 -0.0997
 6800TIP3   OH241890   4.645   0.040   4.784 -0.3452 -0.0177 -0.2283
 6800TIP3    H141891   4.660   0.127   4.746 -0.2553  0.4399  0.8437
 6800TIP3    H241892   4.732   0.007   4.804 -0.4125 -0.1292 -0.1215
 6801TIP3   OH241893   4.762   3.352  15.586  0.2620  0.3904  0.5855
 6801TIP3    H141894   4.804   3.341  15.672  0.5004 -0.5924  0.3541
 6801TIP3    H241895   4.765   3.265  15.546 -1.7751  0.3456  0.4375
 6802TIP3   OH241896   3.577   3.742  14.257 -0.1225 -0.1473  0.2067
 6802TIP3    H141897   3.608   3.721  14.169 -1.0126  0.6182 -0.3098
 6802TIP3    H241898   3.611   3.830  14.275 -0.7766  0.1120  0.2125
 6803TIP3   OH241899   3.429   3.397  14.649  0.6113 -0.1866 -0.1432
 6803TIP3    H141900   3.459   3.472  14.598  0.9292 -1.4641 -1.9611
 6803TIP3    H241901   3.500   3.381  14.711  0.0060  1.6997  1.1220
 6804TIP3   OH241902   5.169   1.905   5.314 -0.1977  0.0358 -0.2001
 6804TIP3    H141903   5.090   1.881   5.265 -0.6917  1.5309 -0.1885
 6804TIP3    H241904   5.137   1.964   5.383  0.9579  0.9059 -0.3821
 6805TIP3   OH241905   1.233   3.085  15.029 -0.1596  0.2821 -0.4122
 6805TIP3    H141906   1.194   3.023  15.091  0.0672  0.7291  0.1927
 6805TIP3    H241907   1.284   3.030  14.969 -1.6238 -0.3016 -1.1642
 6806TIP3   OH241908   4.246   2.052   0.420 -0.3513 -0.1125  0.5919
 6806TIP3    H141909   4.262   2.002   0.340 -1.4040  0.8659 -0.2709
 6806TIP3    H241910   4.280   2.139   0.402 -4.4213  1.4835 -0.6113
 6807TIP3   OH241911   2.736   0.503  11.045 -0.1550 -0.5584  0.0526
 6807TIP3    H141912   2.662   0.483  11.103 -0.0551 -0.5796  0.1732
 6807TIP3    H241913   2.807   0.525  11.105 -0.6364  1.5756 -0.0951
 6808TIP3   OH241914   5.420   0.927   3.442 -0.2179  0.1978  0.6182
 6808TIP3    H141915   5.475   0.988   3.492  0.8174 -0.9724  0.9626
 6808TIP3    H241916   5.347   0.907   3.500 -1.6001  2.5048 -0.2008
 6809TIP3   OH241917   0.545   4.822  14.377  0.6538 -0.4285 -0.4884
 6809TIP3    H141918   0.501   4.875  14.311  0.5031 -0.7751 -0.6667
 6809TIP3    H241919   0.570   4.742  14.331 -1.0273 -1.4555  0.2956
 6810TIP3   OH241920   3.077   4.146  13.626 -0.0896 -0.1319  0.3047
 6810TIP3    H141921   3.131   4.150  13.548 -1.1380  2.1509 -0.4076
 6810TIP3    H241922   3.132   4.105  13.692  1.4219 -0.5545 -1.1559
 6811TIP3   OH241923   0.379   3.139  16.147 -0.3618  0.2244 -0.0645
 6811TIP3    H141924   0.362   3.073  16.080  2.3433  0.6409 -1.3149
 6811TIP3    H241925   0.298   3.191  16.151 -0.5072  0.4787 -3.4108
 6812TIP3   OH241926   5.716   6.832   2.230 -0.4173  0.0079  0.2195
 6812TIP3    H141927   5.808   6.861   2.233 -0.4778  0.4698 -1.3293
 6812TIP3    H241928   5.720   6.740   2.206 -0.3265 -0.5172  2.0963
 6813TIP3   OH241929   3.149   2.612   4.054 -0.0722  0.3335  0.3730
 6813TIP3    H141930   3.123   2.652   3.971 -0.4402 -0.6808 -0.0199
 6813TIP3    H241931   3.132   2.679   4.120  0.6544  1.3267 -0.4142
 6814TIP3   OH241932   4.419   3.216  13.539  0.3873 -0.1828  0.0825
 6814TIP3    H141933   4.367   3.272  13.596 -1.8082 -0.1668 -1.7903
 6814TIP3    H241934   4.404   3.127  13.573 -1.4383 -0.2447 -0.7448
 6815TIP3   OH241935   3.062   0.801   2.060 -0.1409 -0.6626 -0.2881
 6815TIP3    H141936   3.136   0.790   2.000 -1.2202 -0.0569 -1.7972
 6815TIP3    H241937   3.046   0.714   2.095  1.5984 -0.7116  0.4828
 6816TIP3   OH241938   4.309   1.586   0.944  0.0253 -0.2064  0.0575
 6816TIP3    H141939   4.399   1.566   0.918  0.1750 -0.1877  0.5502
 6816TIP3    H241940   4.310   1.580   1.039 -0.3046  0.5913  0.1193
 6817TIP3   OH241941   6.545   2.590  14.411  0.2618 -0.3767 -0.0911
 6817TIP3    H141942   6.451   2.608  14.415  0.3558  0.2312 -0.4862
 6817TIP3    H241943   6.551   2.494  14.417 -0.3620 -0.4049  0.1864
 6818TIP3   OH241944   4.255   1.479  16.042  0.7292  0.1042  0.1789
 6818TIP3    H141945   4.248   1.506  16.133  0.2835  0.4909  0.0304
 6818TIP3    H241946   4.237   1.558  15.992  0.2288 -0.2811 -0.2523
 6819TIP3   OH241947   6.338   2.740   0.349 -0.0745 -0.0820 -0.3752
 6819TIP3    H141948   6.425   2.705   0.328  0.5936  0.0772  1.8906
 6819TIP3    H241949   6.291   2.666   0.388  0.6723  0.8742  2.6030
 6820TIP3   OH241950   0.635   6.317  14.467 -0.1260 -0.4408 -0.2427
 6820TIP3    H141951   0.728   6.318  14.492 -0.0462 -1.2244 -0.4824
 6820TIP3    H241952   0.599   6.396  14.507  0.5282 -0.4054  0.3029
 6821TIP3   OH241953   0.690   2.573  15.621  0.4664  0.4150 -0.5368
 6821TIP3    H141954   0.679   2.478  15.619 -1.7943  0.5403  1.3756
 6821TIP3    H241955   0.758   2.588  15.687 -1.7174  0.1233  1.9692
 6822TIP3   OH241956   5.335   0.493   2.038  0.2483  0.1753  0.0791
 6822TIP3    H141957   5.247   0.530   2.028 -0.6402 -0.9256  3.0204
 6822TIP3    H241958   5.383   0.558   2.089 -0.0086 -0.7610  1.5644
 6823TIP3   OH241959   6.557   1.803  14.049  0.2385  0.2796  0.0345
 6823TIP3    H141960   6.620   1.830  13.982  0.5028 -1.0898 -0.3068
 6823TIP3    H241961   6.485   1.866  14.042  0.6466  0.6512 -0.9568
 6824TIP3   OH241962   3.626   1.866  11.782 -0.5473  0.0583 -0.2758
 6824TIP3    H141963   3.617   1.861  11.687 -0.0834 -0.1285 -0.3111
 6824TIP3    H241964   3.687   1.796  11.804 -0.4749  0.2493  0.1356
 6825TIP3   OH241965   2.492   6.169  13.411  0.2172 -0.3177  0.2487
 6825TIP3    H141966   2.579   6.159  13.372  0.2809  0.2242  0.2390
 6825TIP3    H241967   2.448   6.086  13.393  0.7488 -0.6146  0.2962
 6826TIP3   OH241968   6.500   3.045  15.558 -0.2077  0.3864  0.0745
 6826TIP3    H141969   6.456   3.125  15.586 -0.1277  0.1390  0.9314
 6826TIP3    H241970   6.593   3.063  15.571 -0.0851  0.6321 -1.0174
 6827TIP3   OH241971   5.533   3.409   2.468 -0.0534  0.4122 -0.1354
 6827TIP3    H141972   5.588   3.416   2.390  1.1138 -1.2965  0.4895
 6827TIP3    H241973   5.542   3.318   2.497 -1.8333  0.5355  1.0175
 6828TIP3   OH241974   0.056   0.364   0.298 -0.4462 -0.1050  0.1596
 6828TIP3    H141975   0.022   0.426   0.234 -0.0527 -0.0348  0.0149
 6828TIP3    H241976   0.079   0.286   0.246 -2.7849 -1.1557  0.5875
 6829TIP3   OH241977   3.756   5.131  12.959 -0.3903  0.4374 -0.8731
 6829TIP3    H141978   3.703   5.208  12.980  0.5703  1.1140 -0.8598
 6829TIP3    H241979   3.726   5.103  12.872  0.0181  1.5257 -1.3823
 6830TIP3   OH241980   5.658   6.283  15.613  0.1229 -0.2904 -0.2904
 6830TIP3    H141981   5.653   6.254  15.522  1.9970 -2.0057  0.0869
 6830TIP3    H241982   5.702   6.212  15.658  0.2434  1.0207  1.7584
 6831TIP3   OH241983   2.778   1.767  14.311  0.5342 -0.1127  0.0045
 6831TIP3    H141984   2.795   1.859  14.291  0.9004 -0.5713 -2.1274
 6831TIP3    H241985   2.691   1.750  14.275 -1.2937  0.2569  3.8020
 6832TIP3   OH241986   3.244   1.220  10.620  0.4492 -0.6371  0.3404
 6832TIP3    H141987   3.198   1.245  10.700  2.1011 -1.6248  1.6787
 6832TIP3    H241988   3.320   1.278  10.618  0.5844 -0.8308 -0.3532
 6833TIP3   OH241989   2.183   6.317  11.815  0.0267  0.0103  0.0274
 6833TIP3    H141990   2.187   6.396  11.870 -1.1799 -0.4184  0.7740
 6833TIP3    H241991   2.168   6.350  11.727 -0.5911  0.6225  0.3530
 6834TIP3   OH241992   0.356   1.263   3.574  0.5031  0.1813  0.4268
 6834TIP3    H141993   0.365   1.290   3.665  1.3475 -1.8487  1.0148
 6834TIP3    H241994   0.398   1.177   3.571 -0.2289 -0.1547 -1.7026
 6835TIP3   OH241995   1.629   5.338  15.648 -0.1467  0.3495  0.1691
 6835TIP3    H141996   1.694   5.378  15.589 -0.6424  1.3433  0.2812
 6835TIP3    H241997   1.554   5.321  15.592 -0.2321  0.3001  0.2986
 6836TIP3   OH241998   3.512   0.239   2.539 -0.5545  0.0879 -0.0040
 6836TIP3    H141999   3.557   0.281   2.466  0.2831  1.5221  1.2925
 6836TIP3    H242000   3.514   0.145   2.517  3.1586  0.0223 -0.0153
 6837TIP3   OH242001   3.043   5.796  11.709  0.6331 -0.1414  0.2266
 6837TIP3    H142002   2.957   5.832  11.688  0.4508 -0.3821  0.5568
 6837TIP3    H242003   3.050   5.717  11.655  1.8014  1.3378 -1.9399
 6838TIP3   OH242004   6.695   6.109  14.679  0.0928  0.3169 -0.5096
 6838TIP3    H142005   6.636   6.164  14.628 -0.4813 -1.6412 -2.0815
 6838TIP3    H242006   6.638   6.059  14.737  0.4650  0.2707 -0.1736
 6839TIP3   OH242007   2.424   4.058   2.290  0.0661  0.1228  0.1593
 6839TIP3    H142008   2.371   4.133   2.316 -1.6720 -0.6069 -1.0902
 6839TIP3    H242009   2.415   3.996   2.363  0.2692  0.5204  0.5241
 6840TIP3   OH242010   6.105   4.504  12.954  0.0192 -0.3483  0.1167
 6840TIP3    H142011   6.184   4.512  12.902 -0.7457 -0.7967 -1.1569
 6840TIP3    H242012   6.095   4.590  12.996 -0.6919  0.9316 -2.4798
 6841TIP3   OH242013   3.054   1.618   1.923  0.2705  0.0180  0.5116
 6841TIP3    H142014   3.110   1.575   1.987 -0.6209 -0.3018  1.1003
 6841TIP3    H242015   3.107   1.624   1.844  1.8544  1.5255  1.6121
 6842TIP3   OH242016   0.510   0.855   4.061 -0.7578 -0.0728 -0.4550
 6842TIP3    H142017   0.542   0.783   4.116 -0.8647 -0.4220 -0.8495
 6842TIP3    H242018   0.447   0.901   4.117  2.1802  2.1690  1.2863
 6843TIP3   OH242019   4.922   0.008  11.332 -0.1724 -0.3325  0.0747
 6843TIP3    H142020   4.920  -0.087  11.321 -1.0037 -0.4236  0.8724
 6843TIP3    H242021   4.970   0.021  11.415  2.4214  0.1166 -1.3758
 6844TIP3   OH242022   3.727   4.316   4.520 -0.0977 -0.0940  0.6995
 6844TIP3    H142023   3.648   4.277   4.483  0.3994  0.6467 -1.2959
 6844TIP3    H242024   3.799   4.274   4.472  0.5295  1.7573 -0.0761
 6845TIP3   OH242025   0.907   6.262  16.565 -0.5144 -0.1391 -0.2059
 6845TIP3    H142026   0.820   6.226  16.545 -0.1399 -1.5443  0.5860
 6845TIP3    H242027   0.910   6.266  16.660  0.5531 -0.8151 -0.1945
 6846TIP3   OH242028   4.901   3.393   2.547  0.7958  0.2592 -0.2481
 6846TIP3    H142029   4.966   3.433   2.605 -0.7199  0.3845  1.4545
 6846TIP3    H242030   4.822   3.388   2.600 -0.2363 -1.1016 -1.8297
 6847TIP3   OH242031   4.546   1.341   4.756  0.9762 -0.0260 -0.6136
 6847TIP3    H142032   4.509   1.253   4.754 -0.0137  0.3814 -1.1356
 6847TIP3    H242033   4.474   1.396   4.787  2.2349  0.3290  1.9580
 6848TIP3   OH242034   6.782   3.218   4.391  0.2204  0.0234 -0.2020
 6848TIP3    H142035   6.768   3.248   4.481  0.7291  0.8009 -0.3788
 6848TIP3    H242036   6.731   3.137   4.385  0.5334 -0.2684  0.9189
 6849TIP3   OH242037   2.793   6.463  16.500  0.4916  0.0934  0.1542
 6849TIP3    H142038   2.848   6.442  16.575 -1.5023 -0.7593  1.4632
 6849TIP3    H242039   2.735   6.388  16.490 -1.7633  1.7077  0.1451
 6850TIP3   OH242040   4.453   3.838   3.911 -0.1259 -0.0615  0.1305
 6850TIP3    H142041   4.388   3.892   3.867  0.4300 -0.8286 -1.7436
 6850TIP3    H242042   4.417   3.749   3.908 -0.2053 -0.1045  1.5486
 6851TIP3   OH242043   4.197   6.636   5.560 -0.4790 -0.5430 -0.0677
 6851TIP3    H142044   4.282   6.593   5.559 -0.2205 -0.2431  2.2570
 6851TIP3    H242045   4.137   6.569   5.593 -1.0104 -0.5196 -0.9523
 6852TIP3   OH242046   1.454   4.105  15.792  0.3310  0.2980  0.2831
 6852TIP3    H142047   1.445   4.023  15.745 -1.1171  1.4407 -1.5744
 6852TIP3    H242048   1.384   4.102  15.858 -0.8966  0.7069 -0.9364
 6853TIP3   OH242049   0.648   4.085   4.233  0.6755 -0.5556 -0.6880
 6853TIP3    H142050   0.610   4.149   4.174  1.5237  1.2674  0.6589
 6853TIP3    H242051   0.677   4.136   4.309  2.0619 -2.4292  0.1190
 6854TIP3   OH242052   5.563   2.859  11.428 -0.7127  0.5351 -0.3936
 6854TIP3    H142053   5.582   2.863  11.334  0.9037  1.4816 -0.0791
 6854TIP3    H242054   5.563   2.951  11.456  0.9705  0.2062  0.8744
 6855TIP3   OH242055   4.178   1.999  17.091 -0.3089  0.3962  0.4885
 6855TIP3    H142056   4.219   1.998  17.004 -0.8914 -0.4884  0.2193
 6855TIP3    H242057   4.181   2.091  17.118  0.0608  0.6438 -0.3791
 6856TIP3   OH242058   3.490   2.533  11.996  1.1875 -0.2905 -0.6360
 6856TIP3    H142059   3.482   2.472  12.070 -1.3253  0.9043  0.1903
 6856TIP3    H242060   3.533   2.610  12.034 -1.3331  0.8767  0.0720
 6857TIP3   OH242061   5.169   1.844  14.864  0.6253 -0.1515 -0.3325
 6857TIP3    H142062   5.152   1.847  14.958 -0.7515  0.2484 -0.5725
 6857TIP3    H242063   5.169   1.750  14.843  0.9608 -0.2445  0.0510
 6858TIP3   OH242064   3.549   3.588  14.487  0.0979  0.1432 -0.3388
 6858TIP3    H142065   3.534   3.622  14.399 -0.9368 -0.1207 -0.2780
 6858TIP3    H242066   3.616   3.645  14.524  0.4111  0.3650 -1.2332
 6859TIP3   OH242067   2.162   6.517  12.341 -0.3438 -0.1020 -0.3692
 6859TIP3    H142068   2.183   6.465  12.419  0.4199 -0.3089 -0.6946
 6859TIP3    H242069   2.081   6.479  12.308 -1.6751  1.1463  1.3219
 6860TIP3   OH242070   6.851   2.973   0.122 -0.4629  0.1731  0.9980
 6860TIP3    H142071   6.807   2.955   0.205 -0.5614 -1.0425  0.7023
 6860TIP3    H242072   6.902   2.894   0.104 -0.8364  0.2171 -0.3394
 6861TIP3   OH242073   1.330   5.525   5.282 -0.3610  0.3977 -0.4925
 6861TIP3    H142074   1.259   5.507   5.344 -0.0822 -2.1037 -0.8073
 6861TIP3    H242075   1.287   5.527   5.197 -0.1930 -0.1730 -0.5921
 6862TIP3   OH242076   6.294   0.945  11.191 -0.7759  0.3451  0.3570
 6862TIP3    H142077   6.236   0.902  11.128 -1.7213  0.2095  1.2924
 6862TIP3    H242078   6.369   0.973  11.138 -1.1107 -0.5605 -0.6633
 6863TIP3   OH242079   6.440   1.584   0.135 -0.4644 -0.4981 -0.2908
 6863TIP3    H142080   6.426   1.667   0.180  0.2760 -0.9092  0.7219
 6863TIP3    H242081   6.401   1.518   0.192 -0.0356 -0.9700 -0.5288
 6864TIP3   OH242082   0.229   6.586   0.426  0.3399  0.6487  0.3053
 6864TIP3    H142083   0.309   6.534   0.432  0.0959  0.1125 -0.7782
 6864TIP3    H242084   0.241   6.657   0.489  0.5594 -0.8758  2.0495
 6865TIP3   OH242085   2.114   5.362   6.276 -0.2236 -0.3872 -0.4083
 6865TIP3    H142086   2.201   5.398   6.291 -0.1815 -0.0827 -1.2657
 6865TIP3    H242087   2.081   5.340   6.363  0.6388 -0.3497 -0.0622
 6866TIP3   OH242088   4.229   0.276   4.761 -0.3311 -0.2756 -0.6125
 6866TIP3    H142089   4.240   0.230   4.678  0.8301 -0.6464 -0.2653
 6866TIP3    H242090   4.229   0.206   4.827 -0.1888  0.0925 -0.2157
 6867TIP3   OH242091   5.032   4.453   5.723  0.2615 -0.3889 -0.3286
 6867TIP3    H142092   5.030   4.507   5.802 -0.9661 -0.1220 -0.5271
 6867TIP3    H242093   4.944   4.460   5.687  0.5819 -1.1517 -1.2943
 6868TIP3   OH242094   2.645   0.868  15.098 -0.6432 -0.2861 -0.0897
 6868TIP3    H142095   2.616   0.819  15.021 -1.0645 -0.1099 -0.0428
 6868TIP3    H242096   2.692   0.803  15.151  0.4511 -0.2025 -0.9189
 6869TIP3   OH242097   3.942   4.041   5.064 -0.0459  0.4876  0.6487
 6869TIP3    H142098   3.961   4.019   5.155  0.0902  0.5720  0.6409
 6869TIP3    H242099   3.902   4.128   5.068  0.0611  0.5379  0.6175
 6870TIP3   OH242100   0.387   0.663  12.718  0.2008  0.0877  0.3128
 6870TIP3    H142101   0.304   0.689  12.757 -0.4718 -0.0816 -0.9667
 6870TIP3    H242102   0.436   0.744  12.708 -1.1113  0.6698 -1.8800
 6871TIP3   OH242103   2.864   0.308   1.184 -0.0516 -0.0194 -0.3629
 6871TIP3    H142104   2.860   0.401   1.204  1.4743  0.1036 -0.5146
 6871TIP3    H242105   2.853   0.264   1.268  2.3478  0.3941  0.2192
 6872TIP3   OH242106   3.443   5.015   4.656  0.1493 -0.5636  0.1616
 6872TIP3    H142107   3.477   5.027   4.744 -1.7494 -0.5924  0.9529
 6872TIP3    H242108   3.507   4.959   4.613  1.9405  0.7491  0.9695
 6873TIP3   OH242109   0.883   1.345  12.766 -0.2196 -0.2049  0.1352
 6873TIP3    H142110   0.973   1.377  12.755  0.1760 -1.9020 -2.1980
 6873TIP3    H242111   0.831   1.425  12.774  1.4856  0.8183  1.9427
 6874TIP3   OH242112   0.863   6.251   1.958  0.8739 -0.0759  0.4484
 6874TIP3    H142113   0.776   6.284   1.981  0.0440 -0.8805 -1.3316
 6874TIP3    H242114   0.886   6.299   1.879  1.6077 -0.5994  0.3380
 6875TIP3   OH242115   4.440   4.332  12.002 -0.5388 -0.2302  0.5307
 6875TIP3    H142116   4.472   4.382  12.077 -0.5551 -0.3944  0.6480
 6875TIP3    H242117   4.502   4.351  11.932 -1.3372  1.0898  0.1456
 6876TIP3   OH242118   3.353   2.702   3.745  0.3402  0.6764  0.4432
 6876TIP3    H142119   3.392   2.666   3.666 -0.1210  0.5253  0.2825
 6876TIP3    H242120   3.426   2.709   3.807  0.1074 -2.4631  1.2079
 6877TIP3   OH242121   2.830   3.045  11.681 -0.8344  0.1166 -0.3061
 6877TIP3    H142122   2.750   3.091  11.707  0.3247  0.9862  2.0231
 6877TIP3    H242123   2.885   3.112  11.643 -0.8202 -0.2855 -1.0144
 6878TIP3   OH242124   0.684   4.532  13.407  0.0006  1.1033  0.1532
 6878TIP3    H142125   0.677   4.460  13.471 -0.9547  1.2287  0.2052
 6878TIP3    H242126   0.703   4.488  13.324  1.0752  0.9251  0.4826
 6879TIP3   OH242127   3.880   1.578  11.047 -0.1498  0.3906  0.1617
 6879TIP3    H142128   3.833   1.587  10.963  2.1829  0.6727 -1.1902
 6879TIP3    H242129   3.950   1.516  11.029  0.8992  1.0674  1.6936
 6880TIP3   OH242130   2.778   5.874  14.588  0.0082 -0.7328  0.5883
 6880TIP3    H142131   2.697   5.922  14.606  0.9044  0.5506  1.4352
 6880TIP3    H242132   2.801   5.898  14.498 -0.4804 -1.0087  0.3862
 6881TIP3   OH242133   5.480   1.362  14.024 -0.0025  0.1457  0.3239
 6881TIP3    H142134   5.471   1.444  13.976 -0.5932  0.8191  1.5289
 6881TIP3    H242135   5.435   1.297  13.970  0.5809  0.5727 -0.7007
 6882TIP3   OH242136   6.298   6.196  10.823 -0.1112 -0.5687  0.2792
 6882TIP3    H142137   6.311   6.247  10.903 -0.2334  0.2539 -0.2118
 6882TIP3    H242138   6.204   6.201  10.806  0.0431  0.1176 -0.4530
 6883TIP3   OH242139   6.260   0.527  16.145 -0.8894  0.3912  0.1727
 6883TIP3    H142140   6.219   0.468  16.209 -1.3195 -0.9203 -1.2680
 6883TIP3    H242141   6.192   0.590  16.122 -1.4585 -0.4985 -0.6376
 6884TIP3   OH242142   3.145   5.557   0.114  0.3361  0.0035  0.1855
 6884TIP3    H142143   3.064   5.609   0.114  1.7345  2.3433 -1.2874
 6884TIP3    H242144   3.129   5.489   0.180 -2.5863  0.7292  0.3674
 6885TIP3   OH242145   2.512   0.407   5.097  0.5353 -0.6069 -0.0504
 6885TIP3    H142146   2.512   0.488   5.046  1.0953 -1.0067 -0.6944
 6885TIP3    H242147   2.454   0.348   5.048 -1.2477 -0.0838  1.2906
 6886TIP3   OH242148   0.297   0.264  14.929 -0.6274 -0.0379  0.5749
 6886TIP3    H142149   0.334   0.210  14.859 -1.1915 -0.1569  0.3610
 6886TIP3    H242150   0.364   0.330  14.947  0.1657 -0.9443  0.9974
 6887TIP3   OH242151   6.700   1.169   1.764  0.1113  0.7354  0.3084
 6887TIP3    H142152   6.716   1.082   1.728  1.5236  0.5930  1.1963
 6887TIP3    H242153   6.755   1.173   1.842 -0.4833  2.1702  0.6891
 6888TIP3   OH242154   0.251   6.608  16.429 -0.3543  0.0207 -0.2812
 6888TIP3    H142155   0.323   6.655  16.388  0.5577 -0.6539  0.5117
 6888TIP3    H242156   0.268   6.613  16.523 -0.1815 -1.8986 -0.1602
 6889TIP3   OH242157   6.632   0.346   5.438  0.2157 -0.0391 -0.0982
 6889TIP3    H142158   6.665   0.342   5.528  1.1083 -0.7066 -0.4399
 6889TIP3    H242159   6.545   0.305   5.442 -0.2798  1.0578  0.6766
 6890TIP3   OH242160   4.877   5.277   6.425 -0.3113  0.0593  0.4133
 6890TIP3    H142161   4.940   5.294   6.355 -0.4668 -0.9121  0.0272
 6890TIP3    H242162   4.899   5.190   6.456 -1.8472 -0.5652 -0.1545
 6891TIP3   OH242163   3.269   3.510   5.663 -0.0381  0.9105  0.5776
 6891TIP3    H142164   3.349   3.527   5.713  1.4358  0.2622 -1.4194
 6891TIP3    H242165   3.264   3.414   5.658  0.2505  0.9457 -1.0280
 6892TIP3   OH242166   3.790   1.628   3.668 -0.6471 -0.1428 -0.4761
 6892TIP3    H142167   3.877   1.618   3.630  0.7084  1.7961  1.8045
 6892TIP3    H242168   3.763   1.539   3.691  1.9036 -0.6064  1.0535
 6893TIP3   OH242169   5.531   3.551  13.631  0.4692 -0.0902 -0.4488
 6893TIP3    H142170   5.535   3.486  13.562  0.8549 -1.5818  0.9231
 6893TIP3    H242171   5.611   3.539  13.681  0.2824  1.0679  0.1734
 6894TIP3   OH242172   2.084   3.100  11.744 -0.1675  0.0584 -0.4335
 6894TIP3    H142173   2.166   3.107  11.794 -0.2958  1.7458 -0.4115
 6894TIP3    H242174   2.094   3.163  11.673 -1.6065  0.5889 -0.1979
 6895TIP3   OH242175   2.185   1.236  16.155 -0.8958  0.5430  0.1645
 6895TIP3    H142176   2.275   1.266  16.139 -1.4310  1.0973 -2.1415
 6895TIP3    H242177   2.190   1.190  16.239  1.4983  0.6877  0.1799
 6896TIP3   OH242178   4.115   4.974   1.672 -0.1002  0.4933  0.5537
 6896TIP3    H142179   4.172   4.992   1.597  0.1645  1.9543  1.0837
 6896TIP3    H242180   4.128   4.880   1.688  2.8296  0.8934  1.1547
 6897TIP3   OH242181   5.199   3.925  13.083 -0.1986  0.3977  0.2337
 6897TIP3    H142182   5.203   3.991  13.013  0.1118 -0.1100 -0.2308
 6897TIP3    H242183   5.272   3.948  13.141 -0.1853  0.5514  0.1589
 6898TIP3   OH242184   3.826   0.348   1.484  0.1074  0.0606 -0.2389
 6898TIP3    H142185   3.818   0.376   1.575  2.7559 -0.4823  0.2446
 6898TIP3    H242186   3.829   0.253   1.487 -0.1359  0.0190 -0.9456
 6899TIP3   OH242187   0.029   6.834   2.844 -0.2604  0.2164  0.7192
 6899TIP3    H142188  -0.019   6.761   2.804  1.6722 -0.7102 -0.0317
 6899TIP3    H242189  -0.025   6.858   2.920 -1.9343 -0.6907 -0.1024
 6900TIP3   OH242190   5.301   2.290   5.031 -0.0858 -0.4155 -0.1687
 6900TIP3    H142191   5.341   2.253   4.952 -0.3443 -0.9566 -0.0525
 6900TIP3    H242192   5.238   2.354   4.998 -0.9205 -1.3509 -0.4666
 6901TIP3   OH242193   2.039   0.972   3.236 -0.1077  0.1036  0.3652
 6901TIP3    H142194   1.956   0.927   3.216 -2.0120  2.6994  1.7618
 6901TIP3    H242195   2.033   1.055   3.188  1.7970  0.2780  0.3747
 6902TIP3   OH242196   3.889   2.677  11.881  0.0804  0.2055 -0.0018
 6902TIP3    H142197   3.919   2.596  11.840 -0.1316 -0.1808  0.5937
 6902TIP3    H242198   3.886   2.741  11.810  2.5133  0.3287 -0.0941
 6903TIP3   OH242199   0.912   0.193   0.690  0.1797  0.4774 -0.1350
 6903TIP3    H142200   0.938   0.182   0.598  1.0207  1.9358 -0.1079
 6903TIP3    H242201   0.821   0.223   0.685 -0.8498 -2.3837 -0.3245
 6904TIP3   OH242202   1.164   2.569   5.014 -0.0582  0.2206 -0.5202
 6904TIP3    H142203   1.136   2.478   5.020  0.0747  0.1947 -0.2693
 6904TIP3    H242204   1.247   2.565   4.967 -0.4076  0.2847 -1.1477
 6905TIP3   OH242205   3.030   5.736  14.405  0.0244 -0.2318  0.2408
 6905TIP3    H142206   3.095   5.727  14.475  0.8292  2.3894 -0.0798
 6905TIP3    H242207   3.037   5.827  14.377  0.0852 -1.2477 -3.5854
 6906TIP3   OH242208   1.423   2.127   1.773 -0.6016 -0.0990  0.2856
 6906TIP3    H142209   1.335   2.152   1.801  0.1537  2.0245  0.9399
 6906TIP3    H242210   1.470   2.210   1.763  1.3056 -1.1702 -0.1735
 6907TIP3   OH242211   1.557   0.620   3.856 -0.3500  1.1762  0.1759
 6907TIP3    H142212   1.525   0.641   3.768 -0.9471  0.0544  0.0968
 6907TIP3    H242213   1.508   0.541   3.880 -0.6713  1.8184  1.7776
 6908TIP3   OH242214   2.423   1.380  16.191  0.3260  0.8268  0.6482
 6908TIP3    H142215   2.366   1.423  16.254  2.4667  2.6689  1.4681
 6908TIP3    H242216   2.452   1.450  16.133 -0.9323 -0.6641 -2.0110
 6909TIP3   OH242217   6.738   0.359  12.262  0.3755 -0.1158  0.7664
 6909TIP3    H142218   6.678   0.302  12.214  0.8280 -0.6087  0.7813
 6909TIP3    H242219   6.718   0.343  12.354 -1.1903  1.5680  0.7795
 6910TIP3   OH242220   1.302   2.905  10.324  0.2009  0.5670 -0.1828
 6910TIP3    H142221   1.284   2.995  10.352  1.7007  0.6777  0.5391
 6910TIP3    H242222   1.251   2.894  10.244  1.0772  2.5502 -1.0863
 6911TIP3   OH242223   2.578   2.079   3.273  0.0876  0.1046  0.3225
 6911TIP3    H142224   2.503   2.126   3.235  0.3707  0.5377  0.2973
 6911TIP3    H242225   2.604   2.017   3.205  0.3908  0.6559 -0.0748
 6912TIP3   OH242226   5.856   1.472  11.768 -0.9028  0.0377  0.1306
 6912TIP3    H142227   5.845   1.389  11.721 -1.2128  0.8192 -1.2290
 6912TIP3    H242228   5.809   1.536  11.715  2.4343  1.8360 -1.0018
 6913TIP3   OH242229   1.317   1.872  14.431 -0.4623 -0.1659 -0.1081
 6913TIP3    H142230   1.311   1.967  14.418  1.5424  0.1956  1.2566
 6913TIP3    H242231   1.343   1.838  14.346  1.3347  0.8413 -0.0128
 6914TIP3   OH242232   6.854   0.267   3.049  0.3265  0.1971 -0.2716
 6914TIP3    H142233   6.828   0.308   3.131  1.2498 -0.4912  0.3845
 6914TIP3    H242234   6.802   0.187   3.044  0.2286  0.2673 -0.3924
 6915TIP3   OH242235   5.017   2.212  12.388  0.4937  0.8692  0.0445
 6915TIP3    H142236   5.039   2.291  12.436 -2.0055  1.9569 -0.4184
 6915TIP3    H242237   4.951   2.241  12.324 -1.4047 -1.7588  0.6623
 6916TIP3   OH242238   1.616   6.180  11.951 -0.8005 -0.0992  0.0936
 6916TIP3    H142239   1.687   6.183  12.015 -0.7864  0.9429  0.0430
 6916TIP3    H242240   1.647   6.121  11.883 -1.0774 -1.7445  1.3375
 6917TIP3   OH242241   6.068   2.325   0.409  0.4633  0.1877 -0.2631
 6917TIP3    H142242   6.070   2.230   0.399 -0.8392  0.1827 -0.5591
 6917TIP3    H242243   5.975   2.348   0.410  0.7505  1.6708 -2.2471
 6918TIP3   OH242244   2.384   0.896   5.001 -0.1123  0.2600 -0.2478
 6918TIP3    H142245   2.382   0.988   5.028  0.5589  0.1256  0.3108
 6918TIP3    H242246   2.447   0.893   4.930  0.8456  0.0444  0.5782
 6919TIP3   OH242247   6.735   6.546   0.895 -0.3485  0.8688 -0.7457
 6919TIP3    H142248   6.777   6.512   0.974 -3.6604  0.5440  1.0455
 6919TIP3    H242249   6.719   6.468   0.841  1.3622  1.0203 -1.5495
 6920TIP3   OH242250   0.706   0.629   1.904  0.0657 -0.2514 -0.0681
 6920TIP3    H142251   0.696   0.556   1.844  0.6263  0.2672 -0.8109
 6920TIP3    H242252   0.636   0.618   1.968 -1.0752 -0.3572 -1.3040
 6921TIP3   OH242253   2.323   0.236   3.884  0.3092 -0.7300  0.1808
 6921TIP3    H142254   2.370   0.168   3.836 -0.4985 -0.0370 -1.6953
 6921TIP3    H242255   2.389   0.301   3.906  1.0989 -2.0572  2.0179
 6922TIP3   OH242256   4.202   0.200   2.221  0.5812  0.2731 -0.0629
 6922TIP3    H142257   4.295   0.184   2.236  0.4432 -0.5398 -0.0572
 6922TIP3    H242258   4.177   0.258   2.293  1.1093  0.6235 -0.1497
 6923TIP3   OH242259   1.430   5.537  12.316  0.1038  0.0624  0.4530
 6923TIP3    H142260   1.336   5.534  12.298  0.1064 -1.8751  0.5492
 6923TIP3    H242261   1.470   5.569  12.235 -0.4126 -2.2210 -0.7814
 6924TIP3   OH242262   0.970   4.344  15.368  0.5225 -0.0919 -0.2956
 6924TIP3    H142263   0.879   4.314  15.366  1.1625 -2.1757 -0.8274
 6924TIP3    H242264   0.979   4.385  15.454 -0.4689 -1.4631  0.5063
 6925TIP3   OH242265   2.720   6.204  16.448 -0.4271  0.2836 -0.2104
 6925TIP3    H142266   2.632   6.168  16.450 -0.4278  0.3353  0.9692
 6925TIP3    H242267   2.771   6.141  16.397 -0.9877 -0.0976 -0.2991
 6926TIP3   OH242268   0.162   4.704   3.125  0.0239  0.2728 -0.0528
 6926TIP3    H142269   0.195   4.776   3.070  3.4524 -0.5320  0.7327
 6926TIP3    H242270   0.135   4.747   3.206  0.2245  0.8972 -0.3083
 6927TIP3   OH242271   0.445   0.820  14.043  0.1410  0.5606 -0.4832
 6927TIP3    H142272   0.493   0.847  13.964 -1.4663  0.1946 -1.6478
 6927TIP3    H242273   0.379   0.888  14.056  0.9603  1.0936  1.1303
 6928TIP3   OH242274   1.196   2.052   4.386  0.0519 -0.1101  0.1887
 6928TIP3    H142275   1.260   1.984   4.409  0.7015  1.4892  3.7943
 6928TIP3    H242276   1.238   2.102   4.316  2.1927  0.0146  1.4834
 6929TIP3   OH242277   1.811   6.726   5.673 -0.1064  0.3235  0.4090
 6929TIP3    H142278   1.807   6.690   5.761 -1.3476  0.4690  0.4349
 6929TIP3    H242279   1.723   6.711   5.637  0.4531  0.0001 -0.9072
 6930TIP3   OH242280   1.578   2.621  15.197 -0.3409 -0.6515  0.2424
 6930TIP3    H142281   1.615   2.602  15.283 -0.7802 -0.2243  0.5390
 6930TIP3    H242282   1.513   2.689  15.214  0.6445  0.5633 -0.6502
 6931TIP3   OH242283   4.466   6.804  16.331  0.3526  0.0977 -0.5485
 6931TIP3    H142284   4.487   6.756  16.251  2.1579 -1.4158  0.7400
 6931TIP3    H242285   4.500   6.892  16.316  3.7418 -1.0501 -0.2935
 6932TIP3   OH242286   3.015   0.068   3.858 -0.0268 -0.4203  0.4973
 6932TIP3    H142287   3.063   0.045   3.937  0.8004 -0.6367 -0.0570
 6932TIP3    H242288   3.082   0.073   3.790 -0.7194 -0.1887 -0.1792
 6933TIP3   OH242289   6.435   6.166   2.662 -0.0803  0.2929  0.4111
 6933TIP3    H142290   6.400   6.077   2.658 -1.9069  1.0115 -1.5387
 6933TIP3    H242291   6.506   6.167   2.598  0.6835 -0.0204  1.2337
 6934TIP3   OH242292   5.249   4.305  16.974 -0.1760  0.0060 -0.1038
 6934TIP3    H142293   5.290   4.256  16.903  0.4931 -0.3465  0.5174
 6934TIP3    H242294   5.196   4.371  16.930 -1.3357 -1.4410 -0.9857
 6935TIP3   OH242295   1.336   5.279  11.553  0.3551 -0.1205  0.3080
 6935TIP3    H142296   1.381   5.292  11.636  0.7012  4.1255 -0.3189
 6935TIP3    H242297   1.244   5.269  11.577  0.6914 -1.1405  1.2563
 6936TIP3   OH242298   4.500   1.832  13.834 -0.5752  0.2310  0.2676
 6936TIP3    H142299   4.518   1.783  13.914 -2.3533 -0.4962  0.2709
 6936TIP3    H242300   4.568   1.803  13.773 -0.2481 -0.5444  0.9664
 6937TIP3   OH242301   4.862   0.376  11.090  0.2581 -0.5977 -0.1693
 6937TIP3    H142302   4.946   0.417  11.110  0.7793 -0.9750 -1.4844
 6937TIP3    H242303   4.820   0.436  11.029  0.0088 -0.8939 -0.2919
 6938TIP3   OH242304   6.178   2.428  10.601  0.0391 -0.0351 -0.1306
 6938TIP3    H142305   6.245   2.396  10.661  0.1692 -2.4088 -1.4485
 6938TIP3    H242306   6.098   2.430  10.653  0.4254 -0.6688  0.4984
 6939TIP3   OH242307   2.854   3.787  14.489  0.8985  0.1682  0.2032
 6939TIP3    H142308   2.803   3.835  14.424  0.3105 -0.7711 -0.0457
 6939TIP3    H242309   2.792   3.726  14.528  1.9276 -1.3136 -0.4173
 6940TIP3   OH242310   1.178   6.040  16.936 -0.1194 -0.3256 -0.3398
 6940TIP3    H142311   1.177   6.131  16.966 -2.4866 -0.6899  0.9260
 6940TIP3    H242312   1.164   6.046  16.841 -0.7728  0.6379 -0.2021
 6941TIP3   OH242313   0.218   4.159  12.539 -0.1975 -0.0058 -0.1886
 6941TIP3    H142314   0.160   4.112  12.599  0.5369  0.8314  1.2349
 6941TIP3    H242315   0.294   4.183  12.593  2.3534 -2.5240 -2.3265
 6942TIP3   OH242316   0.087   4.903  11.059  0.0722 -0.1694 -0.0973
 6942TIP3    H142317   0.047   4.975  11.108 -2.8819  0.0891 -2.6115
 6942TIP3    H242318   0.181   4.910  11.079 -0.5170  2.1430  2.4933
 6943TIP3   OH242319   1.665   5.861   3.270  0.0934 -0.3270 -0.8064
 6943TIP3    H142320   1.622   5.825   3.193  0.1068 -0.5988 -0.6890
 6943TIP3    H242321   1.630   5.810   3.343  0.0988 -0.0878 -0.6339
 6944TIP3   OH242322   4.041   3.546  11.874 -0.7236  0.5754 -0.2181
 6944TIP3    H142323   4.094   3.480  11.917 -1.2344 -0.6991 -1.4440
 6944TIP3    H242324   4.098   3.623  11.868  0.0152  0.1415  0.8980
 6945TIP3   OH242325   5.938   1.276  14.185 -0.7555  0.0136  0.2005
 6945TIP3    H142326   5.991   1.345  14.144  0.0032 -1.2475 -1.0129
 6945TIP3    H242327   5.884   1.323  14.249  2.4414  1.2969  2.2328
 6946TIP3   OH242328   3.512   2.672  14.364 -0.6495  0.6365  0.2023
 6946TIP3    H142329   3.485   2.741  14.304  1.7658  0.9377 -0.6379
 6946TIP3    H242330   3.483   2.702  14.450 -1.7728  1.5034 -0.4498
 6947TIP3   OH242331   2.438   2.236  15.714  0.1283  0.0049 -0.1299
 6947TIP3    H142332   2.456   2.328  15.734  1.6143 -0.2814 -0.0212
 6947TIP3    H242333   2.522   2.201  15.686 -0.7019 -1.0011 -1.4770
 6948TIP3   OH242334   3.763   1.097   5.934  0.1364  0.4144  0.2051
 6948TIP3    H142335   3.759   1.132   6.023 -0.2558  0.6677  0.0911
 6948TIP3    H242336   3.690   1.140   5.888  0.6843  0.7324 -0.3892
 6949TIP3   OH242337   2.442   5.941  12.396  0.2621  0.2569 -0.5341
 6949TIP3    H142338   2.472   6.022  12.438 -0.7470 -0.3256  1.4414
 6949TIP3    H242339   2.507   5.924  12.328  0.9494  2.2792 -0.4535
 6950TIP3   OH242340   2.483   3.792   3.262  0.1962 -0.3564 -0.6554
 6950TIP3    H142341   2.500   3.770   3.354  1.5738 -1.6127 -1.1764
 6950TIP3    H242342   2.506   3.885   3.256 -0.2507 -0.1655  0.3483
 6951TIP3   OH242343   4.679   0.786  14.615  0.1705  0.2774  0.2654
 6951TIP3    H142344   4.650   0.708  14.661  2.2971 -1.4959 -1.2417
 6951TIP3    H242345   4.652   0.772  14.524 -0.7918  2.0633  0.2212
 6952TIP3   OH242346   6.831   4.022  14.743 -0.0251  0.3224 -0.1745
 6952TIP3    H142347   6.874   3.937  14.741 -1.3667 -0.4159  0.6493
 6952TIP3    H242348   6.797   4.029  14.832  0.7196  2.0832  0.0071
 6953TIP3   OH242349   2.853   4.862   2.555 -0.1101 -0.3641 -0.2306
 6953TIP3    H142350   2.800   4.782   2.561 -2.0136  0.7020 -1.6578
 6953TIP3    H242351   2.900   4.853   2.472 -1.0890  0.3926 -0.8869
 6954TIP3   OH242352   2.619   1.339   1.433  0.0991  0.8283 -0.0301
 6954TIP3    H142353   2.580   1.252   1.425  1.5482  0.2140 -0.9022
 6954TIP3    H242354   2.570   1.393   1.371  1.0908 -0.1129 -1.6906
 6955TIP3   OH242355   4.598   4.882  14.092 -0.0972  0.1995 -0.2061
 6955TIP3    H142356   4.551   4.867  14.174  0.5637  2.6540  0.6902
 6955TIP3    H242357   4.529   4.893  14.026 -0.7502  1.5693  0.6750
 6956TIP3   OH242358   0.493   2.814   0.887  0.5085  0.3415 -0.5583
 6956TIP3    H142359   0.503   2.846   0.976  1.3229  0.4804 -0.6862
 6956TIP3    H242360   0.471   2.722   0.897 -0.6046  0.6298 -0.2071
 6957TIP3   OH242361   2.046   3.039   0.809  0.2025  0.3133 -0.0377
 6957TIP3    H142362   2.002   3.096   0.871 -1.5084  0.7230 -1.5621
 6957TIP3    H242363   2.081   3.098   0.742  1.2318 -0.1965  0.0210
 6958TIP3   OH242364   5.172   4.458   3.949  0.3787 -0.1359 -0.0240
 6958TIP3    H142365   5.114   4.462   4.025 -2.1371  1.2251 -1.8643
 6958TIP3    H242366   5.132   4.394   3.891  0.4322  1.1290 -1.5329
 6959TIP3   OH242367   0.607   4.668  14.755 -0.0176 -0.1746  0.3208
 6959TIP3    H142368   0.555   4.644  14.678  1.1498 -0.7893 -0.3062
 6959TIP3    H242369   0.654   4.588  14.778 -0.3050  0.0211  1.6509
 6960TIP3   OH242370   2.672   3.364   3.769 -0.3153  0.0197 -0.2217
 6960TIP3    H142371   2.750   3.309   3.764 -0.1290  0.2330  0.2766
 6960TIP3    H242372   2.654   3.371   3.862  0.5999  2.0960 -0.1368
 6961TIP3   OH242373   2.824   6.328   0.193  0.2220  0.1684  0.3456
 6961TIP3    H142374   2.780   6.396   0.142  2.1637  1.3374  0.1373
 6961TIP3    H242375   2.803   6.247   0.147 -0.5100  0.8546 -0.5745
 6962TIP3   OH242376   2.262   2.301   0.904  0.1349  0.1191  0.2624
 6962TIP3    H142377   2.187   2.360   0.914 -0.9615 -1.2312  0.2477
 6962TIP3    H242378   2.294   2.318   0.815 -0.6498  0.1511 -0.0194
 6963TIP3   OH242379   1.948   1.641  15.401 -0.2552 -0.0371  0.1106
 6963TIP3    H142380   1.963   1.735  15.396  0.9316 -0.2267 -0.2768
 6963TIP3    H242381   1.853   1.632  15.409 -0.3094  1.2246  1.2321
 6964TIP3   OH242382   6.809   1.260   4.914  0.4872 -0.2789  1.0565
 6964TIP3    H142383   6.848   1.339   4.875 -0.5945 -0.3040 -0.1452
 6964TIP3    H242384   6.716   1.266   4.891  0.6257 -2.6978 -0.4667
 6965TIP3   OH242385   1.478   0.815   0.086  0.9417  0.5697 -0.3473
 6965TIP3    H142386   1.422   0.882   0.125 -0.8560 -0.3905 -1.1412
 6965TIP3    H242387   1.531   0.783   0.159 -0.1177  0.9725  0.6345
 6966TIP3   OH242388   3.167   1.662  16.029  0.0512  0.4369  0.1957
 6966TIP3    H142389   3.130   1.582  16.065 -1.1729  0.3206 -1.2503
 6966TIP3    H242390   3.168   1.723  16.104 -1.6368 -0.0510  0.6599
 6967TIP3   OH242391   1.763   0.055  12.001 -0.6189 -0.5350  0.3577
 6967TIP3    H142392   1.840   0.057  12.056 -0.1593 -0.7540 -0.2650
 6967TIP3    H242393   1.735   0.146  11.994  0.5258 -0.2355 -0.6967
 6968TIP3   OH242394   6.553   1.664   4.109 -0.1819  0.8128  0.2329
 6968TIP3    H142395   6.473   1.668   4.160  0.1166 -1.3751  0.9712
 6968TIP3    H242396   6.610   1.603   4.156  0.7498 -0.0279 -1.8091
 6969TIP3   OH242397   1.022   6.862  11.974  0.0447 -0.0545  0.2174
 6969TIP3    H142398   1.024   6.848  12.069 -1.0303 -0.5988  0.1741
 6969TIP3    H242399   0.945   6.814  11.944  0.8872 -0.6725 -1.0653
 6970TIP3   OH242400   6.381   4.183   6.327  0.1761  0.1278 -0.0843
 6970TIP3    H142401   6.446   4.141   6.271 -0.3208  0.0064 -0.5859
 6970TIP3    H242402   6.383   4.275   6.300 -1.5363 -0.2797 -1.8282
 6971TIP3   OH242403   2.043   0.703   2.143 -0.1541 -0.0815 -0.5714
 6971TIP3    H142404   1.976   0.761   2.106 -1.8625 -1.5692  0.0063
 6971TIP3    H242405   2.092   0.671   2.068 -2.5431 -1.8170 -1.5267
 6972TIP3   OH242406   5.566   5.739   4.429  0.0951 -0.1042 -0.0431
 6972TIP3    H142407   5.596   5.674   4.365  0.4623  1.0546 -1.0828
 6972TIP3    H242408   5.493   5.696   4.474 -0.5765 -0.7428 -1.6689
 6973TIP3   OH242409   4.380   6.721  11.717  0.5169 -0.0774 -0.3901
 6973TIP3    H142410   4.419   6.807  11.703  1.1746 -0.5377 -1.5274
 6973TIP3    H242411   4.291   6.739  11.745  1.2850  1.0038  1.6202
 6974TIP3   OH242412   2.233   5.699   5.687 -0.3072 -0.2371 -0.8613
 6974TIP3    H142413   2.163   5.729   5.746 -0.2714  0.3888 -1.1276
 6974TIP3    H242414   2.189   5.681   5.604 -0.0611  0.8064 -1.2306
 6975TIP3   OH242415   6.836   4.042  12.343 -0.2706 -0.3117  0.0751
 6975TIP3    H142416   6.742   4.057  12.331 -0.5950 -1.9687  0.3634
 6975TIP3    H242417   6.867   4.121  12.387 -1.5283  0.2464  0.0198
 6976TIP3   OH242418   0.748   5.120  17.065  0.0547 -0.3657  0.9089
 6976TIP3    H142419   0.753   5.046  17.004  1.1554 -0.5300  1.1802
 6976TIP3    H242420   0.663   5.108  17.108 -0.7299 -0.2693 -0.5292
 6977TIP3   OH242421   6.849   3.610  16.639  0.1206 -0.1403 -0.1240
 6977TIP3    H142422   6.866   3.531  16.587 -1.9874 -1.0965  0.5419
 6977TIP3    H242423   6.801   3.578  16.715  0.0935  1.6908  0.6565
 6978TIP3   OH242424   4.010   4.272  11.492  0.1478 -0.5951  0.0846
 6978TIP3    H142425   3.995   4.212  11.566 -3.4209 -2.4165 -1.8413
 6978TIP3    H242426   4.083   4.233  11.444  0.5929 -1.0216  1.0804
 6979TIP3   OH242427   0.927   1.841   1.581 -0.2993 -0.0996  0.5828
 6979TIP3    H142428   0.832   1.845   1.589 -0.2391  0.7014  0.9957
 6979TIP3    H242429   0.951   1.924   1.540  0.3726  0.5186  2.1427
 6980TIP3   OH242430   2.556   4.425   5.304 -0.1226 -0.2101  0.3056
 6980TIP3    H142431   2.646   4.450   5.282 -1.2546  2.5774 -1.8324
 6980TIP3    H242432   2.540   4.463   5.390  0.3150  0.5907  0.0430
 6981TIP3   OH242433   1.511   0.402   1.131 -0.0715  0.2837  0.4358
 6981TIP3    H142434   1.584   0.463   1.135  0.3701 -0.2774  1.3344
 6981TIP3    H242435   1.442   0.449   1.084  0.3716  1.3354  0.8159
 6982TIP3   OH242436   1.796   3.781  11.031 -0.1079 -0.1357  0.5739
 6982TIP3    H142437   1.855   3.742  10.968 -0.4956  0.7913 -0.4078
 6982TIP3    H242438   1.799   3.875  11.012  0.9997  0.4157  3.0060
 6983TIP3   OH242439   3.699   4.821   3.119 -0.0238 -0.1627 -0.1126
 6983TIP3    H142440   3.712   4.747   3.179  1.2397 -0.1794 -0.3846
 6983TIP3    H242441   3.617   4.861   3.148 -1.0409 -1.9908 -0.3180
 6984TIP3   OH242442   0.901   0.614   4.093  0.0483  0.2791 -0.7511
 6984TIP3    H142443   0.870   0.535   4.048  0.2715 -0.6777  0.7084
 6984TIP3    H242444   0.832   0.634   4.156  0.9625 -0.0410  0.3733
 6985TIP3   OH242445   5.423   5.509   5.896 -0.1511  0.4097  0.5184
 6985TIP3    H142446   5.385   5.587   5.855 -0.9209  1.3103  2.7696
 6985TIP3    H242447   5.428   5.531   5.989 -0.2878 -2.1892  1.2192
 6986TIP3   OH242448   0.494   6.568  15.846 -0.5171  0.1620  0.0174
 6986TIP3    H142449   0.570   6.587  15.790 -0.2982 -2.2584 -0.6336
 6986TIP3    H242450   0.532   6.551  15.932 -0.2420 -1.2125 -0.3451
 6987TIP3   OH242451   5.178   4.852   5.607  0.2284  0.1970 -0.0593
 6987TIP3    H142452   5.207   4.773   5.653 -1.1538 -1.3064 -1.6462
 6987TIP3    H242453   5.098   4.826   5.562 -0.4280  2.6109 -0.4218
 6988TIP3   OH242454   0.752   0.346   1.835 -0.1324  0.2839 -0.4143
 6988TIP3    H142455   0.813   0.283   1.874 -1.3878 -1.2537 -0.8163
 6988TIP3    H242456   0.676   0.345   1.894 -0.3725  1.0625 -0.6931
 6989TIP3   OH242457   4.311   0.117  15.520  0.1952 -0.3027  0.3412
 6989TIP3    H142458   4.392   0.158  15.551  0.4774  0.2006 -0.9947
 6989TIP3    H242459   4.275   0.073  15.597  1.5893 -0.2947  1.0155
 6990TIP3   OH242460   2.186   1.596  14.815 -0.1630 -0.1300 -0.0780
 6990TIP3    H142461   2.094   1.623  14.812 -0.2695 -0.4304  0.3745
 6990TIP3    H242462   2.236   1.678  14.816 -0.4628  0.0443  0.8061
 6991TIP3   OH242463   4.858   3.669  16.131  0.0825  0.1625  0.1390
 6991TIP3    H142464   4.767   3.638  16.128  0.3608 -0.6049 -2.7381
 6991TIP3    H242465   4.851   3.760  16.162 -1.4706 -0.3209  1.3728
 6992TIP3   OH242466   4.793   0.681   2.538  0.2117  0.2512  0.0081
 6992TIP3    H142467   4.813   0.710   2.449  1.6942 -1.3115 -0.2131
 6992TIP3    H242468   4.876   0.647   2.572 -0.5064  0.1033  1.7088
 6993TIP3   OH242469   5.280   1.866  15.455 -0.0975 -0.3458 -0.1248
 6993TIP3    H142470   5.251   1.827  15.538 -0.8109 -0.0234 -0.2095
 6993TIP3    H242471   5.375   1.870  15.462 -0.1529 -0.2814  0.7012
 6994TIP3   OH242472   2.421   4.258  14.434  0.1209 -0.0153  0.0078
 6994TIP3    H142473   2.329   4.235  14.447  0.0943  0.3100  0.4215
 6994TIP3    H242474   2.469   4.187  14.477  0.1072 -1.1358 -1.7415
 6995TIP3   OH242475   0.987   5.665  10.938  0.1948  0.4133  0.3639
 6995TIP3    H142476   1.052   5.664  10.867 -1.0566  1.0838 -0.8441
 6995TIP3    H242477   0.949   5.577  10.936  0.7966  0.1385  0.8249
 6996TIP3   OH242478   3.390   0.321   2.039  0.2366 -0.2401 -0.6260
 6996TIP3    H142479   3.364   0.234   2.009 -1.2289 -0.1296  0.2235
 6996TIP3    H242480   3.341   0.334   2.120  2.7961  0.1171  0.9813
 6997TIP3   OH242481   3.659   4.064  13.333 -0.3116  0.4306  0.3263
 6997TIP3    H142482   3.733   4.112  13.371  0.2321  0.4714 -0.7605
 6997TIP3    H242483   3.684   3.972  13.340  1.1858  0.5177 -2.6079
 6998TIP3   OH242484   0.578   4.532  10.994  0.3630 -0.1774  0.2634
 6998TIP3    H142485   0.564   4.620  10.959 -0.5185 -0.0200  0.9472
 6998TIP3    H242486   0.497   4.485  10.972 -0.4047  0.0526  2.3794
 6999TIP3   OH242487   0.413   3.481   3.471  0.3617 -0.1462  0.5915
 6999TIP3    H142488   0.377   3.418   3.534  1.7861  0.0960  1.7026
 6999TIP3    H242489   0.507   3.478   3.485  0.7930 -0.4424 -1.9251
 7000TIP3   OH242490   4.205   1.919  16.572  0.1577  0.5930  0.0192
 7000TIP3    H142491   4.150   1.990  16.607  0.7375  1.2585 -0.3876
 7000TIP3    H242492   4.164   1.895  16.489  0.1744  0.7263 -0.0284
 7001TIP3   OH242493   5.935   6.752  13.677  0.1892  0.0081  0.5842
 7001TIP3    H142494   5.888   6.819  13.725 -2.3857 -1.8446  0.8675
 7001TIP3    H242495   6.016   6.795  13.648 -1.4467  3.3050  0.4156
 7002TIP3   OH242496   5.358   3.618   5.388 -0.5122  0.0131 -0.0689
 7002TIP3    H142497   5.373   3.567   5.308 -0.4660  1.5755 -1.1010
 7002TIP3    H242498   5.446   3.640   5.419 -0.4690 -1.8142  1.3022
 7003TIP3   OH242499   2.956   0.813  13.979 -0.3085 -0.3022  0.8570
 7003TIP3    H142500   2.892   0.793  14.047 -0.9820 -1.5333 -0.0947
 7003TIP3    H242501   2.932   0.900  13.947 -0.3099  0.0538  1.8258
 7004TIP3   OH242502   6.445   5.593  16.637  0.1558  0.1691 -0.2727
 7004TIP3    H142503   6.525   5.641  16.613  0.5676 -0.1093  0.5231
 7004TIP3    H242504   6.386   5.661  16.670  0.8548  0.1106  1.1554
 7005TIP3   OH242505   0.699   3.076  13.964  0.2895 -0.5970  0.2098
 7005TIP3    H142506   0.654   3.030  14.035  1.0638 -0.1698  0.9880
 7005TIP3    H242507   0.674   3.027  13.885 -1.5966 -0.3399  0.5902
 7006TIP3   OH242508   1.580   4.791   1.479  0.1521 -0.2361  0.0193
 7006TIP3    H142509   1.485   4.778   1.483  0.1745 -1.0944 -1.3257
 7006TIP3    H242510   1.600   4.848   1.553 -1.5231  0.6701 -0.1782
 7007TIP3   OH242511   2.421   6.133   1.522  0.0974 -0.1072 -0.3153
 7007TIP3    H142512   2.349   6.156   1.463 -2.1284 -0.3791  2.1231
 7007TIP3    H242513   2.480   6.208   1.518 -1.0170  0.7620 -1.3337
 7008TIP3   OH242514   0.033   2.553   5.681 -0.5952 -0.1040 -0.0057
 7008TIP3    H142515  -0.019   2.618   5.633  0.1641 -0.5519 -1.5113
 7008TIP3    H242516  -0.017   2.537   5.761 -2.0434  0.5398 -0.7298
 7009TIP3   OH242517   1.625   3.213  16.835 -0.9551 -0.2416  0.0447
 7009TIP3    H142518   1.689   3.246  16.898 -0.3648 -0.7984 -0.2509
 7009TIP3    H242519   1.664   3.230  16.749 -0.9624 -1.0625 -0.1270
 7010TIP3   OH242520   1.827   0.507   0.906 -0.0249 -0.5127  0.3650
 7010TIP3    H142521   1.901   0.455   0.939  0.6632  0.1099 -0.1695
 7010TIP3    H242522   1.773   0.443   0.859  0.2063 -0.9601  0.6939
 7011TIP3   OH242523   3.024   5.141  16.305 -0.0145  0.7363  0.0849
 7011TIP3    H142524   2.967   5.071  16.274  0.8687  0.4216 -0.9318
 7011TIP3    H242525   2.994   5.219  16.258 -0.3135  0.8067  0.3938
 7012TIP3   OH242526   5.233   0.112  16.261  0.2902  0.4090 -0.1717
 7012TIP3    H142527   5.311   0.101  16.207 -0.2477  0.3915 -0.9576
 7012TIP3    H242528   5.159   0.094  16.202 -0.3943  2.2050  0.0703
 7013TIP3   OH242529   6.644   5.881  14.435  0.2180 -0.0074 -0.2575
 7013TIP3    H142530   6.687   5.967  14.436 -1.3515  0.8208  0.8048
 7013TIP3    H242531   6.557   5.898  14.398 -0.0952 -1.1550 -0.0819
 7014TIP3   OH242532   3.420   2.788  15.515  0.2568  0.0441  0.3950
 7014TIP3    H142533   3.389   2.748  15.596 -1.0454 -1.5119 -0.8029
 7014TIP3    H242534   3.341   2.819  15.472  0.6708 -1.0079 -1.2116
 7015TIP3   OH242535   4.963   5.117  10.292 -0.2875  0.1337  0.0306
 7015TIP3    H142536   4.945   5.050  10.225 -0.2935 -0.7517  0.8899
 7015TIP3    H242537   5.051   5.148  10.271  0.1108 -0.8509  0.1827
 7016TIP3   OH242538   2.761   1.373  12.338  0.1901  0.3303 -0.3223
 7016TIP3    H142539   2.744   1.355  12.245 -1.5967 -0.4763  0.0924
 7016TIP3    H242540   2.779   1.286  12.375  3.2941  0.8992 -0.2737
 7017TIP3   OH242541   5.637   6.331  12.678  0.0232  0.1859 -0.7871
 7017TIP3    H142542   5.572   6.355  12.744 -0.5292 -1.6649 -0.6052
 7017TIP3    H242543   5.656   6.413  12.632 -1.2671  1.0660  0.1827
 7018TIP3   OH242544   0.075   2.360   2.711 -0.4667 -0.7681 -0.1901
 7018TIP3    H142545  -0.012   2.335   2.744 -0.8828  0.8078  0.0114
 7018TIP3    H242546   0.104   2.429   2.770  0.1860 -0.1098 -1.2376
 7019TIP3   OH242547   3.826   2.932   0.379  0.2138  0.0319  0.3584
 7019TIP3    H142548   3.739   2.901   0.352  0.8340 -0.5174 -1.0958
 7019TIP3    H242549   3.842   2.890   0.463 -1.5581  1.3411  1.4151
 7020TIP3   OH242550   2.375   3.793  17.092  0.2069  0.0101 -0.1629
 7020TIP3    H142551   2.402   3.860  17.155  1.7404  0.9614 -1.7458
 7020TIP3    H242552   2.359   3.715  17.145 -0.6704  1.3397  1.6288
 7021TIP3   OH242553   3.401   5.961  14.946  0.3516 -0.4158 -0.2244
 7021TIP3    H142554   3.443   6.047  14.939 -0.0564 -0.0416  1.4907
 7021TIP3    H242555   3.475   5.900  14.946  0.8066  0.1028  0.7660
 7022TIP3   OH242556   5.194   6.214  16.497  0.5046  0.2397 -0.2232
 7022TIP3    H142557   5.243   6.136  16.525  2.3420  1.5658  0.4729
 7022TIP3    H242558   5.167   6.256  16.578 -3.1790 -1.1479 -0.5497
 7023TIP3   OH242559   1.685   4.397  14.016 -0.1153 -0.2621  0.0827
 7023TIP3    H142560   1.645   4.339  14.082 -2.0954 -0.2593 -1.0212
 7023TIP3    H242561   1.650   4.483  14.037  1.1169  0.1749  0.4130
 7024TIP3   OH242562   3.338   4.773   5.523  0.3545  0.4440 -0.0649
 7024TIP3    H142563   3.250   4.790   5.558  0.8036  1.9193  0.4093
 7024TIP3    H242564   3.328   4.693   5.472 -1.2382  0.5046  0.0952
 7025TIP3   OH242565   4.376   6.414  14.526 -0.1631  0.4158  0.5292
 7025TIP3    H142566   4.350   6.322  14.527 -1.0368  0.6637  0.9842
 7025TIP3    H242567   4.463   6.413  14.485 -1.0639 -0.3768 -1.5034
 7026TIP3   OH242568   2.264   1.708   2.526  0.0987  0.1718  0.2377
 7026TIP3    H142569   2.243   1.768   2.454  2.8906  0.1052 -0.7497
 7026TIP3    H242570   2.294   1.765   2.596 -2.4416  0.2206  1.3955
 7027TIP3   OH242571   1.168   3.412  14.179  0.3015  0.6457  0.0514
 7027TIP3    H142572   1.231   3.341  14.194 -0.7626 -0.3553 -0.0006
 7027TIP3    H242573   1.085   3.366  14.162 -0.3277  1.9102 -0.3970
 7028TIP3   OH242574   2.746   3.004   1.350 -0.3202  0.7289  0.2319
 7028TIP3    H142575   2.805   2.975   1.281 -0.5061 -0.8145  0.6854
 7028TIP3    H242576   2.747   2.933   1.414 -1.3198  1.4569  1.0935
 7029TIP3   OH242577   4.597   0.356  11.705  0.4214  0.2509 -0.1025
 7029TIP3    H142578   4.528   0.368  11.640  1.5936 -0.2214 -1.4786
 7029TIP3    H242579   4.677   0.345  11.654  1.2041 -1.4624  1.3730
 7030TIP3   OH242580   5.748   6.519   0.497 -0.0043  0.0886 -0.3216
 7030TIP3    H142581   5.820   6.499   0.557  0.1149 -0.5740 -0.6726
 7030TIP3    H242582   5.669   6.505   0.549  0.1118  0.3292 -0.0802
 7031TIP3   OH242583   0.814   3.150  16.567 -0.4043 -0.0528  0.5705
 7031TIP3    H142584   0.739   3.209  16.557  0.7119  1.2791 -0.3067
 7031TIP3    H242585   0.775   3.062  16.570 -2.0811  0.6714  1.5539
 7032TIP3   OH242586   4.748   6.695  12.397  0.3063  0.0819 -0.9905
 7032TIP3    H142587   4.793   6.696  12.482 -1.8859 -0.0333  0.2293
 7032TIP3    H242588   4.788   6.767  12.348 -0.5279  2.2651  1.3472
 7033TIP3   OH242589   5.227   1.247   1.097 -0.4966 -1.1219 -0.1192
 7033TIP3    H142590   5.140   1.248   1.136  0.5379 -2.0407  2.4909
 7033TIP3    H242591   5.266   1.165   1.129  1.3520 -0.6704 -1.0914
 7034TIP3   OH242592   0.657   3.185  15.237  0.6948  0.2051  0.2927
 7034TIP3    H142593   0.596   3.113  15.250  2.1122 -0.5823  3.4709
 7034TIP3    H242594   0.710   3.159  15.162 -0.6652 -0.6700 -0.3885
 7035TIP3   OH242595   0.613   5.958   4.432  0.7812 -0.0467  0.3024
 7035TIP3    H142596   0.685   5.933   4.490 -0.6949 -1.6697  1.5331
 7035TIP3    H242597   0.567   6.027   4.480  0.0879 -0.7550  0.6725
 7036TIP3   OH242598   0.824   3.928   3.608  0.3994  0.2087 -0.1267
 7036TIP3    H142599   0.792   3.918   3.518  0.6991  0.9816 -0.3296
 7036TIP3    H242600   0.769   3.996   3.646  1.4988  1.2656 -0.3514
 7037TIP3   OH242601   4.594   0.072  13.597  0.0969 -0.1942  0.5337
 7037TIP3    H142602   4.579   0.123  13.517  1.0020  1.0767  1.1494
 7037TIP3    H242603   4.658   0.123  13.646  1.2976 -2.0940  1.0311
 7038TIP3   OH242604   2.410   4.381   1.156 -0.0241 -0.1633  0.1800
 7038TIP3    H142605   2.378   4.334   1.079 -0.2946  0.8073 -0.3141
 7038TIP3    H242606   2.502   4.399   1.136  0.4345 -1.5164  0.8985
 7039TIP3   OH242607   1.004   6.548  13.527  0.7712  0.2682 -0.2403
 7039TIP3    H142608   0.998   6.640  13.553  2.0890  0.6950 -1.3090
 7039TIP3    H242609   0.930   6.535  13.468  0.6719  0.6937 -0.2178
 7040TIP3   OH242610   5.987   3.641   1.935  0.4171  0.6818  0.6674
 7040TIP3    H142611   5.897   3.638   1.904  0.8068  0.6859 -0.5028
 7040TIP3    H242612   6.033   3.576   1.882  1.2069  1.0418  0.8897
 7041TIP3   OH242613   4.561   2.538  11.045  0.2305 -0.3622 -0.2901
 7041TIP3    H142614   4.610   2.600  10.991 -0.2939 -0.1151 -0.4902
 7041TIP3    H242615   4.486   2.513  10.991  0.5926 -1.4166 -0.3429
 7042TIP3   OH242616   0.159   5.911   4.927  0.4742  0.2591  0.2903
 7042TIP3    H142617   0.200   5.947   5.005 -1.0178  2.2322  0.2711
 7042TIP3    H242618   0.103   5.840   4.959 -0.1897  1.1049  1.0624
 7043TIP3   OH242619   0.300   6.298  14.369 -0.4629  0.4596  0.1467
 7043TIP3    H142620   0.223   6.340  14.332 -0.5838  1.1396  1.1255
 7043TIP3    H242621   0.374   6.353  14.341 -0.5695  1.0598  1.0063
 7044TIP3   OH242622   2.623   3.108   3.380  0.2933 -0.4136  0.1310
 7044TIP3    H142623   2.605   3.153   3.297 -0.6993 -1.1965 -0.1036
 7044TIP3    H242624   2.702   3.150   3.413  0.2579  0.4604 -0.8188
 7045TIP3   OH242625   1.224   2.386   2.710 -0.1409 -0.1728 -0.4317
 7045TIP3    H142626   1.159   2.318   2.728 -1.1666  0.8947  0.1101
 7045TIP3    H242627   1.225   2.393   2.614  1.6092 -2.4062 -0.6640
 7046TIP3   OH242628   3.176   2.140   3.091 -0.6929  0.1454  0.1606
 7046TIP3    H142629   3.083   2.115   3.095 -0.7134  0.3741  1.2334
 7046TIP3    H242630   3.185   2.211   3.154  0.2013  0.1866  0.0013
 7047TIP3   OH242631   3.293   4.211  12.958 -0.0323 -0.0839 -0.4307
 7047TIP3    H142632   3.383   4.179  12.961 -0.7491 -2.1494  1.1533
 7047TIP3    H242633   3.285   4.268  13.034 -0.3414 -0.7491  0.0413
 7048TIP3   OH242634   3.974   5.104  16.895  0.4615  0.0349  0.2827
 7048TIP3    H142635   3.883   5.102  16.923  0.5882  2.9875  1.2127
 7048TIP3    H242636   4.021   5.055  16.963 -0.2689 -0.5927  0.3529
 7049TIP3   OH242637   5.519   5.186  13.499 -0.2798 -0.4564  0.7804
 7049TIP3    H142638   5.601   5.232  13.481 -0.3127 -1.0037 -0.9540
 7049TIP3    H242639   5.451   5.250  13.482 -0.2670 -0.5917  0.2077
 7050TIP3   OH242640   6.645   2.904   0.615  0.1116 -0.1820  0.7277
 7050TIP3    H142641   6.690   2.820   0.626  0.8619  0.5277  4.0600
 7050TIP3    H242642   6.556   2.888   0.645 -0.7905 -0.4966 -1.8063
 7051TIP3   OH242643   0.474   0.739   5.456  0.7087 -0.3275  0.4072
 7051TIP3    H142644   0.428   0.655   5.455  0.7396 -0.3709 -1.8463
 7051TIP3    H242645   0.444   0.782   5.536  0.9636 -2.6128  1.8099
 7052TIP3   OH242646   5.388   6.085   0.948 -0.2802 -0.1420  0.4415
 7052TIP3    H142647   5.320   6.055   0.887  0.5312  0.2168 -0.6862
 7052TIP3    H242648   5.368   6.041   1.030 -1.1746 -0.9822 -0.2020
 7053TIP3   OH242649   2.903   5.370  11.326  0.5871  0.2514  0.2444
 7053TIP3    H142650   2.863   5.363  11.240 -0.2753 -0.9500  0.7153
 7053TIP3    H242651   2.834   5.404  11.383  0.0920 -1.9559  1.0881
 7054TIP3   OH242652   0.041   0.662  11.531 -0.2338  0.1338 -0.2095
 7054TIP3    H142653   0.078   0.739  11.488  0.9882 -0.2720  0.0618
 7054TIP3    H242654   0.063   0.673  11.623 -1.4737  0.2367  0.0911
 7055TIP3   OH242655   5.826   2.772  11.939  0.5638 -0.5923  0.1918
 7055TIP3    H142656   5.914   2.739  11.921  1.2911  1.1782  0.3251
 7055TIP3    H242657   5.805   2.826  11.863  0.5798  0.8692  1.1990
 7056TIP3   OH242658   6.593   3.614   6.142 -0.3301 -0.2581  0.6606
 7056TIP3    H142659   6.576   3.683   6.078  2.5624  0.0518  0.0988
 7056TIP3    H242660   6.583   3.533   6.092  2.1621 -0.0124 -0.3748
 7057TIP3   OH242661   4.652   2.685  11.733  0.1429  0.6260  0.4477
 7057TIP3    H142662   4.680   2.730  11.654 -0.0837 -0.2449 -0.1537
 7057TIP3    H242663   4.564   2.719  11.750  0.6003  1.5949  0.9545
 7058TIP3   OH242664   6.545   0.134   6.472 -0.2894  0.1530  0.0401
 7058TIP3    H142665   6.611   0.181   6.423  0.4506 -0.9974 -0.0963
 7058TIP3    H242666   6.514   0.066   6.412  0.5581 -1.2105  1.0823
 7059TIP3   OH242667   6.289   0.505   4.128 -0.0694 -0.4567 -0.2109
 7059TIP3    H142668   6.275   0.582   4.073  1.2668  0.1094  0.1814
 7059TIP3    H242669   6.224   0.442   4.099 -3.1516  1.7662  1.2764
 7060TIP3   OH242670   0.485   2.878   3.028 -0.3988  0.2002  0.0564
 7060TIP3    H142671   0.532   2.794   3.029 -1.1307 -0.2741 -1.4607
 7060TIP3    H242672   0.524   2.928   3.099 -1.8969 -2.4585  3.0125
 7061TIP3   OH242673   3.334   6.532   2.004 -0.1744 -0.2056  0.1051
 7061TIP3    H142674   3.348   6.602   1.941 -1.0522 -1.6569 -1.7840
 7061TIP3    H242675   3.240   6.515   2.001 -0.5626  0.8063  3.1184
 7062TIP3   OH242676   2.311   1.532  10.587  0.1939 -0.6307  0.0497
 7062TIP3    H142677   2.405   1.525  10.571  0.1455  1.2408 -1.4426
 7062TIP3    H242678   2.304   1.569  10.674  0.9460  1.1352 -0.6018
 7063TIP3   OH242679   5.336   4.726   0.375 -1.3365 -0.1675  0.5652
 7063TIP3    H142680   5.292   4.766   0.450 -1.8257  1.6661 -0.6319
 7063TIP3    H242681   5.267   4.715   0.310 -0.6779 -0.5532 -0.0842
 7064TIP3   OH242682   5.340   4.372  12.909  0.5159  0.0204  0.2592
 7064TIP3    H142683   5.410   4.385  12.973 -1.0225 -0.0169  2.0361
 7064TIP3    H242684   5.269   4.330  12.958 -1.2184  1.0977 -1.1491
 7065TIP3   OH242685   0.659   5.003   4.497 -0.2184  0.2575 -0.2361
 7065TIP3    H142686   0.674   4.915   4.464 -1.1511 -0.0682  0.1898
 7065TIP3    H242687   0.674   5.060   4.421  1.3526 -0.1648 -0.2849
 7066TIP3   OH242688   2.145   4.260   5.909 -0.5146  0.1800  0.0722
 7066TIP3    H142689   2.225   4.248   5.961 -1.2032 -0.5145  1.0109
 7066TIP3    H242690   2.092   4.183   5.930 -0.7043 -0.2851 -1.8994
 7067TIP3   OH242691   5.365   5.737   2.253 -0.1085 -0.7601  0.5777
 7067TIP3    H142692   5.459   5.719   2.262  0.5548  1.4732 -1.1724
 7067TIP3    H242693   5.357   5.831   2.269 -2.3170 -1.1387  2.1528
 7068TIP3   OH242694   3.081   0.756  12.727 -0.1804  0.0344  0.3323
 7068TIP3    H142695   3.037   0.817  12.668  0.0808 -2.2565 -2.4203
 7068TIP3    H242696   3.153   0.807  12.765  0.1041  1.4309 -1.9190
 7069TIP3   OH242697   3.407   5.154   2.339 -0.0607 -0.0708 -0.0999
 7069TIP3    H142698   3.331   5.098   2.357 -1.3460  1.2715 -1.0649
 7069TIP3    H242699   3.378   5.210   2.266  1.5881  1.0201  0.0411
 7070TIP3   OH242700   2.226   1.828  14.063 -0.9021 -0.3609  0.5685
 7070TIP3    H142701   2.229   1.922  14.044 -2.3962 -0.3637  0.2364
 7070TIP3    H242702   2.264   1.820  14.151 -0.2722  0.4741  0.3877
 7071TIP3   OH242703   3.121   2.904   0.025 -0.0667  0.7593  0.0405
 7071TIP3    H142704   3.193   2.956   0.061 -0.6814  0.1848  2.2864
 7071TIP3    H242705   3.042   2.947   0.059 -0.6346 -0.5940  0.4729
 7072TIP3   OH242706   6.338   1.674   5.734 -0.0200 -0.0387 -0.1623
 7072TIP3    H142707   6.384   1.634   5.808 -2.1339 -1.7664  0.3014
 7072TIP3    H242708   6.316   1.601   5.676  1.0587  1.2060 -2.2706
 7073TIP3   OH242709   1.672   3.846   1.049  0.1283 -0.3533  0.5046
 7073TIP3    H142710   1.626   3.762   1.050  0.1532 -0.3640  1.2585
 7073TIP3    H242711   1.759   3.826   1.082  0.3141 -0.1288  0.1536
 7074TIP3   OH242712   1.231   5.895   1.801  0.2556  0.0618  0.0114
 7074TIP3    H142713   1.140   5.926   1.793 -0.7459 -2.7270 -0.4921
 7074TIP3    H242714   1.224   5.800   1.805  3.2310 -0.2868 -0.5799
 7075TIP3   OH242715   4.871   5.857   0.082  0.0261  0.1522 -0.4273
 7075TIP3    H142716   4.952   5.808   0.065  0.8899  1.4233 -0.0676
 7075TIP3    H242717   4.814   5.793   0.126  1.2270 -0.4759  0.2823
 7076TIP3   OH242718   5.405   6.259   0.132  0.3182 -0.6938 -0.3507
 7076TIP3    H142719   5.331   6.202   0.155 -1.1297  1.5932  1.0853
 7076TIP3    H242720   5.472   6.238   0.197 -1.5703  1.6163  2.6281
 7077TIP3   OH242721   2.404   3.996   3.999  0.2073  0.1460  0.3313
 7077TIP3    H142722   2.311   3.994   4.021 -0.1110  1.5523 -0.7814
 7077TIP3    H242723   2.449   3.997   4.084 -0.8295  0.7530  0.8868
 7078TIP3   OH242724   2.795   1.970   0.758 -0.5979  0.5289 -0.0875
 7078TIP3    H142725   2.702   1.951   0.772 -0.1313 -0.3657  2.3657
 7078TIP3    H242726   2.824   1.900   0.699 -0.9718 -0.7900  1.2211
 7079TIP3   OH242727   2.828   5.477   2.893 -0.1283  0.2164 -0.0149
 7079TIP3    H142728   2.920   5.489   2.915 -0.2549  2.0318 -0.2881
 7079TIP3    H242729   2.811   5.541   2.823 -1.1761 -1.3005 -1.2327
 7080TIP3   OH242730   5.165   3.633   0.056 -0.3547  0.3555  0.2362
 7080TIP3    H142731   5.153   3.630  -0.039 -0.6680  0.6977  0.2642
 7080TIP3    H242732   5.088   3.679   0.088 -0.4999 -0.1940  0.7031
 7081TIP3   OH242733   0.289   1.513   4.916  0.3480 -0.0472  0.6127
 7081TIP3    H142734   0.226   1.585   4.919  1.5080  1.0518 -0.5111
 7081TIP3    H242735   0.254   1.453   4.851  1.2189  1.3504 -1.2127
 7082TIP3   OH242736   0.344   3.353  13.989 -0.0609 -0.5590  1.1138
 7082TIP3    H142737   0.280   3.295  14.031 -0.4219  0.0063  1.3501
 7082TIP3    H242738   0.362   3.311  13.905 -0.4023 -0.9557  1.2357
 7083TIP3   OH242739   3.421   6.846  14.579  0.2181  0.1518 -0.3647
 7083TIP3    H142740   3.500   6.794  14.565 -0.1157 -0.3975 -0.2214
 7083TIP3    H242741   3.366   6.792  14.635  0.5267  1.3119  1.1171
 7084TIP3   OH242742   1.917   0.262  13.482  0.1571  0.1575 -0.5058
 7084TIP3    H142743   1.871   0.290  13.403  1.2960  2.5229 -0.4349
 7084TIP3    H242744   1.852   0.270  13.552 -0.0362  1.0192 -0.7735
 7085TIP3   OH242745   0.987   4.278   0.963  0.2110 -0.7575 -0.5073
 7085TIP3    H142746   1.031   4.193   0.967 -0.9230 -1.3806 -0.9378
 7085TIP3    H242747   0.896   4.259   0.987 -0.4786  0.0021 -2.3546
 7086TIP3   OH242748   1.785   1.488  16.000 -0.4123  0.3491 -0.8193
 7086TIP3    H142749   1.825   1.408  16.035 -0.9395 -0.0127 -1.0361
 7086TIP3    H242750   1.822   1.558  16.054  0.4480  0.0175 -0.9599
 7087TIP3   OH242751   5.463   0.726  14.154 -0.2360  0.3120 -0.0854
 7087TIP3    H142752   5.450   0.731  14.060 -1.2687  1.6170  0.0968
 7087TIP3    H242753   5.512   0.645  14.168  1.0479  0.7432 -1.8388
 7088TIP3   OH242754   1.531   3.112  14.847  0.1652 -0.4441 -0.3128
 7088TIP3    H142755   1.461   3.046  14.846  0.2758 -0.5818  0.5265
 7088TIP3    H242756   1.571   3.103  14.933 -2.4748  3.4874  1.6235
 7089TIP3   OH242757   0.205   5.273   2.260 -0.8874 -0.2798 -0.2189
 7089TIP3    H142758   0.180   5.200   2.202  0.8215 -0.3107 -0.9675
 7089TIP3    H242759   0.295   5.293   2.236 -1.6395  2.9003 -0.8646
 7090TIP3   OH242760   5.748   1.131  14.451  0.1012 -0.3608 -0.3573
 7090TIP3    H142761   5.771   1.153  14.541  0.3519 -0.6920 -0.3363
 7090TIP3    H242762   5.734   1.215  14.408 -2.6484 -0.2004  0.6381
 7091TIP3   OH242763   4.908   5.318   5.025  0.2799 -0.1854  0.3267
 7091TIP3    H142764   4.862   5.399   5.049 -0.9649 -0.6707 -0.3416
 7091TIP3    H242765   4.839   5.258   5.000  1.3478 -0.4247 -2.3432
 7092TIP3   OH242766   5.425   2.545   5.897 -0.0903 -0.3141  0.0334
 7092TIP3    H142767   5.335   2.572   5.913  0.3983  0.9065  0.8869
 7092TIP3    H242768   5.446   2.489   5.972  0.2089  0.3158  0.4262
 7093TIP3   OH242769   3.379   4.114   0.461  0.6604  0.2792 -0.6470
 7093TIP3    H142770   3.375   4.054   0.387  1.0604 -1.5020  0.7156
 7093TIP3    H242771   3.346   4.063   0.535  0.6670  1.8672  0.4957
 7094TIP3   OH242772   2.709   3.773   2.689  0.3810 -0.2290  0.1820
 7094TIP3    H142773   2.762   3.847   2.718 -1.8646  1.5379  0.0524
 7094TIP3    H242774   2.619   3.798   2.712 -0.6009 -2.3159 -1.1218
 7095TIP3   OH242775   4.566   0.192  11.123  0.2928 -0.6247 -0.4121
 7095TIP3    H142776   4.606   0.231  11.201 -2.4915 -0.3558  1.0362
 7095TIP3    H242777   4.572   0.261  11.056 -1.4259  1.0800  1.0596
 7096TIP3   OH242778   5.440   0.974   4.288  0.1215 -0.1789 -0.1896
 7096TIP3    H142779   5.376   1.042   4.309 -0.9305 -0.8008 -1.2602
 7096TIP3    H242780   5.521   1.021   4.270 -0.1848  0.6682  0.5893
 7097TIP3   OH242781   0.764   6.756   4.631  0.1103 -0.1775  0.1131
 7097TIP3    H142782   0.812   6.752   4.548  1.3925 -1.4172  0.8806
 7097TIP3    H242783   0.738   6.848   4.640 -0.2008 -0.0435 -1.7219
 7098TIP3   OH242784   1.770   2.256  11.756 -0.1254  0.1911  0.4910
 7098TIP3    H142785   1.715   2.307  11.816  0.2750 -0.5896  1.5680
 7098TIP3    H242786   1.846   2.312  11.740 -1.0275  1.1228 -0.7129
 7099TIP3   OH242787   6.823   1.568  13.921  0.0574 -0.3615  0.4591
 7099TIP3    H142788   6.860   1.481  13.937  0.9164 -0.1434 -0.2870
 7099TIP3    H242789   6.733   1.550  13.892  0.9217 -1.1875 -1.9818
 7100TIP3   OH242790   2.215   4.952   1.614  0.0886 -0.3683 -0.0591
 7100TIP3    H142791   2.140   4.967   1.558  0.3533  0.1885 -0.2757
 7100TIP3    H242792   2.264   4.882   1.571 -0.4159 -0.8873  0.2014
 7101TIP3   OH242793   2.566   2.503  14.516 -0.2221  0.1827  0.2560
 7101TIP3    H142794   2.632   2.455  14.565  0.0693  1.9281  1.6986
 7101TIP3    H242795   2.594   2.594  14.521 -1.7277  0.7390 -0.7475
 7102TIP3   OH242796   0.054   5.286   2.538 -0.8086  0.0163  0.2161
 7102TIP3    H142797   0.068   5.238   2.456  0.0585  1.3481 -0.4503
 7102TIP3    H242798   0.043   5.218   2.604  1.7250 -1.1592 -0.4528
 7103TIP3   OH242799   1.031   4.072  14.284  0.1383  0.1693  0.4805
 7103TIP3    H142800   0.950   4.093  14.238 -0.3379 -2.7256 -0.1878
 7103TIP3    H242801   1.090   4.040  14.215  1.6149  1.4409  1.0778
 7104TIP3   OH242802   4.193   2.925   3.969 -0.0281 -0.3806  0.0212
 7104TIP3    H142803   4.248   2.924   4.048  0.1944  0.1059 -0.1178
 7104TIP3    H242804   4.184   3.018   3.949  0.6713 -0.5258 -1.0414
 7105TIP3   OH242805   6.826   4.740   2.147 -0.3546 -0.1756  0.2697
 7105TIP3    H142806   6.897   4.710   2.204  0.4943  0.2817 -0.5140
 7105TIP3    H242807   6.772   4.662   2.133  1.0360 -1.0149 -0.6156
 7106TIP3   OH242808   4.979   4.097  16.936  0.0567  0.2521 -0.2296
 7106TIP3    H142809   5.016   4.032  16.876  0.6537  0.1610  0.2289
 7106TIP3    H242810   5.027   4.177  16.918  0.0164  0.3068 -0.0953
 7107TIP3   OH242811   0.540   3.380   0.096 -0.3271 -0.3740  0.1250
 7107TIP3    H142812   0.499   3.443   0.036 -0.5604 -0.2989  0.3638
 7107TIP3    H242813   0.606   3.432   0.143 -0.2623 -0.3936  0.0568
 7108TIP3   OH242814   5.104   4.271  12.571 -0.0129 -0.3199 -0.4231
 7108TIP3    H142815   5.136   4.345  12.623  0.9436  0.7284 -2.3771
 7108TIP3    H242816   5.020   4.299  12.537  0.6194  0.1705 -1.6546
 7109TIP3   OH242817   5.546   1.151  16.260  0.1800  0.1178  0.0356
 7109TIP3    H142818   5.546   1.092  16.184 -1.7117 -1.3846  1.1321
 7109TIP3    H242819   5.512   1.099  16.332  0.8473  1.8439  1.6955
 7110TIP3   OH242820   4.749   1.247   3.057  0.0014 -0.1568  0.0228
 7110TIP3    H142821   4.754   1.341   3.073  0.2624 -0.2967  0.8096
 7110TIP3    H242822   4.656   1.226   3.064 -0.2245  0.2346 -1.3934
 7111TIP3   OH242823   4.594   1.273  15.481 -0.0385  0.2363  0.4316
 7111TIP3    H142824   4.623   1.186  15.510 -1.0288 -0.0098  0.7351
 7111TIP3    H242825   4.671   1.329  15.491  0.8378 -0.7711 -0.5127
 7112TIP3   OH242826   2.887   3.567  10.692  0.2974 -0.0107 -0.6541
 7112TIP3    H142827   2.867   3.538  10.603 -0.5881  0.3283 -0.5801
 7112TIP3    H242828   2.971   3.612  10.684  0.8457 -1.0613 -1.0811
 7113TIP3   OH242829   2.340   0.721  13.681 -0.1835  0.1911  0.0937
 7113TIP3    H142830   2.423   0.673  13.675 -0.1326  0.1740  0.8435
 7113TIP3    H242831   2.276   0.655  13.710 -0.9282 -0.2965 -2.4297
 7114TIP3   OH242832   6.104   2.595  11.956  0.0797 -0.0398  0.2110
 7114TIP3    H142833   6.151   2.560  12.032  1.5304  0.1521 -0.5576
 7114TIP3    H242834   6.173   2.625  11.897 -1.0444  0.8407 -0.7070
 7115TIP3   OH242835   5.700   2.513  15.224  0.2870  0.6065 -0.3099
 7115TIP3    H142836   5.791   2.501  15.195  0.7274  0.5705  1.0277
 7115TIP3    H242837   5.702   2.495  15.317 -0.7356  2.4006  0.1161
 7116TIP3   OH242838   2.545   4.661  16.132  0.1580  0.4078 -0.1344
 7116TIP3    H142839   2.532   4.748  16.094  0.1482  0.4167 -0.1107
 7116TIP3    H242840   2.564   4.678  16.224  2.1784  0.5111 -0.5331
 7117TIP3   OH242841   5.023   4.355   0.892  0.0614  0.2289 -0.0963
 7117TIP3    H142842   5.006   4.442   0.857  1.1579 -0.0765 -1.5076
 7117TIP3    H242843   4.995   4.359   0.983 -1.4476  1.5480 -0.5767
 7118TIP3   OH242844   6.237   5.198   3.811  0.0339 -0.0404  0.3283
 7118TIP3    H142845   6.293   5.235   3.880  0.4696 -0.9006  0.4527
 7118TIP3    H242846   6.270   5.237   3.730  1.2756 -1.0287  0.3264
 7119TIP3   OH242847   1.464   3.357   4.588  0.0313 -0.1390  0.6826
 7119TIP3    H142848   1.375   3.374   4.621  0.2183  1.0477  0.6348
 7119TIP3    H242849   1.519   3.419   4.636  0.7387 -0.4120  0.2372
 7120TIP3   OH242850   6.253   6.139  15.681 -0.3134 -0.0573  1.3525
 7120TIP3    H142851   6.160   6.131  15.700 -1.0474 -0.0242 -1.6821
 7120TIP3    H242852   6.280   6.052  15.654 -0.7690  0.8022 -2.4084
 7121TIP3   OH242853   4.692   3.704   0.814  0.3390  0.2365 -0.2425
 7121TIP3    H142854   4.603   3.723   0.845  0.1337 -0.8520 -0.1387
 7121TIP3    H242855   4.739   3.786   0.826 -0.7670  0.9709 -0.7242
 7122TIP3   OH242856   0.450   4.478  15.370 -0.4017  0.0379  0.2384
 7122TIP3    H142857   0.414   4.469  15.281 -1.3681  1.9543  0.3842
 7122TIP3    H242858   0.384   4.437  15.426 -0.7693  0.5851  0.2180
 7123TIP3   OH242859   2.998   5.400   6.437  0.5568  0.1904 -0.3106
 7123TIP3    H142860   3.039   5.361   6.360  0.4182  0.0318 -0.3051
 7123TIP3    H242861   2.988   5.326   6.498 -2.9963 -0.6145 -1.6327
 7124TIP3   OH242862   4.401   6.651   0.812  0.5053  0.7546  0.3961
 7124TIP3    H142863   4.362   6.608   0.735  1.2583  0.7031  0.0362
 7124TIP3    H242864   4.481   6.692   0.779 -0.6274  3.2591  0.5214
 7125TIP3   OH242865   4.280   4.108  12.794 -0.0359 -0.3019  0.0138
 7125TIP3    H142866   4.294   4.053  12.717 -1.3180 -1.2388  0.4184
 7125TIP3    H242867   4.349   4.082  12.855 -1.1089 -2.1002  0.5202
 7126TIP3   OH242868   5.658   5.432  13.438  0.1672 -0.3104 -0.4262
 7126TIP3    H142869   5.731   5.467  13.489  0.2038 -1.3253  0.2527
 7126TIP3    H242870   5.619   5.509  13.397  2.0973  0.2001 -1.4780
 7127TIP3   OH242871   2.065   5.720   0.717 -0.0684 -0.2925  0.3139
 7127TIP3    H142872   2.116   5.640   0.704  0.9923  0.3279  0.4752
 7127TIP3    H242873   2.052   5.725   0.812  0.6377  0.1606  0.3987
 7128TIP3   OH242874   2.404   6.301  12.769  0.1297 -0.5999 -0.0444
 7128TIP3    H142875   2.482   6.339  12.810 -0.6730  1.7241 -0.5624
 7128TIP3    H242876   2.339   6.300  12.839 -0.4010  0.7412 -0.5028
 7129TIP3   OH242877   6.526   6.736  10.514  0.6119  0.3483  0.5715
 7129TIP3    H142878   6.518   6.830  10.530  2.1688  0.4720  0.8041
 7129TIP3    H242879   6.438   6.709  10.488  0.2389  1.9503  0.0249
 7130TIP3   OH242880   3.990   1.287   3.659 -0.5219  0.1599  0.5450
 7130TIP3    H142881   4.008   1.348   3.587  0.0295 -1.4271 -0.7021
 7130TIP3    H242882   4.071   1.285   3.709 -0.0066 -0.6528 -0.2838
 7131TIP3   OH242883   4.066   0.350  11.306  0.5840 -0.2133 -0.2165
 7131TIP3    H142884   4.020   0.427  11.338  0.3441 -0.4833  0.0935
 7131TIP3    H242885   4.158   0.376  11.303  0.3733  0.5221 -1.3750
 7132TIP3   OH242886   4.351   6.050   5.597  0.4538 -0.0654 -0.3316
 7132TIP3    H142887   4.330   6.126   5.543  2.1548  0.0904 -0.8088
 7132TIP3    H242888   4.407   6.084   5.666 -1.4638 -0.3118  1.4546
 7133TIP3   OH242889   3.201   1.309   1.284  0.0240 -0.0225 -0.2781
 7133TIP3    H142890   3.214   1.250   1.359 -3.9005  0.0728  0.6880
 7133TIP3    H242891   3.216   1.253   1.207 -0.1520 -1.3220  0.6016
 7134TIP3   OH242892   3.130   5.333   1.183 -0.1431 -0.7338  0.1189
 7134TIP3    H142893   3.056   5.282   1.149  0.3674 -1.9174  0.7426
 7134TIP3    H242894   3.179   5.272   1.238  0.9333  0.2158  0.2621
 7135TIP3   OH242895   1.122   6.791  14.471  0.5908 -0.0641 -0.2202
 7135TIP3    H142896   1.050   6.851  14.491  1.8241  1.2409  0.4591
 7135TIP3    H242897   1.080   6.717  14.427 -1.1286  0.7593 -0.0361
 7136TIP3   OH242898   4.525   6.293  15.731 -0.0027 -0.3805  0.0107
 7136TIP3    H142899   4.611   6.253  15.741  0.3111  0.7245  2.3624
 7136TIP3    H242900   4.468   6.242  15.788 -0.1803  0.8014  0.9350
 7137TIP3   OH242901   5.338   1.440  16.657 -0.6828  0.2066  0.2428
 7137TIP3    H142902   5.385   1.358  16.666 -0.7909  0.1489  0.2771
 7137TIP3    H242903   5.256   1.417  16.614  0.5522  0.7105 -2.6069
 7138TIP3   OH242904   4.212   4.034  10.823  0.7752  0.3950 -0.3398
 7138TIP3    H142905   4.219   4.041  10.728  1.2146 -1.5722 -0.5111
 7138TIP3    H242906   4.238   3.943  10.842  2.4381  1.2452  1.8309
 7139TIP3   OH242907   2.736   4.333  14.348 -0.7642  0.3619 -0.3037
 7139TIP3    H142908   2.646   4.356  14.325 -0.8748  1.3780  0.9996
 7139TIP3    H242909   2.769   4.283  14.274 -3.5742 -3.3080  0.6668
 7140TIP3   OH242910   3.832   2.877  16.813 -0.0011  0.5871  0.0670
 7140TIP3    H142911   3.746   2.837  16.823  0.6662 -0.6323  1.2520
 7140TIP3    H242912   3.853   2.910  16.900  1.0517  0.1772 -0.0193
 7141TIP3   OH242913   1.553   6.128  14.683  0.5257  0.3078 -0.1287
 7141TIP3    H142914   1.594   6.200  14.731  2.6616 -0.6608 -0.3820
 7141TIP3    H242915   1.488   6.093  14.744  1.2672  0.8326  1.0079
 7142TIP3   OH242916   3.239   3.778   1.823  0.0303 -0.5037 -0.8153
 7142TIP3    H142917   3.322   3.734   1.842  1.1260  0.6466 -2.6486
 7142TIP3    H242918   3.252   3.868   1.854 -1.0120 -0.6153 -0.0040
 7143TIP3   OH242919   1.283   4.420  14.296 -0.0885  0.0545  0.3256
 7143TIP3    H142920   1.317   4.330  14.300  1.5854  0.5502 -1.2697
 7143TIP3    H242921   1.291   4.444  14.204 -0.9371  1.7103  0.6490
 7144TIP3   OH242922   1.252   3.964  11.203  0.1139  0.1612  0.4724
 7144TIP3    H142923   1.313   4.038  11.206 -0.3986  0.7398 -1.7093
 7144TIP3    H242924   1.304   3.892  11.167  0.4639 -0.4625  2.1017
 7145TIP3   OH242925   2.239   5.422   1.745 -0.0829  0.0036 -0.3364
 7145TIP3    H142926   2.161   5.466   1.713  1.7450  2.4869 -1.7829
 7145TIP3    H242927   2.258   5.466   1.828 -0.9987 -1.6588  0.8025
 7146TIP3   OH242928   3.131   2.004  12.667  0.1858 -0.1867  0.8953
 7146TIP3    H142929   3.185   1.925  12.668  1.1028  0.3958 -0.0717
 7146TIP3    H242930   3.185   2.070  12.710  0.8953  0.7758 -1.3511
 7147TIP3   OH242931   2.259   1.286   2.259 -0.1845 -0.2978 -0.5748
 7147TIP3    H142932   2.184   1.335   2.293 -1.3958 -1.7418 -1.0975
 7147TIP3    H242933   2.294   1.342   2.189 -0.3907  0.6482  0.0539
 7148TIP3   OH242934   3.892   2.665   4.162 -0.3292 -0.6800 -0.0754
 7148TIP3    H142935   3.956   2.595   4.150 -0.3198 -0.4891 -1.2191
 7148TIP3    H242936   3.906   2.724   4.089 -2.7249 -1.3410 -1.1768
 7149TIP3   OH242937   4.710   0.854  14.010  0.2589  0.2945 -0.5188
 7149TIP3    H142938   4.662   0.789  14.061  0.4461  1.0938  0.7195
 7149TIP3    H242939   4.763   0.802  13.949 -1.6662 -0.6097 -1.4937
 7150TIP3   OH242940   4.698   1.705  12.462 -0.2565  0.2299  0.0693
 7150TIP3    H142941   4.776   1.727  12.410  0.6677 -0.3912  1.1561
 7150TIP3    H242942   4.634   1.674  12.397  0.2798  1.0198 -0.8724
 7151TIP3   OH242943   5.616   3.787   5.378 -0.0906  0.1325 -0.4849
 7151TIP3    H142944   5.702   3.762   5.345  0.4287  1.8056 -0.4753
 7151TIP3    H242945   5.574   3.832   5.304 -1.7891 -2.3483 -1.1665
 7152TIP3   OH242946   3.382   4.774  12.398  0.7254  0.3313 -0.2543
 7152TIP3    H142947   3.375   4.723  12.317  0.9191  0.3104 -0.2575
 7152TIP3    H242948   3.426   4.854  12.373 -0.1866  0.8090 -0.3852
 7153TIP3   OH242949   4.388   3.399   0.329  0.0503  0.5468 -0.0813
 7153TIP3    H142950   4.451   3.330   0.349 -0.5129 -0.2313 -0.8919
 7153TIP3    H242951   4.328   3.359   0.265 -2.6289  0.4996  2.2665
 7154TIP3   OH242952   6.296   1.961   3.569  0.2219 -0.3815  0.5879
 7154TIP3    H142953   6.329   1.874   3.593 -1.0071 -1.1422 -0.3615
 7154TIP3    H242954   6.363   2.022   3.600  0.3704 -1.5412  2.7430
 7155TIP3   OH242955   1.073   1.187   3.028 -0.9905 -0.3700  0.6180
 7155TIP3    H142956   1.154   1.142   3.053 -0.8117 -0.0772  0.5665
 7155TIP3    H242957   1.035   1.130   2.960 -1.0074 -0.6870  0.8887
 7156TIP3   OH242958   0.900   5.409   5.731 -0.6170  0.5284 -0.4053
 7156TIP3    H142959   0.909   5.448   5.818 -0.7051  0.6642 -0.4555
 7156TIP3    H242960   0.976   5.352   5.722 -0.3385  0.8930 -0.4328
 7157TIP3   OH242961   0.925   3.601  13.920  0.2230 -0.2327 -0.1160
 7157TIP3    H142962   0.900   3.511  13.942 -1.9752 -0.2424 -2.1462
 7157TIP3    H242963   0.943   3.643  14.004  3.1966 -2.9770  0.8143
 7158TIP3   OH242964   3.494   0.783  14.155 -0.1365  0.4495 -0.0766
 7158TIP3    H142965   3.513   0.876  14.158 -0.8455  0.5855  1.6818
 7158TIP3    H242966   3.559   0.746  14.095 -0.5623  2.2038 -1.7193
 7159TIP3   OH242967   4.861   5.190  15.272  0.7370  0.2418  0.0101
 7159TIP3    H142968   4.819   5.250  15.334  2.5053 -0.7421  2.3362
 7159TIP3    H242969   4.824   5.104  15.294 -0.3926  0.1444 -2.0278
 7160TIP3   OH242970   1.854   4.611  16.676  0.2278 -0.2520 -0.4320
 7160TIP3    H142971   1.847   4.653  16.590  0.3384 -1.0858 -0.8500
 7160TIP3    H242972   1.946   4.623  16.700  0.5083 -1.1575 -1.0232
 7161TIP3   OH242973   4.880   4.323   3.029 -0.3574  0.1134 -0.1269
 7161TIP3    H142974   4.785   4.314   3.025 -0.2557 -0.7574 -0.9366
 7161TIP3    H242975   4.894   4.405   3.076 -1.5376  1.1056 -1.3844
 7162TIP3   OH242976   5.806   5.987   0.073  0.1910 -0.4922 -0.3544
 7162TIP3    H142977   5.747   5.946   0.137  0.2925  0.5092  0.4275
 7162TIP3    H242978   5.755   6.061   0.039  0.6487 -0.1868 -0.3820
 7163TIP3   OH242979   3.550   5.712  15.628 -0.8177 -0.3571 -0.1700
 7163TIP3    H142980   3.532   5.801  15.597 -0.5952  0.0098  0.7403
 7163TIP3    H242981   3.543   5.717  15.723 -2.6475 -1.7153 -0.1576
 7164TIP3   OH242982   2.285   1.094  11.912 -0.1367  0.2090 -0.2700
 7164TIP3    H142983   2.364   1.094  11.858 -0.0081  0.4721 -0.0794
 7164TIP3    H242984   2.299   1.162  11.977 -0.3112 -0.0783  0.0753
 7165TIP3   OH242985   2.179   4.744  13.180 -0.0936 -0.5524  0.1551
 7165TIP3    H142986   2.216   4.790  13.105  2.9415 -2.9080 -0.0019
 7165TIP3    H242987   2.087   4.734  13.159  0.7367 -1.8068 -3.7139
 7166TIP3   OH242988   0.398   3.986   0.458  0.1570 -0.1067  0.6198
 7166TIP3    H142989   0.307   3.975   0.432  0.4171 -0.4945 -0.1503
 7166TIP3    H242990   0.441   4.025   0.382  0.7249 -0.3373  0.8162
 7167TIP3   OH242991   2.495   3.957   1.458  0.0891  0.3454  0.1184
 7167TIP3    H142992   2.528   3.963   1.368 -0.5342  0.3060 -0.1159
 7167TIP3    H242993   2.574   3.954   1.512  0.4895  1.4868 -0.3538
 7168TIP3   OH242994   5.728   5.437  15.090 -0.0279 -0.1573 -0.8041
 7168TIP3    H142995   5.632   5.436  15.101 -0.0721 -1.7315 -1.1026
 7168TIP3    H242996   5.752   5.529  15.100 -1.4677  0.1492  0.1685
 7169TIP3   OH242997   2.425   6.551   2.197  0.9094  0.3552 -0.4095
 7169TIP3    H142998   2.342   6.559   2.245  1.0031  0.4697 -0.2644
 7169TIP3    H242999   2.474   6.484   2.245  0.1219 -1.1824 -1.6322
 7170TIP3   OH243000   2.106   5.070  13.951  0.1279  0.7843  0.2742
 7170TIP3    H143001   2.099   5.124  13.872  0.8347  0.5108  0.0233
 7170TIP3    H243002   2.070   5.125  14.020  1.2247  1.7390  0.0994
 7171TIP3   OH243003   0.655   6.744   0.445 -0.3251  0.2697  0.6825
 7171TIP3    H143004   0.672   6.665   0.394 -1.2629  0.0041  0.7722
 7171TIP3    H243005   0.711   6.735   0.523 -0.4823 -0.3358  0.7275
 7172TIP3   OH243006   0.425   2.853   3.922 -0.1934 -0.4273 -0.1238
 7172TIP3    H143007   0.431   2.944   3.953 -0.9073 -0.8740  1.3945
 7172TIP3    H243008   0.459   2.857   3.833 -2.4483  1.7867 -1.0096
 7173TIP3   OH243009   0.900   5.171   4.080 -0.5103 -0.7042  0.0445
 7173TIP3    H143010   0.892   5.226   4.158  0.3611 -1.0735  0.4154
 7173TIP3    H243011   0.834   5.103   4.092 -2.1128  0.6459 -0.7809
 7174TIP3   OH243012   5.507   0.629  14.754  0.5648 -0.2332  0.0195
 7174TIP3    H143013   5.593   0.593  14.733 -0.0731 -0.6538 -2.1636
 7174TIP3    H243014   5.451   0.551  14.763  0.1192  0.0671 -0.1287
 7175TIP3   OH243015   4.735   2.771  15.187  0.3770 -0.1108  0.0848
 7175TIP3    H143016   4.714   2.764  15.281  1.9926 -0.2141  0.4641
 7175TIP3    H243017   4.708   2.860  15.164 -0.3566 -0.1988  0.5599
 7176TIP3   OH243018   0.863   2.142  15.851 -0.0209  0.5940 -0.1166
 7176TIP3    H143019   0.878   2.220  15.904 -5.1663  2.2936 -0.6294
 7176TIP3    H243020   0.804   2.087  15.904  0.1867 -0.9625 -1.4121
 7177TIP3   OH243021   6.065   1.200   1.134 -0.1169 -0.1248  0.4035
 7177TIP3    H143022   6.124   1.141   1.087 -0.3578 -0.5383  0.6080
 7177TIP3    H243023   5.977   1.166   1.115 -0.2639  0.2311  0.4386
 7178TIP3   OH243024   4.775   3.305  12.457  0.5629 -0.4532  0.3354
 7178TIP3    H143025   4.806   3.346  12.376  0.4796 -2.1881 -0.6193
 7178TIP3    H243026   4.734   3.224  12.428  0.8955 -1.3113  2.1513
 7179TIP3   OH243027   5.302   3.883  13.947 -0.4168  0.6766  0.0534
 7179TIP3    H143028   5.387   3.841  13.935 -0.2390  0.9373  0.3771
 7179TIP3    H243029   5.251   3.820  13.998 -1.3294 -0.6303 -2.3529
 7180TIP3   OH243030   2.446   1.999  12.872 -0.1169 -0.7289  0.4797
 7180TIP3    H143031   2.445   2.095  12.874  1.5047 -0.6742  0.0172
 7180TIP3    H243032   2.405   1.972  12.954  1.4995  0.3980  1.7074
 7181TIP3   OH243033   5.768   2.404   6.345  0.0177  0.0067  0.6803
 7181TIP3    H143034   5.758   2.332   6.282  2.9773  1.2307 -1.4579
 7181TIP3    H243035   5.804   2.363   6.423 -3.9939 -1.6064  1.9310
 7182TIP3   OH243036   2.851   3.896   4.278  0.2455 -0.6591 -0.3657
 7182TIP3    H143037   2.835   3.986   4.248  0.1139 -0.5089  0.1415
 7182TIP3    H243038   2.776   3.876   4.334  1.8401  0.0986  2.1765
 7183TIP3   OH243039   3.964   4.552  10.717  0.5307 -0.1303  0.6286
 7183TIP3    H143040   3.965   4.487  10.647  1.8096 -0.4775  0.9344
 7183TIP3    H243041   3.999   4.505  10.793  1.7818  0.9927  0.7808
 7184TIP3   OH243042   0.211   6.104  13.744 -0.1496 -0.1366  0.1581
 7184TIP3    H143043   0.136   6.052  13.775 -0.1223 -0.7752 -0.7835
 7184TIP3    H243044   0.283   6.078  13.801 -0.6947  0.7129  1.2744
 7185TIP3   OH243045   3.898   2.794  14.430  0.1991 -0.2617 -0.1800
 7185TIP3    H143046   3.948   2.816  14.352  0.9157 -1.9611 -0.2364
 7185TIP3    H243047   3.962   2.797  14.502  0.0167 -0.8132  0.0084
 7186TIP3   OH243048   2.050   5.764   3.687  0.2979  0.1426  0.2162
 7186TIP3    H143049   2.012   5.719   3.611  0.5643 -0.7399  0.5934
 7186TIP3    H243050   2.123   5.815   3.651  0.5263 -0.3987 -0.1011
 7187TIP3   OH243051   6.394   4.375  14.356  0.0380 -0.6479  0.0353
 7187TIP3    H143052   6.405   4.303  14.295 -1.3724 -1.2540  0.4689
 7187TIP3    H243053   6.355   4.336  14.434  1.8020  0.0989  1.3776
 7188TIP3   OH243054   1.787   0.177   5.676  0.1102  0.0331  0.5375
 7188TIP3    H143055   1.699   0.139   5.669 -0.5974  1.6150  0.4764
 7188TIP3    H243056   1.846   0.101   5.679 -1.1474 -1.0495 -0.7927
 7189TIP3   OH243057   4.478   3.499  14.872 -0.1727 -0.0318  0.1552
 7189TIP3    H143058   4.432   3.462  14.948 -1.3151 -0.6523 -0.8041
 7189TIP3    H243059   4.507   3.423  14.823  1.7488  0.3534  0.6125
 7190TIP3   OH243060   2.966   2.377   2.077  0.0102 -0.6249 -0.5244
 7190TIP3    H143061   3.060   2.358   2.085 -0.0457 -1.0511 -0.7989
 7190TIP3    H243062   2.923   2.307   2.127 -0.1583 -0.4376 -0.4082
 7191TIP3   OH243063   0.215   0.106   1.842 -0.0389 -0.1336 -0.5232
 7191TIP3    H143064   0.234   0.082   1.933  2.2825  1.3633 -0.5259
 7191TIP3    H243065   0.165   0.032   1.808  0.4832 -1.5048  1.5080
 7192TIP3   OH243066   2.318   0.596  13.285  0.2218  0.5587 -0.2738
 7192TIP3    H143067   2.293   0.557  13.201 -0.3690  0.3616 -0.0107
 7192TIP3    H243068   2.410   0.619  13.274  0.4549 -0.4686 -0.5989
 7193TIP3   OH243069   6.723   0.566  12.803  0.2407 -0.3764 -0.0860
 7193TIP3    H143070   6.642   0.561  12.752 -0.1359  0.3401  0.4353
 7193TIP3    H243071   6.712   0.501  12.872 -0.4689  0.6377  0.7822
 7194TIP3   OH243072   5.117   3.817   1.101 -0.0134 -0.1071  0.4525
 7194TIP3    H143073   5.207   3.837   1.127  0.6240  0.3963 -1.8877
 7194TIP3    H243074   5.122   3.733   1.056 -0.7346 -0.1349  0.3995
 7195TIP3   OH243075   1.494   2.758  16.784  0.1330  0.1840 -0.3337
 7195TIP3    H143076   1.572   2.788  16.832  1.3722  0.6682 -2.5130
 7195TIP3    H243077   1.432   2.734  16.853  2.3161 -0.5707  1.5228
 7196TIP3   OH243078   4.577   3.681   6.142 -0.7908 -0.0073  0.5900
 7196TIP3    H143079   4.518   3.614   6.176 -0.8187  0.0210  0.5968
 7196TIP3    H243080   4.658   3.669   6.193 -0.5464 -0.5082  0.1007
 7197TIP3   OH243081   5.424   2.203   5.456 -1.0706 -0.8236 -0.0148
 7197TIP3    H143082   5.353   2.263   5.431 -0.5628  0.1887  0.8763
 7197TIP3    H243083   5.457   2.239   5.539  2.1628  0.2237 -1.5929
 7198TIP3   OH243084   6.733   2.258   2.865 -0.1278  0.0839 -0.4070
 7198TIP3    H143085   6.810   2.289   2.913  0.0780  1.1634 -1.3794
 7198TIP3    H243086   6.746   2.164   2.858  0.3809  0.0565  0.6812
 7199TIP3   OH243087   0.929   0.721  14.515  0.2467  0.0993 -0.7651
 7199TIP3    H143088   0.924   0.746  14.423  2.4407  2.8054 -0.2677
 7199TIP3    H243089   0.990   0.647  14.516  1.9974  1.4650 -1.3455
 7200TIP3   OH243090   5.808   0.936   1.324 -0.2611 -0.2022 -0.6823
 7200TIP3    H143091   5.790   1.011   1.268 -0.7796 -0.1916 -0.5130
 7200TIP3    H243092   5.722   0.896   1.338 -0.0170 -0.7159 -0.6154
 7201TIP3   OH243093   3.154   4.714  16.566 -0.0079  0.3473  0.1346
 7201TIP3    H143094   3.134   4.807  16.558  0.7487  0.4879 -0.2690
 7201TIP3    H243095   3.116   4.688  16.649 -0.8744  0.8404 -0.1014
 7202TIP3   OH243096   2.139   4.403  15.202  0.8324  0.2731 -0.1650
 7202TIP3    H143097   2.083   4.439  15.133  1.7612  0.5389 -0.8120
 7202TIP3    H243098   2.078   4.367  15.266 -0.0737  0.6416 -0.7886
 7203TIP3   OH243099   1.574   5.474   5.847  0.1384  0.0872 -0.0143
 7203TIP3    H143100   1.543   5.516   5.767  0.2755  0.2892  0.0378
 7203TIP3    H243101   1.665   5.502   5.856  0.0834  0.1803  0.2850
 7204TIP3   OH243102   4.451   0.162   2.353  0.0764  0.0076 -0.1566
 7204TIP3    H143103   4.543   0.189   2.360  0.2565 -0.7392  0.6455
 7204TIP3    H243104   4.402   0.239   2.380  0.5884 -0.4420  2.3664
 7205TIP3   OH243105   3.846   1.058   2.524 -0.3614 -0.2206 -0.0098
 7205TIP3    H143106   3.785   1.042   2.452 -0.3531 -1.1118  0.1698
 7205TIP3    H243107   3.897   0.977   2.531  1.3156  0.7521 -0.5933
 7206TIP3   OH243108   5.428   2.715  16.745 -0.3346  0.0752  0.3410
 7206TIP3    H143109   5.518   2.693  16.771 -0.2666  1.1395  1.0655
 7206TIP3    H243110   5.437   2.790  16.687 -0.8155  1.0561  1.4917
 7207TIP3   OH243111   3.164   5.954   5.984 -0.2562  0.0492 -0.0708
 7207TIP3    H143112   3.114   5.886   6.029 -0.8623  1.0495  0.8198
 7207TIP3    H243113   3.238   5.972   6.042  0.3107 -0.3651 -0.6608
 7208TIP3   OH243114   1.146   1.991  15.972  0.0068 -0.1223  0.0688
 7208TIP3    H143115   1.208   2.028  16.034  0.3284 -2.9475  1.6104
 7208TIP3    H243116   1.188   2.002  15.887  0.7240  1.5801  0.6018
 7209TIP3   OH243117   2.983   4.053   3.892 -0.1372  0.3266 -0.3837
 7209TIP3    H143118   2.946   4.139   3.912 -0.9981 -0.6517  2.7135
 7209TIP3    H243119   3.074   4.058   3.920 -0.9871 -0.6119  2.9536
 7210TIP3   OH243120   6.021   2.449  14.251  0.3161 -0.4838 -0.1375
 7210TIP3    H143121   6.000   2.400  14.172 -0.6415  1.0799 -0.8998
 7210TIP3    H243122   5.972   2.404  14.320 -0.7471 -0.4808 -0.8549
 7211TIP3   OH243123   3.591   2.711   5.007 -0.7653 -0.5206 -0.0393
 7211TIP3    H143124   3.543   2.696   4.925  1.2687 -1.4918 -1.1235
 7211TIP3    H243125   3.523   2.720   5.073 -2.5620  1.7325 -2.0189
 7212TIP3   OH243126   3.458   0.808  12.386 -0.1448  0.1984 -0.1387
 7212TIP3    H143127   3.428   0.811  12.295  0.6942  1.4829 -0.3996
 7212TIP3    H243128   3.421   0.727  12.421 -2.3624  0.7909 -0.9526
 7213TIP3   OH243129   0.113   5.462   5.743  0.3454 -0.5530 -0.1852
 7213TIP3    H143130   0.197   5.480   5.701  0.4159 -0.7207 -0.1119
 7213TIP3    H243131   0.060   5.539   5.722  1.1682  0.5193  1.5233
 7214TIP3   OH243132   6.764   6.347  14.201 -0.7362 -0.0340 -0.1763
 7214TIP3    H143133   6.850   6.389  14.206 -0.0055 -1.5788  0.7445
 7214TIP3    H243134   6.702   6.420  14.203  0.4337  1.0181  2.3505
 7215TIP3   OH243135   1.497   0.719   3.066  0.3353  0.3804  0.0383
 7215TIP3    H143136   1.538   0.677   3.141  1.4765  0.1735 -0.6821
 7215TIP3    H243137   1.406   0.688   3.068  0.7938 -1.0241  0.3208
 7216TIP3   OH243138   6.250   1.336   5.928  0.6632  0.1672  0.0466
 7216TIP3    H143139   6.286   1.274   5.992  0.2923 -1.8034 -1.5668
 7216TIP3    H243140   6.196   1.282   5.870  0.8242  1.9102 -1.8211
 7217TIP3   OH243141   0.653   1.198   3.973  0.8827 -0.6335  0.3381
 7217TIP3    H143142   0.623   1.174   4.061 -0.2783 -1.4037 -0.2457
 7217TIP3    H243143   0.594   1.152   3.914  1.1941  0.4413 -0.8603
 7218TIP3   OH243144   3.307   3.602  14.941 -0.3583 -0.4234  0.0162
 7218TIP3    H143145   3.313   3.546  15.018 -0.9363  0.2403  0.5620
 7218TIP3    H243146   3.225   3.576  14.899 -0.6731  0.0598  0.3193
 7219TIP3   OH243147   6.805   2.237   2.096 -0.1550 -0.3672  0.3982
 7219TIP3    H143148   6.871   2.253   2.029 -1.1906 -0.3727 -0.6375
 7219TIP3    H243149   6.855   2.234   2.178  0.9415  1.2217 -0.1623
 7220TIP3   OH243150   1.110   0.727  15.558  0.4400 -0.3573 -0.1100
 7220TIP3    H143151   1.063   0.644  15.548 -1.6027  0.2450  3.0477
 7220TIP3    H243152   1.193   0.703  15.599 -0.4255 -0.8717  1.4362
 7221TIP3   OH243153   5.406   0.297   2.210  0.1926  0.0033  0.3275
 7221TIP3    H143154   5.374   0.359   2.144 -2.2526 -1.2182  0.2518
 7221TIP3    H243155   5.440   0.353   2.281  3.4828  1.3575 -2.0711
 7222TIP3   OH243156   4.223   4.523  11.439  0.4547 -0.3210 -0.4176
 7222TIP3    H143157   4.217   4.516  11.344  1.2612 -1.8820 -0.3903
 7222TIP3    H243158   4.170   4.450  11.472  1.4388 -0.7426  0.2752
 7223TIP3   OH243159   0.099   2.144  12.101  0.9465 -0.1193 -0.3916
 7223TIP3    H143160   0.022   2.162  12.047 -0.0046 -0.8907  0.6769
 7223TIP3    H243161   0.173   2.152  12.040  0.0346  0.5575 -1.4494
 7224TIP3   OH243162   5.762   2.954   5.961  0.0115 -0.1754 -0.3751
 7224TIP3    H143163   5.762   3.031   5.905  1.5813  0.1362  0.0176
 7224TIP3    H243164   5.679   2.910   5.941 -0.4311  1.0527 -1.3544
 7225TIP3   OH243165   1.380   1.418   4.158  0.3931  0.6106 -0.1222
 7225TIP3    H143166   1.380   1.332   4.202 -0.1100 -0.2684 -1.7568
 7225TIP3    H243167   1.472   1.434   4.137  0.5542  0.7323  0.6582
 7226TIP3   OH243168   6.302   2.212   4.211 -0.3941 -0.0946 -0.0413
 7226TIP3    H143169   6.301   2.159   4.291 -0.5458  2.8934  2.0895
 7226TIP3    H243170   6.395   2.226   4.193 -0.2727 -2.3353 -1.6562
 7227TIP3   OH243171   6.822   5.256   4.287  0.3010  0.0856  0.5681
 7227TIP3    H143172   6.853   5.179   4.240 -0.4747  0.5088 -0.6978
 7227TIP3    H243173   6.845   5.240   4.379  1.8233 -0.7899  0.0598
 7228TIP3   OH243174   5.404   6.416  12.025 -0.0438  0.5346  0.6388
 7228TIP3    H143175   5.358   6.332  12.026 -0.9307  1.0072  0.0949
 7228TIP3    H243176   5.497   6.393  12.028 -0.1926 -0.5363 -1.5105
 7229TIP3   OH243177   6.319   4.183   4.933 -0.0907  0.5758  0.6325
 7229TIP3    H143178   6.229   4.182   4.899  0.7170  3.2267 -1.9983
 7229TIP3    H243179   6.338   4.091   4.950 -2.6538 -0.2936 -0.5847
 7230TIP3   OH243180   3.349   1.722   6.334  0.0210 -0.0422  0.1659
 7230TIP3    H143181   3.290   1.655   6.370 -2.7771  2.5529  0.8390
 7230TIP3    H243182   3.390   1.761   6.411  1.9729 -1.1493 -0.2493
 7231TIP3   OH243183   5.289   2.016   5.084  0.9272 -0.1750  0.4051
 7231TIP3    H143184   5.281   2.111   5.075  2.0513 -0.2027 -1.5710
 7231TIP3    H243185   5.234   1.994   5.159 -1.2313  1.7630 -0.4809
 7232TIP3   OH243186   5.243   4.353  10.957  0.6307  0.0030 -0.1227
 7232TIP3    H143187   5.332   4.317  10.955  0.3807 -0.6346  0.0400
 7232TIP3    H243188   5.250   4.430  11.014  0.9554 -0.4035  0.4003
 7233TIP3   OH243189   4.979   4.624  16.159  0.2457 -0.3631  0.1731
 7233TIP3    H143190   5.014   4.566  16.225 -0.0115 -0.0940  0.5521
 7233TIP3    H243191   5.036   4.701  16.161  0.6999 -0.6704 -0.4576
 7234TIP3   OH243192   0.470   1.581  11.849  0.5030  0.4040 -0.4951
 7234TIP3    H143193   0.451   1.675  11.845 -1.3612  0.0834 -0.1965
 7234TIP3    H243194   0.387   1.539  11.826  0.6271 -1.1702  1.5810
 7235TIP3   OH243195   0.941   5.952  12.013  0.3625  0.0680  0.4142
 7235TIP3    H143196   0.998   5.877  12.029 -0.7105 -0.6980  0.8193
 7235TIP3    H243197   0.916   5.982  12.101 -1.3473 -0.8178  0.2753
 7236TIP3   OH243198   6.190   6.313   2.414 -0.0866 -0.2368 -0.1241
 7236TIP3    H143199   6.285   6.324   2.406  0.0533 -0.2523  1.3928
 7236TIP3    H243200   6.155   6.402   2.404  0.0389 -0.2774 -1.0489
 7237TIP3   OH243201   5.007   3.452  15.979  0.2402  0.6854 -0.2707
 7237TIP3    H143202   4.970   3.538  16.002  1.4973  1.1229  0.2324
 7237TIP3    H243203   5.101   3.462  15.995  0.5807 -0.3915 -1.4831
 7238TIP3   OH243204   0.437   0.423   5.700 -0.3168 -0.0902  0.1516
 7238TIP3    H143205   0.443   0.328   5.699 -0.5830 -0.1599  1.9207
 7238TIP3    H243206   0.523   0.453   5.671 -0.4082 -0.8494 -0.9654
 7239TIP3   OH243207   4.734   5.011   5.611 -0.3593 -0.0505  0.6777
 7239TIP3    H143208   4.740   5.020   5.516 -1.5660  0.7331  0.6534
 7239TIP3    H243209   4.823   4.990   5.639 -0.3701 -2.5071 -0.8368
 7240TIP3   OH243210   4.740   0.549   0.298 -0.5355 -1.0198  0.1337
 7240TIP3    H143211   4.806   0.481   0.310  0.8060 -0.0226 -1.0955
 7240TIP3    H243212   4.785   0.630   0.322 -0.3336  0.0246 -3.2622
 7241TIP3   OH243213   0.115   6.805  17.096  0.1649 -0.7504 -0.8491
 7241TIP3    H143214   0.184   6.768  17.040  0.0356 -0.1683 -1.4050
 7241TIP3    H243215   0.033   6.782  17.053  0.0678 -0.1905 -0.9811
 7242TIP3   OH243216   1.193   1.030   5.952  0.2476 -0.4685  0.3615
 7242TIP3    H143217   1.270   0.998   5.997  0.0698 -0.0970  0.9394
 7242TIP3    H243218   1.219   1.116   5.918  1.4191 -1.9574 -2.9782
 7243TIP3   OH243219   6.153   1.440  14.075  0.1541  0.0035 -0.1303
 7243TIP3    H143220   6.237   1.459  14.116  0.8963 -3.5667  0.2764
 7243TIP3    H243221   6.172   1.373  14.010 -2.4014 -1.3443  0.3736
 7244TIP3   OH243222   2.384   3.328   2.477  0.1356  0.1726  0.0867
 7244TIP3    H143223   2.322   3.308   2.548  0.0644 -0.5254 -0.1585
 7244TIP3    H243224   2.388   3.423   2.475 -0.1213  0.2071  0.8075
 7245TIP3   OH243225   5.764   2.602   1.637  0.3448  0.0740 -0.0718
 7245TIP3    H143226   5.814   2.532   1.594  0.5946 -0.2330  0.7080
 7245TIP3    H243227   5.676   2.593   1.601  0.5256 -0.2352 -0.4550
 7246TIP3   OH243228   6.780   5.918  12.036 -0.3288  0.0188  0.3486
 7246TIP3    H143229   6.809   5.863  12.109 -0.5574 -0.0694  0.3722
 7246TIP3    H243230   6.858   5.925  11.980 -0.3303 -0.4318  0.2830
 7247TIP3   OH243231   5.422   1.455   1.852 -0.0520  0.2432 -0.7099
 7247TIP3    H143232   5.512   1.449   1.882 -0.3498 -0.6064  0.0623
 7247TIP3    H243233   5.370   1.426   1.927 -0.8761 -0.9073 -1.7024
 7248TIP3   OH243234   1.389   5.068   1.919 -0.0754 -0.0166 -0.3196
 7248TIP3    H143235   1.478   5.047   1.949  0.4276  1.4020 -0.7028
 7248TIP3    H243236   1.403   5.128   1.846 -1.3331 -1.2868 -1.6489
 7249TIP3   OH243237   2.684   6.752   4.881 -0.0550  0.1086  0.7228
 7249TIP3    H143238   2.596   6.760   4.920  0.1409 -0.0367  1.1991
 7249TIP3    H243239   2.741   6.733   4.955  0.3797  0.1882  0.4099
 7250TIP3   OH243240   0.859   5.149   0.784 -0.3481 -0.4607  0.1342
 7250TIP3    H143241   0.876   5.228   0.836  1.4579  0.3806 -1.6237
 7250TIP3    H243242   0.772   5.165   0.746 -1.6796 -1.0516  2.6625
 7251TIP3   OH243243   1.547   0.248  11.333 -0.3195 -0.2182  0.0383
 7251TIP3    H143244   1.518   0.267  11.422 -0.7753  0.0653 -0.1641
 7251TIP3    H243245   1.472   0.206  11.291 -0.5364  0.7402 -0.5664
 7252TIP3   OH243246   3.354   5.346   5.501 -0.4627 -0.5059 -0.0912
 7252TIP3    H143247   3.353   5.425   5.555 -0.0661 -1.3697  1.2372
 7252TIP3    H243248   3.339   5.274   5.563 -0.8380 -1.4858 -1.2599
 7253TIP3   OH243249   3.843   0.534  11.272  0.6170 -0.0115  0.7089
 7253TIP3    H143250   3.872   0.597  11.207 -1.0497  0.6442  0.5602
 7253TIP3    H243251   3.828   0.453  11.223  1.0164 -0.0132  0.5864
 7254TIP3   OH243252   5.605   4.885  11.513 -0.1403 -0.0487 -0.1607
 7254TIP3    H143253   5.573   4.893  11.423  0.1854 -1.7700 -0.4697
 7254TIP3    H243254   5.531   4.851  11.562  0.0960 -0.5014 -0.1038
 7255TIP3   OH243255   1.563   4.869  16.517  0.2507 -0.8995  0.4478
 7255TIP3    H143256   1.496   4.810  16.484  0.8229 -0.4550 -1.6351
 7255TIP3    H243257   1.643   4.844  16.471  0.5479  1.3328 -0.3664
 7256TIP3   OH243258   2.489   0.928   5.738  0.2536 -0.6794  0.1290
 7256TIP3    H143259   2.478   1.023   5.732  1.5853 -0.4231  1.0925
 7256TIP3    H243260   2.403   0.894   5.762 -0.7533  0.0297 -2.1863
 7257TIP3   OH243261   2.442   1.598  16.709  0.2445  0.1467 -0.1518
 7257TIP3    H143262   2.479   1.636  16.629  2.4656 -0.0634  0.7256
 7257TIP3    H243263   2.436   1.504  16.691  0.6910  0.1066 -0.0963
 7258TIP3   OH243264   1.925   6.558  14.181 -0.0099 -0.0411  0.1920
 7258TIP3    H143265   1.901   6.477  14.227 -1.7947  0.2315 -0.1706
 7258TIP3    H243266   1.867   6.561  14.105  2.2073  0.0110 -1.6124
 7259TIP3   OH243267   6.350   2.312  12.622  0.5376 -0.3409 -0.2415
 7259TIP3    H143268   6.439   2.347  12.613  0.3756  0.0412 -0.3527
 7259TIP3    H243269   6.315   2.354  12.701  0.2624 -0.0811 -0.5005
 7260TIP3   OH243270   0.391   0.496  10.653 -0.1242  0.2263  0.5420
 7260TIP3    H143271   0.311   0.501  10.705 -0.7268  1.1057 -0.4262
 7260TIP3    H243272   0.454   0.450  10.709 -1.8095 -2.1275  0.6827
 7261TIP3   OH243273   3.356   3.213  13.021  0.2104 -0.2102  0.2225
 7261TIP3    H143274   3.275   3.264  13.027 -0.8658 -1.9329  1.0830
 7261TIP3    H243275   3.407   3.241  13.097 -0.2513 -0.2242  0.5406
 7262TIP3   OH243276   5.566   0.427   2.414  0.0181 -0.2407 -0.1592
 7262TIP3    H143277   5.555   0.351   2.472 -1.6343 -0.6874 -1.0095
 7262TIP3    H243278   5.624   0.485   2.463  1.0405 -1.8724  0.6728
 7263TIP3   OH243279   4.337   4.383  16.955 -0.2541 -0.5454 -0.3646
 7263TIP3    H143280   4.296   4.396  16.870 -1.2283 -0.2158  0.1403
 7263TIP3    H243281   4.264   4.379  17.017  0.3734 -1.8077  0.3402
 7264TIP3   OH243282   1.379   4.468   1.021  0.6576 -0.1372 -0.6394
 7264TIP3    H143283   1.370   4.460   0.926 -0.8273  0.7955 -0.6144
 7264TIP3    H243284   1.331   4.548   1.043  0.3854 -0.7078  0.9829
 7265TIP3   OH243285   0.586   1.164   4.246  0.4428  0.1940 -0.4981
 7265TIP3    H143286   0.598   1.245   4.296  2.9499  0.0019 -0.6313
 7265TIP3    H243287   0.634   1.098   4.296 -0.3605 -0.9052 -1.1308
 7266TIP3   OH243288   4.669   4.367   6.211  0.4826 -0.0352  0.5195
 7266TIP3    H143289   4.653   4.413   6.129  2.8795  1.0461  0.5783
 7266TIP3    H243290   4.645   4.431   6.279  2.5333  0.7204  0.6003
 7267TIP3   OH243291   5.451   2.476   2.075 -0.1652 -0.0787  0.3082
 7267TIP3    H143292   5.473   2.444   1.988 -2.0042  0.6238 -0.4617
 7267TIP3    H243293   5.364   2.441   2.092 -0.1800  0.4816  1.5194
 7268TIP3   OH243294   4.220   2.610   1.070  0.0804 -0.4533  0.2457
 7268TIP3    H143295   4.240   2.663   0.993 -0.4543  0.1424  0.5074
 7268TIP3    H243296   4.265   2.527   1.055  0.0060 -0.3280 -0.6905
 7269TIP3   OH243297   1.851   3.908   0.524 -0.6187 -0.1676 -0.5960
 7269TIP3    H143298   1.921   3.902   0.589 -1.1579 -0.6291 -0.0490
 7269TIP3    H243299   1.896   3.927   0.442  0.3889 -2.7059 -0.7170
 7270TIP3   OH243300   1.357   4.163  10.859 -0.3454  0.2097  0.1157
 7270TIP3    H143301   1.413   4.130  10.789 -0.8067 -0.6763  0.1449
 7270TIP3    H243302   1.417   4.186  10.929  0.0474  0.1163 -0.1873
 7271TIP3   OH243303   1.739   2.284  14.417 -0.3839 -0.3196  0.7404
 7271TIP3    H143304   1.807   2.247  14.474  0.0650 -0.7668 -0.0630
 7271TIP3    H243305   1.659   2.280  14.469  0.2975  0.7668  1.9300
 7272TIP3   OH243306   1.882   2.170   6.613  0.4584 -0.3008 -0.3406
 7272TIP3    H143307   1.960   2.198   6.660  1.9058 -1.1864 -2.0791
 7272TIP3    H243308   1.893   2.076   6.603 -1.2785 -0.5770  0.1057
 7273TIP3   OH243309   0.003   2.811   5.173 -0.9510  0.3523 -0.5513
 7273TIP3    H143310   0.098   2.825   5.167 -1.1343  2.0632  0.0334
 7273TIP3    H243311  -0.035   2.881   5.120 -1.9335  1.6229  1.6907
 7274TIP3   OH243312   5.805   3.560  11.949 -0.4087  0.1743 -0.1425
 7274TIP3    H143313   5.717   3.599  11.948 -0.7605 -0.5867 -0.3160
 7274TIP3    H243314   5.841   3.580  11.863 -0.9331 -0.6206 -0.5578
 7275TIP3   OH243315   2.209   1.874  14.651  0.6911  0.5219 -0.4368
 7275TIP3    H143316   2.175   1.813  14.585  0.8115  1.2105 -1.1426
 7275TIP3    H243317   2.169   1.958  14.630  1.8859  1.0869 -0.5683
 7276TIP3   OH243318   6.785   5.138  11.808  0.2613 -0.1994 -0.2058
 7276TIP3    H143319   6.707   5.104  11.763 -1.6399  2.5103  0.7640
 7276TIP3    H243320   6.830   5.189  11.742  0.2731 -0.3526 -0.3177
 7277TIP3   OH243321   6.194   2.271  12.087  0.2864 -0.7479  0.1246
 7277TIP3    H143322   6.199   2.354  12.134  1.5105 -0.0321 -1.1911
 7277TIP3    H243323   6.262   2.216  12.127  0.9392 -0.3413 -0.4123
 7278TIP3   OH243324   5.834   6.305  13.268 -0.2506  0.0075  0.0515
 7278TIP3    H143325   5.839   6.393  13.305  0.8957  0.2388 -0.6065
 7278TIP3    H243326   5.742   6.280  13.277 -0.3402  0.7500  1.4241
 7279TIP3   OH243327   5.063   3.803   3.009 -0.7140  0.5356 -0.2471
 7279TIP3    H143328   5.121   3.779   3.081 -1.6320  1.1053  0.7103
 7279TIP3    H243329   5.048   3.897   3.020 -3.2060  0.1149  0.6198
 7280TIP3   OH243330   6.768   4.804  12.631  0.1008  0.6895  0.5572
 7280TIP3    H143331   6.768   4.896  12.607  0.3420  0.2291 -1.4306
 7280TIP3    H243332   6.702   4.764  12.574  1.5468 -0.6959 -0.2397
 7281TIP3   OH243333   0.836   2.393   6.113  0.0888 -0.6601  0.1241
 7281TIP3    H143334   0.744   2.407   6.088 -0.5742 -1.1174  2.1272
 7281TIP3    H243335   0.855   2.305   6.083  0.5329  0.1128 -2.0243
 7282TIP3   OH243336   5.848   5.137  14.348  0.2335 -0.0754 -0.0817
 7282TIP3    H143337   5.761   5.147  14.387 -0.1172 -0.8307 -0.6305
 7282TIP3    H243338   5.863   5.042  14.349  0.6427 -0.0260 -0.8407
 7283TIP3   OH243339   2.758   6.737   2.878 -0.2587  0.0864 -0.1454
 7283TIP3    H143340   2.666   6.734   2.904 -0.0806 -1.3795  0.3963
 7283TIP3    H243341   2.807   6.718   2.958  0.3503 -3.0106 -1.1334
 7284TIP3   OH243342   2.357   2.299  15.206 -0.2210 -0.1202 -0.0377
 7284TIP3    H143343   2.321   2.301  15.294 -1.4224 -0.7071 -0.4884
 7284TIP3    H243344   2.445   2.336  15.214 -1.0193  1.6553  1.0682
 7285TIP3   OH243345   2.482   4.166  13.212 -0.6302  0.3420 -0.1908
 7285TIP3    H143346   2.558   4.199  13.164 -1.0249  0.1249 -0.9888
 7285TIP3    H243347   2.500   4.187  13.304  0.6683 -0.2368 -0.2933
 7286TIP3   OH243348   4.197   2.926  13.258  0.0792 -0.0734 -0.4360
 7286TIP3    H143349   4.210   2.985  13.184  0.7656 -0.6701 -0.8141
 7286TIP3    H243350   4.284   2.890  13.276 -0.2429 -0.6404  0.0574
 7287TIP3   OH243351   2.405   2.958   2.964  0.0524 -0.1489 -0.1646
 7287TIP3    H143352   2.388   2.962   3.058  2.5216  1.7757  0.2917
 7287TIP3    H243353   2.489   2.912   2.956  0.6442  1.0452 -1.2704
 7288TIP3   OH243354   1.861   0.318   3.845  0.1838 -0.1910 -0.2461
 7288TIP3    H143355   1.777   0.326   3.800  0.5711 -1.0399 -1.1782
 7288TIP3    H243356   1.852   0.241   3.901 -0.0108  0.3569  0.4846
 7289TIP3   OH243357   3.160   3.224   3.702  0.2081 -0.5203  0.5820
 7289TIP3    H143358   3.230   3.159   3.708  0.8396  0.1639  0.8161
 7289TIP3    H243359   3.205   3.306   3.681 -0.2660  0.3592  2.6807
 7290TIP3   OH243360   4.067   3.626  15.691  0.5904 -0.5236  0.2259
 7290TIP3    H143361   4.007   3.664  15.626  1.0646 -0.0335  0.0569
 7290TIP3    H243362   4.044   3.669  15.773  1.3547  0.4212 -0.0321
 7291TIP3   OH243363   0.042   6.434  11.555 -0.4821 -0.5657  0.1373
 7291TIP3    H143364   0.018   6.521  11.521  1.5696 -0.3975 -1.0387
 7291TIP3    H243365   0.111   6.452  11.618  1.7914 -1.4015 -1.9330
 7292TIP3   OH243366   6.471   5.242   3.153 -0.5264  0.3650 -0.1897
 7292TIP3    H143367   6.454   5.335   3.139  0.2526  0.7974  1.4486
 7292TIP3    H243368   6.409   5.216   3.221  1.0574  0.4233  1.3517
 7293TIP3   OH243369   4.034   1.226  16.537 -0.3644  0.1386 -0.5389
 7293TIP3    H143370   3.988   1.297  16.491 -2.7259 -1.7700 -1.3366
 7293TIP3    H243371   3.973   1.202  16.607  0.6305 -0.7850  0.0236
 7294TIP3   OH243372   1.443   2.914  12.151  1.3288 -0.1319 -0.2531
 7294TIP3    H143373   1.393   2.835  12.130  1.2980 -0.3827  0.7420
 7294TIP3    H243374   1.376   2.980  12.171  1.3702  0.0008 -0.5349
 7295TIP3   OH243375   0.408   4.488  15.083  0.1729  0.0060  0.7640
 7295TIP3    H143376   0.402   4.425  15.011  1.6051  0.6913  0.0185
 7295TIP3    H243377   0.333   4.545  15.072  0.6219  0.3802 -0.4738
 7296TIP3   OH243378   1.759   3.363   4.467  0.0752  0.4680 -1.0265
 7296TIP3    H143379   1.733   3.284   4.418 -0.8165 -0.3460  0.6646
 7296TIP3    H243380   1.848   3.380   4.439  1.0410 -2.3405 -0.0601
 7297TIP3   OH243381   5.828   1.861   4.357  0.1617 -0.0225 -0.4057
 7297TIP3    H143382   5.849   1.859   4.451 -1.6647 -1.2067  0.0340
 7297TIP3    H243383   5.813   1.953   4.338  0.8999  0.2742  0.3674
 7298TIP3   OH243384   1.392   0.015   1.160  0.6564 -0.5156  0.0930
 7298TIP3    H143385   1.443  -0.066   1.147 -1.6270 -2.1229  0.4870
 7298TIP3    H243386   1.301  -0.012   1.143 -0.4689  1.4177  2.5130
 7299TIP3   OH243387   0.123   4.397  15.444 -0.0085 -0.3201 -0.3300
 7299TIP3    H143388   0.036   4.390  15.405  0.6297 -1.6384 -1.6013
 7299TIP3    H243389   0.164   4.313  15.426  1.5142  0.2546  0.3231
 7300TIP3   OH243390   6.834   4.736   4.867  0.0297  0.2821  0.1302
 7300TIP3    H143391   6.778   4.797   4.917 -2.0543 -2.5714  1.5473
 7300TIP3    H243392   6.888   4.693   4.933  0.8123 -0.0821 -0.7257
 7301TIP3   OH243393   2.121   3.903  13.848 -0.3259 -0.5935 -0.2309
 7301TIP3    H143394   2.061   3.938  13.915  1.1848  2.3338 -0.2413
 7301TIP3    H243395   2.207   3.935  13.875  0.6053 -0.9885 -2.5475
 7302TIP3   OH243396   5.035   2.053   3.835 -0.2753  0.1902 -0.1499
 7302TIP3    H143397   4.986   1.971   3.834 -0.0302  0.0475 -0.7193
 7302TIP3    H243398   5.127   2.026   3.839 -0.2147  0.4464  0.2137
 7303TIP3   OH243399   6.239   6.033   4.087 -0.7378 -0.1795  0.1184
 7303TIP3    H143400   6.299   6.059   4.017 -0.2685  0.8210  0.8561
 7303TIP3    H243401   6.252   5.939   4.096 -1.3296 -0.4685 -1.5918
 7304TIP3   OH243402   3.617   4.945  15.867  0.1019 -0.3496 -0.1194
 7304TIP3    H143403   3.603   5.002  15.943  0.4010 -0.3252 -0.0789
 7304TIP3    H243404   3.533   4.901  15.855 -0.1026  0.0282 -0.0931
 7305TIP3   OH243405   0.199   2.086  15.838 -0.5082  0.3237 -0.3803
 7305TIP3    H143406   0.254   2.047  15.771 -1.7135 -0.2509 -1.0815
 7305TIP3    H243407   0.186   2.015  15.902 -1.6281 -0.0477 -0.9866
 7306TIP3   OH243408   2.724   4.163  16.074 -0.8765  0.2027  0.1047
 7306TIP3    H143409   2.753   4.107  16.002 -3.8370 -1.1616 -0.1762
 7306TIP3    H243410   2.725   4.251  16.039  2.5828  0.3056  0.1144
 7307TIP3   OH243411   2.102   5.284   3.370 -0.0095  0.6732 -0.1011
 7307TIP3    H143412   2.075   5.344   3.300  2.3115  2.0771  0.1052
 7307TIP3    H243413   2.119   5.201   3.324  1.0400  1.4476 -1.1972
 7308TIP3   OH243414   1.932   2.535  14.721 -0.5176 -0.7119 -0.0694
 7308TIP3    H143415   2.010   2.482  14.733  0.5325  1.0668  1.5881
 7308TIP3    H243416   1.906   2.561  14.810 -0.9618  1.4956 -0.7749
 7309TIP3   OH243417   4.336   6.037  11.243 -0.4118 -0.1723 -0.5169
 7309TIP3    H143418   4.328   6.025  11.149 -0.5128  0.3985 -0.5859
 7309TIP3    H243419   4.429   6.023  11.262 -0.0487  1.4092 -0.9705
 7310TIP3   OH243420   5.825   4.792  16.713  0.0657  0.0978 -0.0656
 7310TIP3    H143421   5.883   4.781  16.637 -0.1379 -0.2119 -0.1746
 7310TIP3    H243422   5.874   4.852  16.771  1.4025 -1.6954  0.7474
 7311TIP3   OH243423   2.540   2.174  14.841  0.1322  0.4167  0.0929
 7311TIP3    H143424   2.498   2.260  14.827 -0.4473  0.2327  0.6283
 7311TIP3    H243425   2.472   2.111  14.820  0.3717  0.0970  0.2747
 7312TIP3   OH243426   1.490   3.520   1.731 -0.1122 -0.1184 -0.6108
 7312TIP3    H143427   1.462   3.582   1.664 -2.3361  0.1224  0.4497
 7312TIP3    H243428   1.516   3.575   1.805  1.0893 -0.4144 -0.7897
 7313TIP3   OH243429   1.540   4.709  13.992 -0.1707  0.4378  0.6518
 7313TIP3    H143430   1.472   4.642  13.991  1.0260 -0.8492  1.5817
 7313TIP3    H243431   1.589   4.695  13.911  1.6357 -1.5744  1.9793
 7314TIP3   OH243432   1.928   2.033  12.144  0.5215 -0.6480  0.5013
 7314TIP3    H143433   1.894   2.122  12.137  0.8950 -0.5471 -0.1704
 7314TIP3    H243434   1.875   1.982  12.083  1.2424 -0.5806 -0.2070
 7315TIP3   OH243435   4.355   0.848  16.865 -0.2313 -0.0207  0.3779
 7315TIP3    H143436   4.298   0.906  16.814  1.4718  0.8765 -0.6033
 7315TIP3    H243437   4.363   0.769  16.811  0.5397  0.4148 -0.1680
 7316TIP3   OH243438   6.856   2.571  12.150  0.2166  0.1982 -0.3411
 7316TIP3    H143439   6.859   2.555  12.056 -0.9827 -1.4330 -0.1484
 7316TIP3    H243440   6.825   2.661  12.159  2.6773  1.2411 -1.4890
 7317TIP3   OH243441   2.064   3.263   6.325  0.0610  0.3961  0.7414
 7317TIP3    H143442   2.100   3.283   6.411  1.8498  1.1528 -0.1364
 7317TIP3    H243443   2.101   3.178   6.302 -0.2455  0.2923  0.6231
 7318TIP3   OH243444   3.483   1.437   3.656  0.3149  0.2209  0.0758
 7318TIP3    H143445   3.557   1.377   3.665  0.8117  1.0479  1.8178
 7318TIP3    H243446   3.411   1.392   3.700  0.4469  0.4745  0.5627
 7319TIP3   OH243447   5.437   1.872  14.074  0.4072 -0.8421  0.3567
 7319TIP3    H143448   5.358   1.917  14.046  0.7018 -0.1632  0.6116
 7319TIP3    H243449   5.408   1.783  14.095 -0.2006 -0.7295  0.0044
 7320TIP3   OH243450   5.085   1.362  13.897  0.6112 -0.4078  0.1357
 7320TIP3    H143451   4.997   1.388  13.923 -0.0168 -2.3006  0.0370
 7320TIP3    H243452   5.105   1.286  13.952  2.4605  0.3853  0.6206
 7321TIP3   OH243453   3.518   2.060   4.647 -0.4021 -0.5360 -0.0471
 7321TIP3    H143454   3.591   2.091   4.702 -0.8014  0.7353 -0.2142
 7321TIP3    H243455   3.444   2.115   4.672 -1.4024 -1.9597  0.2839
 7322TIP3   OH243456   1.515   3.956  14.134  0.2755  0.2215 -0.2584
 7322TIP3    H143457   1.457   3.913  14.196 -0.1762 -0.4481 -1.1158
 7322TIP3    H243458   1.521   3.895  14.061 -0.9864  1.8888 -1.8630
 7323TIP3   OH243459   6.842   0.701  12.201  0.4190  0.0309 -0.2372
 7323TIP3    H143460   6.817   0.669  12.287 -0.6425  1.3455 -0.0167
 7323TIP3    H243461   6.931   0.735  12.212  0.8245 -1.0617 -0.0251
 7324TIP3   OH243462   5.890   1.462  15.941 -0.3754  0.3607 -0.2624
 7324TIP3    H143463   5.960   1.519  15.973 -0.3205 -0.3603  0.9530
 7324TIP3    H243464   5.884   1.481  15.848 -0.6291  2.6475  0.1679
 7325TIP3   OH243465   5.305   2.757   1.563  0.2524 -0.1322 -0.4133
 7325TIP3    H143466   5.348   2.842   1.559  1.0052 -0.4903 -0.2143
 7325TIP3    H243467   5.226   2.772   1.615 -0.2347  0.6863 -1.3668
 7326TIP3   OH243468   5.270   1.178   4.324  0.0750 -0.4756  0.2520
 7326TIP3    H143469   5.302   1.262   4.357  0.2253 -0.8635  1.1121
 7326TIP3    H243470   5.210   1.201   4.253  0.0719  0.3590  0.5192
 7327TIP3   OH243471   1.389   5.133  11.206 -0.6223 -0.5886 -0.0632
 7327TIP3    H143472   1.387   5.071  11.134 -0.8089 -0.9404  0.2428
 7327TIP3    H243473   1.300   5.169  11.209 -0.2309  0.5131 -0.9390
 7328TIP3   OH243474   1.472   5.778   3.082  0.3254  0.4866 -0.6998
 7328TIP3    H143475   1.378   5.774   3.101  0.5908 -1.1742  0.4843
 7328TIP3    H243476   1.502   5.688   3.090  2.0454  0.9969 -1.0155
 7329TIP3   OH243477   2.468   0.180   2.486 -0.0555 -0.5799 -0.6399
 7329TIP3    H143478   2.524   0.165   2.562 -1.2119 -2.1610 -0.0605
 7329TIP3    H243479   2.471   0.097   2.437 -0.4656 -0.0708 -1.5587
 7330TIP3   OH243480   4.919   0.697  14.359  0.0986 -0.0866 -0.1199
 7330TIP3    H143481   4.939   0.785  14.392  1.8567 -0.2051 -0.7665
 7330TIP3    H243482   4.823   0.695  14.354 -0.0047  2.7590 -2.4945
 7331TIP3   OH243483   6.297   2.813  11.063  0.1033  0.2984  0.1636
 7331TIP3    H143484   6.287   2.847  10.974  0.0930 -0.0761  0.0229
 7331TIP3    H243485   6.209   2.812  11.099 -0.0980 -0.9345 -0.3270
 7332TIP3   OH243486   0.441   2.264  12.900  0.6048  0.3367 -0.1584
 7332TIP3    H143487   0.504   2.309  12.956  0.7233  0.0739 -0.0741
 7332TIP3    H243488   0.474   2.274  12.811 -0.0525  1.5222 -0.2918
 7333TIP3   OH243489   4.229   4.256   2.197  0.1324 -0.4399 -0.4369
 7333TIP3    H143490   4.237   4.352   2.197 -0.3496 -0.3819  0.8147
 7333TIP3    H243491   4.285   4.228   2.125  1.1222  0.7176 -0.1564
 7334TIP3   OH243492   2.930   2.548  16.904  0.8254 -0.4141  0.5299
 7334TIP3    H143493   2.865   2.529  16.971  1.0474 -3.4832  0.0390
 7334TIP3    H243494   3.001   2.591  16.951 -0.3848  0.5422  1.5768
 7335TIP3   OH243495   1.667   0.066   1.543 -0.3914 -0.5065 -0.1766
 7335TIP3    H143496   1.650   0.101   1.455 -0.2549 -0.6717 -0.2692
 7335TIP3    H243497   1.617   0.123   1.601 -1.1859 -0.9226 -0.4370
 7336TIP3   OH243498   3.609   1.580  12.829 -0.1008 -0.0854  0.5017
 7336TIP3    H143499   3.598   1.494  12.788 -0.5712 -0.0552  0.5641
 7336TIP3    H243500   3.559   1.640  12.774  2.6546  0.7084 -1.3238
 7337TIP3   OH243501   1.449   2.626  11.624  0.1490 -0.0750  0.3120
 7337TIP3    H143502   1.481   2.669  11.545  1.7405 -1.9664 -0.1553
 7337TIP3    H243503   1.484   2.679  11.696 -0.1146  0.8627 -0.2457
 7338TIP3   OH243504   2.692   2.113  15.607  0.2307 -0.2641  0.0875
 7338TIP3    H143505   2.782   2.082  15.615 -0.0143 -1.6539 -1.7932
 7338TIP3    H243506   2.661   2.077  15.524 -2.1989 -0.1636  0.8421
 7339TIP3   OH243507   0.441   3.277  15.415 -0.2980 -0.1520  0.5202
 7339TIP3    H143508   0.458   3.277  15.321 -1.0048  2.0280  0.3420
 7339TIP3    H243509   0.378   3.206  15.428 -1.8459  0.8776 -1.0165
 7340TIP3   OH243510   0.926   1.626  15.249  0.1484 -0.2249  0.3994
 7340TIP3    H143511   1.011   1.656  15.282  0.3032 -0.1453 -0.0572
 7340TIP3    H243512   0.921   1.662  15.160  0.1067 -1.1285  0.0260
 7341TIP3   OH243513   6.362   6.806   4.798  0.0917  0.6456 -0.0215
 7341TIP3    H143514   6.322   6.892   4.784 -0.4442  0.2970 -0.6835
 7341TIP3    H243515   6.456   6.823   4.794 -0.0097  1.0905 -0.9122
 7342TIP3   OH243516   0.331   2.249   1.026 -0.2513 -0.0820  0.0582
 7342TIP3    H143517   0.300   2.175   1.077  0.5400 -0.3686  0.1307
 7342TIP3    H243518   0.423   2.230   1.009 -0.4977 -0.0231 -1.5275
 7343TIP3   OH243519   1.257   1.537   1.999  0.3958 -0.1429  0.2024
 7343TIP3    H143520   1.236   1.569   2.087 -0.5082 -1.9826  0.7061
 7343TIP3    H243521   1.311   1.607   1.961 -0.6905  1.5222  1.5266
 7344TIP3   OH243522   3.912   2.608   2.770  0.8226 -0.2412 -0.4104
 7344TIP3    H143523   3.889   2.622   2.678  0.6422 -0.4250 -0.3939
 7344TIP3    H243524   3.989   2.551   2.767  1.4532  0.5916 -0.4725
 7345TIP3   OH243525   0.282   2.749  13.202  0.1157 -0.9330 -0.3099
 7345TIP3    H143526   0.277   2.818  13.136  0.3308  1.3086  1.8578
 7345TIP3    H243527   0.191   2.734  13.228  0.2152  0.6612  1.1675
 7346TIP3   OH243528   1.907   5.593   6.244  0.0087 -0.0289  0.3891
 7346TIP3    H143529   1.951   5.666   6.200  1.6723 -0.3027  1.5037
 7346TIP3    H243530   1.938   5.597   6.334 -1.3526 -1.0002  0.9387
 7347TIP3   OH243531   2.089   5.205  11.215  0.8411  0.2739  0.5873
 7347TIP3    H143532   2.093   5.243  11.127  0.0535  1.1504  0.9050
 7347TIP3    H243533   2.160   5.249  11.263  0.3597  0.8599  0.7713
 7348TIP3   OH243534   2.630   6.619   4.642 -0.0019 -0.4824 -0.1849
 7348TIP3    H143535   2.693   6.633   4.571  0.1136 -0.6382 -0.1121
 7348TIP3    H243536   2.672   6.655   4.719  0.7155 -2.1019  0.2062
 7349TIP3   OH243537   3.671   4.313   0.475  0.0811 -0.9238  0.0376
 7349TIP3    H143538   3.757   4.348   0.501 -0.4712  1.3852 -0.9688
 7349TIP3    H243539   3.687   4.221   0.456  2.3689 -0.5335 -0.1872
 7350TIP3   OH243540   0.586   1.919  15.727 -0.0494  0.3249  0.3650
 7350TIP3    H143541   0.553   1.992  15.780  0.0486  1.0727 -0.5738
 7350TIP3    H243542   0.533   1.923  15.647  0.2349 -0.3939  0.1367
 7351TIP3   OH243543   3.653   3.769   6.301 -0.4657  0.2867 -0.2685
 7351TIP3    H143544   3.589   3.834   6.328 -0.9366 -0.5734  0.7391
 7351TIP3    H243545   3.725   3.778   6.364 -0.9944 -0.8447  0.5399
 7352TIP3   OH243546   0.181   4.661   5.024  0.2591 -0.9008  0.0187
 7352TIP3    H143547   0.262   4.611   5.018 -0.4766 -2.1824  0.4285
 7352TIP3    H243548   0.206   4.743   5.067  0.8662 -2.4871  2.9544
 7353TIP3   OH243549   3.272   0.038  16.196  0.3462 -0.6353 -0.6169
 7353TIP3    H143550   3.233   0.120  16.165  0.6399 -0.4366 -0.4639
 7353TIP3    H243551   3.360   0.038  16.159  0.7082 -0.3856  0.2281
 7354TIP3   OH243552   2.958   1.026  11.158  0.1504 -0.3118 -0.0672
 7354TIP3    H143553   3.042   1.066  11.182  0.2873 -1.0990  0.8238
 7354TIP3    H243554   2.897   1.060  11.224  0.0973 -0.9125  0.1999
 7355TIP3   OH243555   1.282   6.067  16.423  0.1984 -0.5533 -0.1680
 7355TIP3    H143556   1.218   6.117  16.373 -1.4089 -1.9388  0.4271
 7355TIP3    H243557   1.317   6.004  16.359 -1.0540 -1.5925  0.1287
 7356TIP3   OH243558   5.138   2.434   5.640  0.0539 -0.4784 -0.3124
 7356TIP3    H143559   5.164   2.343   5.652  1.0822 -0.7089 -3.4898
 7356TIP3    H243560   5.087   2.434   5.558 -0.0522  1.7728 -0.3059
 7357TIP3   OH243561   2.937   2.294  15.816 -0.2902  0.4360 -0.1508
 7357TIP3    H143562   2.957   2.238  15.741 -1.4272  0.6970 -0.6623
 7357TIP3    H243563   3.020   2.298  15.865  0.2511 -0.3674 -0.9639
 7358TIP3   OH243564   6.536   6.602  15.269 -0.3487 -0.0992 -0.1594
 7358TIP3    H143565   6.537   6.698  15.276  0.1374 -0.0048 -1.3286
 7358TIP3    H243566   6.458   6.576  15.318 -0.7395  0.9251 -0.2005
 7359TIP3   OH243567   2.711   4.165  13.012  0.6284  0.1849  0.4412
 7359TIP3    H143568   2.657   4.133  12.940  0.5125  1.0898  0.1157
 7359TIP3    H243569   2.738   4.253  12.985 -0.4189  1.0350  2.0291
 7360TIP3   OH243570   0.177   4.390   1.056 -0.2279 -0.8547 -0.1415
 7360TIP3    H143571   0.149   4.383   1.147  0.9373 -0.6263  0.2634
 7360TIP3    H243572   0.181   4.300   1.024 -1.1303 -0.9029 -0.1331
 7361TIP3   OH243573   6.747   2.635  15.404  0.1534 -0.1397  0.2566
 7361TIP3    H143574   6.793   2.552  15.390 -0.8871 -0.1409 -5.2707
 7361TIP3    H243575   6.660   2.609  15.436 -0.4227 -1.3783 -2.1298
 7362TIP3   OH243576   6.635   3.479  15.289 -0.1890 -0.9687 -0.6245
 7362TIP3    H143577   6.592   3.405  15.246  0.9398 -1.6715 -0.5675
 7362TIP3    H243578   6.627   3.551  15.227 -2.0728 -0.8600 -0.3183
 7363TIP3   OH243579   2.592   4.323   4.767  0.3070  0.1453 -0.4682
 7363TIP3    H143580   2.614   4.387   4.699 -0.8599  0.3547 -0.6665
 7363TIP3    H243581   2.569   4.244   4.718 -2.3684  0.8362 -0.4756
 7364TIP3   OH243582   2.787   4.057   0.001  1.2809 -0.9061 -0.2394
 7364TIP3    H143583   2.839   4.031   0.077 -0.0340  0.0235  1.0365
 7364TIP3    H243584   2.832   4.135  -0.033  1.0278 -0.3919  0.5672
 7365TIP3   OH243585   0.860   6.412  10.866 -0.0661  0.0663 -0.3537
 7365TIP3    H143586   0.939   6.466  10.865  0.5937 -0.8461  0.4909
 7365TIP3    H243587   0.791   6.470  10.835  0.8746  0.9809 -0.7936
 7366TIP3   OH243588   2.436   0.325   0.990  0.3512 -0.0995 -0.5944
 7366TIP3    H143589   2.508   0.275   0.954  0.5656  0.0242 -0.3432
 7366TIP3    H243590   2.475   0.376   1.061 -0.5848 -2.5664  1.8744
 7367TIP3   OH243591   5.799   3.249  14.761 -0.1818 -0.1092  0.6448
 7367TIP3    H143592   5.838   3.163  14.746 -0.8596 -0.0869 -1.5297
 7367TIP3    H243593   5.706   3.237  14.746 -0.1260  1.2670 -1.1205
 7368TIP3   OH243594   0.046   2.115  15.406 -1.0421  0.4016 -0.7663
 7368TIP3    H143595   0.067   2.050  15.473  1.9317  0.9387 -1.0296
 7368TIP3    H243596  -0.049   2.110  15.396 -1.2797 -1.5315  1.5815
 7369TIP3   OH243597   6.449   2.615   1.835 -0.5710 -0.4728  0.1144
 7369TIP3    H143598   6.470   2.561   1.910 -1.0868  0.8782  1.2725
 7369TIP3    H243599   6.354   2.604   1.823 -0.6160 -0.1251  0.1296
 7370TIP3   OH243600   2.719   1.331  16.830 -0.1154  0.4938 -0.0802
 7370TIP3    H143601   2.700   1.351  16.921  1.2398  0.1739  0.3000
 7370TIP3    H243602   2.770   1.406  16.799  0.2487  0.1647 -0.2853
 7371TIP3   OH243603   5.011   4.200   4.217 -0.4919 -0.2886  0.0172
 7371TIP3    H143604   4.979   4.122   4.261  0.6516 -0.5906  0.3603
 7371TIP3    H243605   4.942   4.265   4.230 -0.9726 -0.9148  0.6768
 7372TIP3   OH243606   0.800   5.640  12.368  0.7440 -0.6104  0.3567
 7372TIP3    H143607   0.742   5.713  12.347 -2.2892 -2.3853  1.8623
 7372TIP3    H243608   0.880   5.681  12.401 -0.2036  1.9760 -0.3129
 7373TIP3   OH243609   5.879   0.662  12.499 -0.7236 -0.1501  0.1578
 7373TIP3    H143610   5.868   0.654  12.594 -0.3087  0.0720  0.2234
 7373TIP3    H243611   5.812   0.603  12.463 -2.1252  1.1284  0.5589
 7374TIP3   OH243612   5.423   1.093  14.607 -0.7932  0.0922 -0.0935
 7374TIP3    H143613   5.383   1.006  14.601 -0.6956  0.0504 -0.1360
 7374TIP3    H243614   5.497   1.090  14.547  1.1416 -0.8327  2.1726
 7375TIP3   OH243615   2.743   0.362  15.615 -0.3764  0.1836 -0.2844
 7375TIP3    H143616   2.836   0.358  15.594 -0.2401 -1.0166  0.4659
 7375TIP3    H243617   2.723   0.276  15.652 -1.5044  0.8479  0.7220
 7376TIP3   OH243618   2.606   5.503  13.383  0.2527 -0.3409 -0.1083
 7376TIP3    H143619   2.543   5.453  13.434 -0.2945 -1.2031 -1.5589
 7376TIP3    H243620   2.644   5.566  13.445 -1.8086  0.0118  0.8544
 7377TIP3   OH243621   1.842   4.682  13.151  0.5226  0.2858 -0.0353
 7377TIP3    H143622   1.765   4.645  13.109 -0.2815  1.0418  0.7158
 7377TIP3    H243623   1.898   4.607  13.170 -0.4969 -0.4007  0.3251
 7378TIP3   OH243624   5.307   1.475   3.850 -0.1577 -0.0289 -0.1965
 7378TIP3    H143625   5.260   1.395   3.826 -1.5023 -0.4599  3.2950
 7378TIP3    H243626   5.238   1.541   3.861  0.6502  0.8579 -0.2921
 7379TIP3   OH243627   5.381   4.159  14.135  0.6998 -0.1571  0.1462
 7379TIP3    H143628   5.371   4.064  14.123  0.5173 -0.1665  0.3725
 7379TIP3    H243629   5.359   4.174  14.227  3.6695 -0.3321  0.9909
 7380TIP3   OH243630   5.133   1.661  14.054  0.3264 -0.2700 -0.5916
 7380TIP3    H143631   5.219   1.644  14.093 -1.4383 -0.0838  3.9611
 7380TIP3    H243632   5.097   1.574  14.035  0.3880 -0.5132  0.3660
 7381TIP3   OH243633   1.296   1.458  16.408  0.1638  0.9587  0.3351
 7381TIP3    H143634   1.222   1.405  16.378 -0.5911  1.5852  1.0454
 7381TIP3    H243635   1.306   1.434  16.500  0.9342  0.7875  0.2118
 7382TIP3   OH243636   1.963   6.803  13.790 -0.4680  0.3871  0.1177
 7382TIP3    H143637   1.990   6.831  13.877 -1.0877 -0.7808  0.7122
 7382TIP3    H243638   1.874   6.769  13.802 -1.2252  1.7432 -1.2878
 7383TIP3   OH243639   1.597   1.860  11.746  0.6283  0.1170 -0.5193
 7383TIP3    H143640   1.536   1.914  11.696 -0.0236  0.4449  0.5902
 7383TIP3    H243641   1.575   1.770  11.723  0.0961  0.2514 -0.5435
 7384TIP3   OH243642   5.046   3.076  10.400  0.3351  0.3013 -0.7313
 7384TIP3    H143643   5.104   3.147  10.427  0.1002 -0.2967  1.5354
 7384TIP3    H243644   5.105   3.006  10.373  0.7609 -0.3057  1.5625
 7385TIP3   OH243645   1.346   3.514   6.106  0.5844  0.3053  0.3571
 7385TIP3    H143646   1.355   3.445   6.172  1.8125  2.6376  2.8300
 7385TIP3    H243647   1.340   3.595   6.157  0.4522  2.1795 -2.4159
 7386TIP3   OH243648   2.201   6.776  16.313  0.2432 -0.9246  0.0422
 7386TIP3    H143649   2.159   6.756  16.396 -0.3017 -1.4974 -0.3672
 7386TIP3    H243650   2.290   6.742  16.322  0.3717 -0.4580  0.5998
 7387TIP3   OH243651   5.451   6.576   0.242  0.2984 -0.0661  0.0473
 7387TIP3    H143652   5.447   6.490   0.284  2.3697  0.4761  1.4728
 7387TIP3    H243653   5.473   6.636   0.312 -0.5936  1.5850 -1.0283
 7388TIP3   OH243654   4.333   1.232  15.559  0.2453 -0.7740  0.2656
 7388TIP3    H143655   4.293   1.254  15.643  1.0570 -2.3513  1.1152
 7388TIP3    H243656   4.425   1.256  15.569  0.6424 -2.2541  0.3658
 7389TIP3   OH243657   5.885   6.638   3.979  0.7341  0.0605  0.0048
 7389TIP3    H143658   5.813   6.668   3.924  0.2960 -1.7919 -0.4896
 7389TIP3    H243659   5.842   6.611   4.061  0.9833 -0.2260  0.0407
 7390TIP3   OH243660   0.519   2.771   5.094 -0.0354 -0.1132 -0.0327
 7390TIP3    H143661   0.582   2.789   5.163 -0.1091 -0.2914  0.0834
 7390TIP3    H243662   0.571   2.765   5.014 -0.2765  3.4723 -0.6196
 7391TIP3   OH243663   0.632   5.610  16.665 -0.5709 -0.4280 -0.1634
 7391TIP3    H143664   0.673   5.524  16.676 -1.1446 -1.1029 -2.6186
 7391TIP3    H243665   0.704   5.666  16.635 -0.7110 -0.7702 -1.1925
 7392TIP3   OH243666   6.543   6.448  13.900  0.7099  0.6224  0.7109
 7392TIP3    H143667   6.481   6.421  13.833  1.8842  1.6772 -0.8750
 7392TIP3    H243668   6.624   6.402  13.879  0.7704 -0.0088  2.1897
 7393TIP3   OH243669   1.961   2.227  15.723  0.5712 -0.2268  0.2075
 7393TIP3    H143670   2.039   2.274  15.695  0.3100 -0.5444 -1.1194
 7393TIP3    H243671   1.931   2.181  15.644 -0.4908 -0.7550  0.8964
 7394TIP3   OH243672   0.736   1.043   2.373  0.3102  0.3830 -0.3340
 7394TIP3    H143673   0.654   0.999   2.349  0.8381  0.0313 -1.5661
 7394TIP3    H243674   0.718   1.081   2.459 -0.6155 -1.0583  0.1580
 7395TIP3   OH243675   2.739   3.851   5.303 -0.5116  0.1592  0.5449
 7395TIP3    H143676   2.696   3.936   5.313 -1.1271  0.1437 -1.4978
 7395TIP3    H243677   2.776   3.854   5.215 -0.6601 -1.7432  0.3869
 7396TIP3   OH243678   1.960   4.232  16.058 -0.6311 -0.8263  0.1971
 7396TIP3    H143679   1.939   4.150  16.014 -0.2191  0.7578 -3.3076
 7396TIP3    H243680   1.882   4.287  16.047  0.1926  0.2845 -0.3892
 7397TIP3   OH243681   2.095   3.730  13.509  0.8058 -0.4998 -0.1750
 7397TIP3    H143682   2.120   3.810  13.464 -1.7403 -0.5575 -1.8811
 7397TIP3    H243683   2.074   3.668  13.439  0.5446 -1.9265  1.1057
 7398TIP3   OH243684   6.084   1.008   1.851 -0.4066  0.1728 -0.7624
 7398TIP3    H143685   6.020   0.940   1.871 -2.2272  2.4026  1.6434
 7398TIP3    H243686   6.056   1.043   1.766  0.0401 -1.3684 -1.6028
 7399TIP3   OH243687   0.136   6.520   0.180 -0.4501  0.2502 -0.6246
 7399TIP3    H143688   0.099   6.436   0.205  1.8768 -0.5272  0.4686
 7399TIP3    H243689   0.160   6.561   0.263  0.1025  1.1940 -1.2400
 7400TIP3   OH243690   6.250   5.139   0.111 -0.1024  0.2595 -0.3023
 7400TIP3    H143691   6.273   5.232   0.113  1.2044 -0.0421 -0.1664
 7400TIP3    H243692   6.324   5.095   0.154  0.1676 -1.0058 -1.9564
 7401TIP3   OH243693   2.455   0.146   3.292  0.2000  0.1687 -0.0085
 7401TIP3    H143694   2.459   0.158   3.387  0.0410 -0.0105  0.0233
 7401TIP3    H243695   2.396   0.071   3.280 -0.1778  0.5014 -0.2687
 7402TIP3   OH243696   1.736   4.101  15.661  0.6546 -0.2495  0.8786
 7402TIP3    H143697   1.674   4.122  15.731  0.8227  2.0968  0.4017
 7402TIP3    H243698   1.687   4.045  15.601 -0.6268  0.5578  1.1351
 7403TIP3   OH243699   2.399   6.150   2.664 -0.1417  0.1202 -0.1366
 7403TIP3    H143700   2.396   6.109   2.577  0.5339  0.4220 -0.3110
 7403TIP3    H243701   2.329   6.107   2.713 -0.0240 -0.6113 -0.5899
 7404TIP3   OH243702   4.089   1.901   1.565 -0.3099 -0.2974  0.2939
 7404TIP3    H143703   4.051   1.860   1.643 -0.4564 -0.5879  0.0710
 7404TIP3    H243704   4.015   1.912   1.505 -0.1192 -0.4752  0.0256
 7405TIP3   OH243705   0.922   5.687  14.645 -0.3353 -0.2005 -0.2008
 7405TIP3    H143706   0.899   5.760  14.702  0.3809  0.2734 -0.4959
 7405TIP3    H243707   0.906   5.609  14.698 -1.6274  0.1294 -0.0668
 7406TIP3   OH243708   0.828   6.152  12.709  0.1933 -0.6196 -0.0540
 7406TIP3    H143709   0.807   6.090  12.639  2.4651 -1.2180 -0.2927
 7406TIP3    H243710   0.746   6.198  12.726 -1.4123 -3.2183 -0.3147
 7407TIP3   OH243711   0.724   2.245   4.435  0.0196 -0.3871  0.1138
 7407TIP3    H143712   0.807   2.205   4.410  0.6391 -1.1326  3.0071
 7407TIP3    H243713   0.745   2.336   4.454  0.0597 -0.4321  0.2859
 7408TIP3   OH243714   6.155   6.242  11.079  0.0802  0.2013 -0.2073
 7408TIP3    H143715   6.099   6.189  11.023 -2.0749  1.8459  0.2550
 7408TIP3    H243716   6.167   6.324  11.032 -1.9788  1.7216  1.6696
 7409TIP3   OH243717   3.844   0.908  11.171 -0.4009 -0.6634  0.8543
 7409TIP3    H143718   3.926   0.890  11.124 -0.0596  1.6545  0.4540
 7409TIP3    H243719   3.775   0.875  11.113  0.1744 -1.6025  0.6779
 7410TIP3   OH243720   5.529   3.492  14.606 -0.4206  0.3638 -0.2626
 7410TIP3    H143721   5.617   3.527  14.618 -1.3091  2.2991  1.1166
 7410TIP3    H243722   5.520   3.425  14.675  0.2727 -0.5508 -1.0354
 7411TIP3   OH243723   0.234   4.270  13.057  0.1305  0.2343  0.2897
 7411TIP3    H143724   0.321   4.256  13.092  1.3097  3.6608 -0.8541
 7411TIP3    H243725   0.237   4.234  12.968  0.4418  0.4579  0.2086
 7412TIP3   OH243726   3.078   2.787   4.258  0.0128  0.3373  0.6877
 7412TIP3    H143727   3.000   2.840   4.241 -0.0429  0.4820  1.3571
 7412TIP3    H243728   3.138   2.846   4.303  0.6579  0.3272 -0.1431
 7413TIP3   OH243729   6.299   3.372  11.465  0.0136  0.5209 -0.5377
 7413TIP3    H143730   6.342   3.396  11.548 -1.4475  0.9718  0.1277
 7413TIP3    H243731   6.362   3.316  11.421  1.0293  0.6605  0.6641
 7414TIP3   OH243732   3.445   6.235  15.716  0.3615 -0.6310 -0.6753
 7414TIP3    H143733   3.363   6.268  15.751  0.2253 -2.6627  1.1519
 7414TIP3    H243734   3.430   6.228  15.622 -1.3911 -0.5275 -0.4344
 7415TIP3   OH243735   4.028   3.656   1.929 -0.1306 -0.7733  0.9002
 7415TIP3    H143736   4.078   3.675   1.850 -0.1222 -0.0963  1.0602
 7415TIP3    H243737   4.093   3.656   2.000 -0.1959 -0.9835  0.9619
 7416TIP3   OH243738   0.079   6.737   1.723 -0.4291 -0.0746  0.3247
 7416TIP3    H143739   0.139   6.663   1.711  0.3901  0.4620  0.9613
 7416TIP3    H243740  -0.008   6.699   1.719 -0.0305 -0.9948  0.1455
 7417TIP3   OH243741   4.561   6.515   3.401  0.1030 -0.1287 -0.7882
 7417TIP3    H143742   4.490   6.473   3.450  0.8690  1.7948  2.2304
 7417TIP3    H243743   4.543   6.609   3.410  1.6092  0.3500 -2.2673
 7418TIP3   OH243744   2.905   3.396  16.806  0.0643  0.0572 -0.6504
 7418TIP3    H143745   2.897   3.324  16.869 -1.1852 -0.3356 -1.2196
 7418TIP3    H243746   2.997   3.392  16.778  0.4236 -0.2921  0.5015
 7419TIP3   OH243747   2.926   2.399  14.126 -0.4068  0.3461  0.0601
 7419TIP3    H143748   2.947   2.364  14.040  1.0525 -0.4059  0.6872
 7419TIP3    H243749   2.921   2.494  14.114  0.9945  0.3536 -0.6405
 7420TIP3   OH243750   0.524   5.709   5.859  0.2393  0.2146 -0.5841
 7420TIP3    H143751   0.566   5.623   5.852 -1.0871 -0.5974  0.8597
 7420TIP3    H243752   0.520   5.726   5.953 -0.7935  1.2118 -0.7896
 7421TIP3   OH243753   6.701   1.747   2.964  0.5474  0.1249 -0.1059
 7421TIP3    H143754   6.772   1.728   3.026 -0.6414  0.9858  1.6067
 7421TIP3    H243755   6.685   1.663   2.921  0.9960 -0.7007  1.2373
 7422TIP3   OH243756   2.873   2.950   5.024  0.1994 -0.6953  0.8472
 7422TIP3    H143757   2.824   2.990   5.096 -1.6821 -0.9041 -0.2571
 7422TIP3    H243758   2.830   2.981   4.945  1.1019 -1.8611 -0.1524
 7423TIP3   OH243759   1.381   5.463   3.505  0.4504  0.0832  0.4102
 7423TIP3    H143760   1.475   5.446   3.506  0.1071 -2.1116  1.4025
 7423TIP3    H243761   1.363   5.507   3.588  0.5812  0.4724  0.2351
 7424TIP3   OH243762   0.178   0.262   5.202  0.6208 -0.6362  0.2156
 7424TIP3    H143763   0.128   0.205   5.260 -1.8288  0.5198 -0.6481
 7424TIP3    H243764   0.132   0.346   5.205  2.2545  0.3644 -1.0193
 7425TIP3   OH243765   0.060   4.334  11.081  0.2896 -0.1741 -0.3633
 7425TIP3    H143766  -0.004   4.374  11.140  1.9191  1.8331  0.1538
 7425TIP3    H243767   0.053   4.385  11.000  2.0831  0.9790  0.1463
 7426TIP3   OH243768   5.841   0.640   3.380 -0.4495 -0.0349 -1.0488
 7426TIP3    H143769   5.779   0.567   3.378 -0.9156  0.2432  0.9982
 7426TIP3    H243770   5.923   0.600   3.408 -0.0917 -0.1182 -2.1491
 7427TIP3   OH243771   0.119   1.762   2.432  0.3662  0.6657  0.2343
 7427TIP3    H143772   0.085   1.739   2.345  1.1915  0.6072 -0.0820
 7427TIP3    H243773   0.041   1.775   2.485 -0.1618  0.9460 -0.5794
 7428TIP3   OH243774   1.332   5.953  13.474 -0.2596  0.1443  0.8362
 7428TIP3    H143775   1.328   6.015  13.401 -1.1011 -2.0530 -1.1268
 7428TIP3    H243776   1.423   5.957  13.504  0.1804  0.8956 -0.5197
 7429TIP3   OH243777   5.604   1.712   5.105  0.3766 -0.3153  0.1822
 7429TIP3    H143778   5.525   1.682   5.151 -0.4149  2.0112  0.4488
 7429TIP3    H243779   5.676   1.691   5.165 -0.3539  0.1595  1.2659
 7430TIP3   OH243780   2.943   3.200   4.071 -0.2247  0.7776 -0.2859
 7430TIP3    H143781   2.891   3.143   4.014 -0.2856 -0.1817  0.6972
 7430TIP3    H243782   3.026   3.154   4.083 -0.0724  1.1405  0.1075
 7431TIP3   OH243783   3.633   1.606   3.307 -0.1291  0.3258 -0.0262
 7431TIP3    H143784   3.540   1.613   3.326 -0.1002 -0.1142  0.2893
 7431TIP3    H243785   3.637   1.555   3.225 -0.1434 -0.3092  0.3582
 7432TIP3   OH243786   2.436   3.761   1.795  0.3953 -0.3665 -0.0945
 7432TIP3    H143787   2.473   3.801   1.874  2.3575 -0.3773 -0.9674
 7432TIP3    H243788   2.511   3.727   1.747 -0.7687 -0.5326 -1.8974
 7433TIP3   OH243789   6.118   2.693  15.849  0.8811 -0.0942 -0.3013
 7433TIP3    H143790   6.031   2.699  15.810  1.1991 -0.5062 -1.1099
 7433TIP3    H243791   6.105   2.713  15.942 -0.4505 -2.2048  0.0547
 7434TIP3   OH243792   5.430   3.272   4.777 -0.5053  0.5133 -0.4600
 7434TIP3    H143793   5.372   3.347   4.765  2.1350  2.6556 -0.7069
 7434TIP3    H243794   5.474   3.289   4.861  0.7248 -0.3248 -0.9124
 7435TIP3   OH243795   3.977   4.707   3.436 -0.4192 -0.4069  0.0839
 7435TIP3    H143796   3.963   4.692   3.529  0.6793 -1.3561  0.1230
 7435TIP3    H243797   3.997   4.801   3.430  2.6262 -0.8471  1.2891
 7436TIP3   OH243798   3.090   0.946  15.751  0.0584 -0.2265 -0.0980
 7436TIP3    H143799   3.123   1.036  15.744  0.8802 -0.5599 -0.6481
 7436TIP3    H243800   3.129   0.900  15.677 -1.1754 -0.7962 -0.4168
 7437TIP3   OH243801   1.685   3.121   4.345 -0.3162 -0.5871  0.5383
 7437TIP3    H143802   1.607   3.076   4.314 -0.9656  0.2137  0.9714
 7437TIP3    H243803   1.731   3.056   4.398 -1.0857 -0.8229  0.9237
 7438TIP3   OH243804   5.134   2.849   3.584  0.1904  0.1560  0.1898
 7438TIP3    H143805   5.172   2.896   3.658  0.5751 -0.4481  0.3813
 7438TIP3    H243806   5.205   2.797   3.549  0.4451  1.6159 -1.6186
 7439TIP3   OH243807   5.526   4.375  15.431  0.2259 -0.1995  0.6713
 7439TIP3    H143808   5.609   4.353  15.474 -0.0653 -1.7412  0.5054
 7439TIP3    H243809   5.459   4.343  15.492 -0.2054 -1.1973 -0.3049
 7440TIP3   OH243810   1.401   1.016   0.254 -0.0432  0.2475  0.0445
 7440TIP3    H143811   1.354   1.071   0.192  1.2083  1.6041  0.2686
 7440TIP3    H243812   1.346   1.016   0.333 -0.1465  1.0261 -0.0244
 7441TIP3   OH243813   1.794   6.765   4.569 -0.3352 -0.5984  0.1876
 7441TIP3    H143814   1.829   6.738   4.484 -0.0876 -0.4282  0.2352
 7441TIP3    H243815   1.821   6.856   4.579 -0.2444 -0.6586  0.5125
 7442TIP3   OH243816   1.191   0.267   0.394 -0.1413 -0.0601 -0.4189
 7442TIP3    H143817   1.268   0.288   0.341 -0.1253  1.5305  0.1675
 7442TIP3    H243818   1.118   0.270   0.332 -0.2196  2.5025 -0.3142
 7443TIP3   OH243819   3.049   4.886   2.044  0.5467  0.5009  0.4838
 7443TIP3    H143820   2.996   4.881   1.964  0.3507  1.6772  0.5307
 7443TIP3    H243821   3.128   4.836   2.024  0.4692  0.7283 -0.4263
 7444TIP3   OH243822   0.640   1.363   6.437  0.3556  0.5465 -0.2473
 7444TIP3    H143823   0.605   1.309   6.508  1.4389  2.2883  1.7081
 7444TIP3    H243824   0.562   1.393   6.390 -0.3414 -1.2087 -0.3033
 7445TIP3   OH243825   6.195   0.719  11.370  0.0888  0.0544  0.0748
 7445TIP3    H143826   6.216   0.781  11.300  0.0905 -0.7179 -0.6334
 7445TIP3    H243827   6.101   0.729  11.383 -0.3059 -1.1912 -1.4713
 7446TIP3   OH243828   1.834   5.013  16.243  0.3987 -0.4005 -0.2257
 7446TIP3    H143829   1.845   4.943  16.307  1.6066  0.8420  1.0100
 7446TIP3    H243830   1.908   5.002  16.182  1.7148  0.8266  1.0577
 7447TIP3   OH243831   0.610   3.411  14.050 -0.4499 -0.3644  0.3266
 7447TIP3    H143832   0.521   3.377  14.037 -1.7054  2.5495  0.3999
 7447TIP3    H243833   0.657   3.386  13.971 -1.3999 -1.7236  0.1525
 7448TIP3   OH243834   1.765   0.451   4.493 -0.1473 -0.4756 -0.2708
 7448TIP3    H143835   1.672   0.474   4.499 -0.0793 -0.3108  0.1594
 7448TIP3    H243836   1.811   0.528   4.525  0.1418 -0.5551 -0.4864
 7449TIP3   OH243837   4.861   4.503  10.467  0.0624  0.1016 -0.0053
 7449TIP3    H143838   4.841   4.486  10.375  0.8906  2.1562 -0.6208
 7449TIP3    H243839   4.951   4.472  10.478  0.9584  2.2618 -0.6780
 7450TIP3   OH243840   2.113   1.214   3.866 -0.0811  0.2148 -0.3687
 7450TIP3    H143841   2.136   1.207   3.959  0.4273  0.2528 -0.4860
 7450TIP3    H243842   2.117   1.308   3.847 -5.2698  0.9741  0.8033
 7451TIP3   OH243843   1.835   1.758  16.062 -0.1246  0.1908 -0.0527
 7451TIP3    H143844   1.766   1.805  16.015  0.6816  0.6426 -0.8118
 7451TIP3    H243845   1.915   1.805  16.040  0.3512  0.1080  1.3830
 7452TIP3   OH243846   2.058   1.059  15.145  0.1434 -0.1918 -0.2712
 7452TIP3    H143847   1.979   1.005  15.147 -0.1768  0.2739  1.4379
 7452TIP3    H243848   2.129   0.996  15.136 -0.3396 -0.7330 -0.3755
 7453TIP3   OH243849   2.647   5.843   3.384  0.0825  0.2251 -0.1759
 7453TIP3    H143850   2.701   5.820   3.309 -1.5254 -0.2127 -1.2426
 7453TIP3    H243851   2.566   5.878   3.346 -1.6696 -2.0200  1.2490
 7454TIP3   OH243852   6.563   2.685  14.106 -0.2957 -0.0556 -0.4924
 7454TIP3    H143853   6.587   2.596  14.132  0.3556 -0.2039 -1.5661
 7454TIP3    H243854   6.627   2.741  14.150 -0.2982 -0.1625 -0.3529
 7455TIP3   OH243855   0.185   5.618  12.230  0.2646  0.0778 -0.0228
 7455TIP3    H143856   0.148   5.626  12.318  0.6138  0.8742  0.0620
 7455TIP3    H243857   0.110   5.624  12.172  0.0820  0.0364  0.2051
 7456TIP3   OH243858   3.765   5.992   1.267 -0.0008 -0.3440 -0.0949
 7456TIP3    H143859   3.819   6.057   1.224  0.2508 -1.0385 -0.8399
 7456TIP3    H243860   3.677   6.006   1.232 -0.3926  0.9123  1.2589
 7457TIP3   OH243861   1.151   6.813   5.039 -0.6574 -0.2798  0.4970
 7457TIP3    H143862   1.118   6.805   5.128 -2.2776  1.4286  0.1270
 7457TIP3    H243863   1.074   6.838   4.987 -0.2689 -3.3519 -1.8250
 7458TIP3   OH243864   5.774   3.900  15.442 -0.1052 -0.3573 -0.0203
 7458TIP3    H143865   5.687   3.920  15.407  0.7360  1.2516 -1.3285
 7458TIP3    H243866   5.773   3.935  15.531 -1.2683 -1.7598  0.5601
 7459TIP3   OH243867   2.629   0.480  11.799  0.5118  0.2117 -0.0796
 7459TIP3    H143868   2.585   0.454  11.880 -1.3535  1.9958 -0.4378
 7459TIP3    H243869   2.722   0.474  11.820  0.0930  0.7415  2.2787
 7460TIP3   OH243870   3.841   3.499  12.310  0.6143  0.1524  0.3076
 7460TIP3    H143871   3.836   3.479  12.404 -0.3442  0.1331  0.2582
 7460TIP3    H243872   3.871   3.589  12.306  2.9785 -0.5446  0.5746
 7461TIP3   OH243873   0.330   2.910  15.985 -0.0227  0.5252 -0.5092
 7461TIP3    H143874   0.370   2.941  15.903 -0.0512  0.4588 -0.5479
 7461TIP3    H243875   0.261   2.849  15.957  0.1749  0.2601 -0.4299
 7462TIP3   OH243876   1.586   4.762  15.782  0.6121 -0.2301 -0.1658
 7462TIP3    H143877   1.548   4.729  15.864  1.3304  1.5596  0.9463
 7462TIP3    H243878   1.563   4.696  15.717  0.0074 -1.7177  1.4695
 7463TIP3   OH243879   2.934   6.402   3.247  0.4195  0.7352 -0.4837
 7463TIP3    H143880   2.839   6.396   3.245  0.4181 -0.7375  1.4267
 7463TIP3    H243881   2.964   6.337   3.183  0.1426  0.7188 -0.5940
 7464TIP3   OH243882   6.227   6.774  10.216 -0.6294 -0.2598  0.4508
 7464TIP3    H143883   6.320   6.773  10.192 -0.9005 -1.8802 -0.6987
 7464TIP3    H243884   6.223   6.720  10.294 -0.7220 -1.0371 -0.0805
 7465TIP3   OH243885   0.227   1.380  12.338  0.4814 -0.1053 -0.0691
 7465TIP3    H143886   0.236   1.376  12.433 -0.7424  0.3472  0.0779
 7465TIP3    H243887   0.279   1.457  12.313  0.9986 -0.3604  0.1952
 7466TIP3   OH243888   0.647   5.209  10.627  0.0500 -0.5713 -0.1144
 7466TIP3    H143889   0.617   5.131  10.673  1.9815 -2.2621 -1.4912
 7466TIP3    H243890   0.608   5.202  10.540  1.1005 -0.6519 -0.6059
 7467TIP3   OH243891   1.106   1.383   5.462  0.1945  0.5739 -0.5887
 7467TIP3    H143892   1.054   1.315   5.505 -0.7055  2.4332  1.4830
 7467TIP3    H243893   1.193   1.343   5.451 -0.8860 -1.6896 -1.6934
 7468TIP3   OH243894   2.190   6.516  10.916 -0.2495 -0.1216 -0.2370
 7468TIP3    H143895   2.279   6.503  10.883 -0.1589  0.6094 -0.2980
 7468TIP3    H243896   2.166   6.604  10.885 -0.4518  0.2606  0.9558
 7469TIP3   OH243897   5.013   0.271   5.372  0.6939 -0.2671  0.0372
 7469TIP3    H143898   4.979   0.296   5.286 -1.4371 -2.4544  0.1417
 7469TIP3    H243899   5.044   0.182   5.360  2.0034  0.0009  1.1761
 7470TIP3   OH243900   5.529   2.631  15.788  0.7974 -0.2932  0.4679
 7470TIP3    H143901   5.509   2.662  15.877  0.9127 -1.8665  1.0833
 7470TIP3    H243902   5.516   2.707  15.732 -1.7685  0.1418  1.5207
 7471TIP3   OH243903   1.722   6.625  13.729 -0.2883  0.1920 -0.1151
 7471TIP3    H143904   1.651   6.684  13.704  1.7866  2.3882 -1.2432
 7471TIP3    H243905   1.755   6.590  13.646  0.0642 -0.6476  0.3643
 7472TIP3   OH243906   5.811   0.579  16.191 -0.1154 -0.4643 -0.0741
 7472TIP3    H143907   5.837   0.528  16.114 -0.4736  0.3371 -0.7501
 7472TIP3    H243908   5.723   0.548  16.211 -0.0147 -0.6869  0.0309
 7473TIP3   OH243909   3.533   5.324   3.461  0.5713  0.0720  0.2141
 7473TIP3    H143910   3.529   5.415   3.489  3.0597  0.2600  0.2376
 7473TIP3    H243911   3.512   5.274   3.540  2.4538  0.6575  1.1595
 7474TIP3   OH243912   5.249   1.270  14.830  0.0858  0.2218 -0.4142
 7474TIP3    H143913   5.286   1.345  14.877  0.2933  0.4762 -0.9715
 7474TIP3    H243914   5.244   1.299  14.739  0.0773 -0.4106 -0.6199
 7475TIP3   OH243915   2.172   1.451   3.717  0.4404  0.5849 -0.1944
 7475TIP3    H143916   2.159   1.537   3.678  2.8502  0.6590 -0.9970
 7475TIP3    H243917   2.267   1.442   3.724  0.1968 -1.1623  1.8473
 7476TIP3   OH243918   4.458   1.524  13.147 -0.6067  0.1038  0.7931
 7476TIP3    H143919   4.398   1.548  13.077 -0.2829 -2.1537 -0.3611
 7476TIP3    H243920   4.403   1.477  13.211 -0.4964  0.1403  0.9158
 7477TIP3   OH243921   3.505   2.091  13.403  0.4170 -0.2478  0.0679
 7477TIP3    H143922   3.569   2.021  13.410 -1.1312 -1.7098  0.1629
 7477TIP3    H243923   3.493   2.122  13.493  1.6387  0.6634 -0.0680
 7478TIP3   OH243924   0.166   1.113  13.604  0.4383 -0.0596 -0.2885
 7478TIP3    H143925   0.092   1.086  13.658  0.7338  0.3590  0.3408
 7478TIP3    H243926   0.158   1.060  13.524  0.1266 -0.8604  0.2605
 7479TIP3   OH243927   1.367   1.813  11.321  0.4816 -0.2544  0.3482
 7479TIP3    H143928   1.411   1.815  11.236  0.8069  0.0813  0.5218
 7479TIP3    H243929   1.330   1.901  11.331 -0.0771 -0.4726  0.2906
 7480TIP3   OH243930   4.534   4.036  14.360 -0.0461  0.6097  0.2166
 7480TIP3    H143931   4.496   4.056  14.275 -0.6259  1.5725  0.6880
 7480TIP3    H243932   4.479   4.082  14.423  0.8491  0.5830  1.0517
 7481TIP3   OH243933   1.682   6.625   0.638 -0.1014  0.1801 -0.4367
 7481TIP3    H143934   1.630   6.701   0.613  3.0074  2.3284 -0.9511
 7481TIP3    H243935   1.622   6.551   0.630 -2.3799  2.1126 -3.2711
 7482TIP3   OH243936   5.830   1.623   2.673 -0.6016 -0.1060 -0.4565
 7482TIP3    H143937   5.741   1.605   2.702  0.4895 -0.0761  3.6154
 7482TIP3    H243938   5.824   1.706   2.625 -2.5379  1.2197  1.8492
 7483TIP3   OH243939   1.404   5.393   2.233 -0.1250  0.6149  0.2836
 7483TIP3    H143940   1.493   5.427   2.220  1.5976 -2.6559  2.2151
 7483TIP3    H243941   1.398   5.379   2.327 -0.8814 -3.4339 -0.2147
 7484TIP3   OH243942   1.310   2.886  13.348  0.4890  0.2290  0.4129
 7484TIP3    H143943   1.271   2.889  13.261  1.7124 -1.1014 -0.2294
 7484TIP3    H243944   1.307   2.976  13.379 -0.2199  0.6782 -0.8906
 7485TIP3   OH243945   5.672   2.283  11.154 -0.1979 -0.2172 -0.0718
 7485TIP3    H143946   5.642   2.211  11.098 -0.3629 -0.6846  0.6054
 7485TIP3    H243947   5.730   2.241  11.217  0.4615  0.4040 -0.2573
 7486TIP3   OH243948   0.472   3.036  10.787 -0.1024 -0.8155 -0.0630
 7486TIP3    H143949   0.406   3.101  10.813  0.5987 -0.0640 -0.1171
 7486TIP3    H243950   0.437   2.997  10.707 -0.6218 -0.6432  0.0720
 7487TIP3   OH243951   1.088   2.149   0.249  0.4484  0.3638  0.1928
 7487TIP3    H143952   1.010   2.194   0.218  1.0141 -0.4205 -2.6511
 7487TIP3    H243953   1.056   2.087   0.315 -1.3176  0.1809 -0.7904
 7488TIP3   OH243954   0.525   0.412   2.922  0.4631  0.2713  0.3464
 7488TIP3    H143955   0.508   0.494   2.968  1.0149  0.1928  0.6980
 7488TIP3    H243956   0.453   0.355   2.948  0.3528  0.4782  0.4987
 7489TIP3   OH243957   4.328   0.740   2.861  0.5284  0.0483 -0.2333
 7489TIP3    H143958   4.423   0.730   2.853  0.3616  0.0326 -3.3636
 7489TIP3    H243959   4.292   0.681   2.795 -1.8699 -1.6865  2.3384
 7490TIP3   OH243960   4.483   6.387  16.171  0.0071 -0.2011 -1.5726
 7490TIP3    H143961   4.466   6.464  16.116 -0.3225 -0.1475 -1.4000
 7490TIP3    H243962   4.445   6.410  16.256  1.4493  0.1525 -0.9933
 7491TIP3   OH243963   2.060   4.852   2.123 -0.0202  0.3714  0.0691
 7491TIP3    H143964   2.013   4.919   2.172  0.1723  0.2855  0.3752
 7491TIP3    H243965   2.101   4.899   2.051 -1.3683  0.2972 -0.7767
 7492TIP3   OH243966   2.023   3.547   2.753  0.1116 -0.1574 -0.4257
 7492TIP3    H143967   2.009   3.570   2.661 -2.1801 -1.7620 -0.5427
 7492TIP3    H243968   2.105   3.496   2.752  0.8890  1.0384 -1.3143
 7493TIP3   OH243969   6.404   4.123  16.214 -0.4788  0.0545  0.2610
 7493TIP3    H143970   6.427   4.123  16.307 -1.8860 -2.2613  0.6945
 7493TIP3    H243971   6.488   4.124  16.168  0.4531 -2.8999  1.6636
 7494TIP3   OH243972   4.683   4.226  12.905  0.4872 -0.2985  0.2700
 7494TIP3    H143973   4.597   4.265  12.891  1.4587  2.1902  0.6712
 7494TIP3    H243974   4.672   4.171  12.982 -0.8601 -0.4942 -0.0344
 7495TIP3   OH243975   3.138   4.002  10.971 -0.2141  0.5886 -0.1013
 7495TIP3    H143976   3.229   4.026  10.985 -0.0592 -0.6397  1.1128
 7495TIP3    H243977   3.099   4.080  10.931  0.8331  1.9579  1.4154
 7496TIP3   OH243978   1.083   5.992   4.900 -0.1284 -0.5280 -0.2225
 7496TIP3    H143979   1.109   6.069   4.849  0.9829 -1.3292 -0.8959
 7496TIP3    H243980   1.088   6.022   4.991 -2.2006  0.9360 -0.5245
 7497TIP3   OH243981   5.212   1.156  10.584 -0.2596 -1.2136 -0.3680
 7497TIP3    H143982   5.225   1.194  10.671 -0.9288  0.7148 -1.0507
 7497TIP3    H243983   5.266   1.077  10.583  0.7615 -0.5781  1.3468
 7498TIP3   OH243984   4.481   0.202  12.509 -0.4362 -0.0337 -0.0432
 7498TIP3    H143985   4.480   0.175  12.417 -1.6565 -0.9469  0.2023
 7498TIP3    H243986   4.541   0.276  12.512  2.5249 -2.2022 -0.9204
 7499TIP3   OH243987   5.380   0.563  13.003 -0.2416 -0.1641  0.0530
 7499TIP3    H143988   5.379   0.567  12.907 -3.3894  0.6643  0.0050
 7499TIP3    H243989   5.382   0.655  13.030  0.7655 -0.3957  0.8421
 7500TIP3   OH243990   4.653   2.311  12.778 -0.7201  0.1408  0.6844
 7500TIP3    H143991   4.650   2.231  12.725 -1.4439  0.9608 -0.5841
 7500TIP3    H243992   4.637   2.282  12.867 -2.1309 -1.0089  0.0965
 7501TIP3   OH243993   6.123   1.043   5.219 -0.1712  0.1968  0.1211
 7501TIP3    H143994   6.105   1.131   5.252 -0.3869  0.4954 -0.7754
 7501TIP3    H243995   6.126   1.053   5.124 -2.5068 -1.1629 -0.1490
 7502TIP3   OH243996   3.178   1.925   5.241 -0.8128  0.7645 -0.2511
 7502TIP3    H143997   3.103   1.877   5.276 -0.9867  0.7177 -0.6756
 7502TIP3    H243998   3.251   1.900   5.297 -1.3169  1.6130  0.8105
 7503TIP3   OH243999   2.061   6.379  12.659 -0.6741  0.4985 -0.0073
 7503TIP3    H144000   2.131   6.435  12.625  0.8281 -1.2396  0.0088
 7503TIP3    H244001   2.039   6.417  12.744  3.0274 -0.8818  1.8426
 7504TIP3   OH244002   4.342   4.531  11.685 -0.1079  0.0186 -0.1932
 7504TIP3    H144003   4.406   4.603  11.691  1.2204 -1.1052 -0.3576
 7504TIP3    H244004   4.325   4.521  11.591  0.8828 -0.8392 -0.3034
 7505TIP3   OH244005   4.357   4.888  16.893 -0.3614  0.1342 -0.1696
 7505TIP3    H144006   4.305   4.849  16.823 -0.8104 -2.3042  1.3830
 7505TIP3    H244007   4.387   4.971  16.858  0.5601 -1.5161 -3.7722
 7506TIP3   OH244008   4.566   4.333   3.622  0.0013  0.2307  0.1359
 7506TIP3    H144009   4.592   4.241   3.609  1.6382  0.5373  0.9484
 7506TIP3    H244010   4.562   4.343   3.717  0.0946  1.0600  0.0571
 7507TIP3   OH244011   3.925   3.335   4.602  0.6440 -0.1641  0.1672
 7507TIP3    H144012   3.930   3.247   4.565 -1.2304  0.1498 -0.9600
 7507TIP3    H244013   3.832   3.357   4.599  1.0501  1.7942  0.5939
 7508TIP3   OH244014   2.782   5.858  11.623  0.2566 -0.1010 -0.1454
 7508TIP3    H144015   2.784   5.837  11.529 -0.4735  0.0540 -0.2024
 7508TIP3    H244016   2.726   5.791  11.661 -0.2558  0.4197  0.0249
 7509TIP3   OH244017   6.459   4.465  11.311  0.3357 -0.0579 -0.3570
 7509TIP3    H144018   6.410   4.526  11.366  2.0196  0.3369  0.7583
 7509TIP3    H244019   6.404   4.386  11.309  0.5593 -0.3924  2.5765
 7510TIP3   OH244020   1.420   1.327   0.870  0.0712  0.3469 -0.1809
 7510TIP3    H144021   1.359   1.394   0.839  2.1237  2.3323 -0.2445
 7510TIP3    H244022   1.486   1.322   0.801  0.6434 -0.8193  0.4331
 7511TIP3   OH244023   2.089   4.751  13.792  0.0012  0.2303  0.1417
 7511TIP3    H144024   2.116   4.842  13.806  1.6113 -0.1540 -0.2587
 7511TIP3    H244025   2.076   4.744  13.698  0.2764 -0.0506  0.1235
 7512TIP3   OH244026   1.635   1.226  11.971  0.0545 -0.2364 -0.1246
 7512TIP3    H144027   1.539   1.232  11.977  0.1462  1.8961  0.1533
 7512TIP3    H244028   1.655   1.253  11.881  0.4213 -0.0176  0.0211
 7513TIP3   OH244029   2.328   4.568   4.804 -0.1781  0.9970 -0.3640
 7513TIP3    H144030   2.351   4.513   4.729 -1.4212  0.4061 -0.3247
 7513TIP3    H244031   2.254   4.524   4.845  0.1675  1.5721  0.9356
 7514TIP3   OH244032   5.361   6.159  13.574  0.0273 -0.2683  0.2576
 7514TIP3    H144033   5.334   6.084  13.626  1.5687  0.5545  2.4160
 7514TIP3    H244034   5.344   6.235  13.630  0.4183  0.8188 -1.0192
 7515TIP3   OH244035   6.009   0.578   1.707  0.3508 -0.4446 -0.0035
 7515TIP3    H144036   5.967   0.589   1.621  1.6506 -0.5064 -0.6724
 7515TIP3    H244037   6.102   0.594   1.690  0.4863  0.7086  1.6383
 7516TIP3   OH244038   3.749   5.291  12.030  0.0340  0.0855  0.3851
 7516TIP3    H144039   3.756   5.196  12.028 -2.7843 -0.1932  0.4062
 7516TIP3    H244040   3.774   5.315  12.119  1.3663 -0.5425  0.2001
 7517TIP3   OH244041   5.032   3.199  12.625 -0.4420 -0.1650  0.3594
 7517TIP3    H144042   4.975   3.203  12.548 -0.1463  1.4541  0.1940
 7517TIP3    H244043   5.117   3.171  12.591 -0.8302 -1.5829  0.4596
 7518TIP3   OH244044   5.506   5.572   2.901 -0.3048  0.0469 -0.1783
 7518TIP3    H144045   5.448   5.512   2.947  0.5781 -0.4871  0.2689
 7518TIP3    H244046   5.467   5.581   2.813 -2.5149  1.7892  0.8711
 7519TIP3   OH244047   5.457   1.193   0.112  0.5738 -0.2018  0.9366
 7519TIP3    H144048   5.509   1.138   0.170 -0.5812  0.8503  3.0679
 7519TIP3    H244049   5.381   1.219   0.164 -0.7768  0.4487 -1.1970
 7520TIP3   OH244050   3.787   3.243   3.925 -0.3984 -0.0775  0.5639
 7520TIP3    H144051   3.800   3.318   3.867 -0.2815 -0.3687  0.2129
 7520TIP3    H244052   3.781   3.282   4.013  0.2097  0.2988  0.4471
 7521TIP3   OH244053   2.795   6.436   6.187  0.3859  0.3679 -0.1158
 7521TIP3    H144054   2.788   6.526   6.157 -0.8415 -0.1974 -1.6690
 7521TIP3    H244055   2.706   6.412   6.213  1.2040  0.5167  3.3448
 7522TIP3   OH244056   6.716   3.217   2.727  0.3915  0.3790 -0.2991
 7522TIP3    H144057   6.807   3.188   2.734  0.2601 -0.0963 -0.5421
 7522TIP3    H244058   6.712   3.262   2.642  0.2568 -0.1468 -0.5798
 7523TIP3   OH244059   1.761   1.001  10.890 -0.1041  0.0591 -0.5394
 7523TIP3    H144060   1.684   0.986  10.945  0.2278 -0.1874 -0.1358
 7523TIP3    H244061   1.743   0.952  10.810  0.0871 -0.8615 -0.0330
 7524TIP3   OH244062   1.046   0.078  15.260 -0.0026 -0.1849  0.1438
 7524TIP3    H144063   1.059   0.059  15.353  0.2953  0.0230  0.1472
 7524TIP3    H244064   0.977   0.145  15.259 -0.4769 -0.6609  0.1739
 7525TIP3   OH244065   6.509   0.007   4.081  0.0589 -0.1560  0.0626
 7525TIP3    H144066   6.580   0.045   4.031 -0.7483  0.8137 -0.3758
 7525TIP3    H244067   6.552  -0.049   4.145  1.2953  1.4016  0.6591
 7526TIP3   OH244068   0.120   2.653   4.155  0.2479 -0.1340 -0.8270
 7526TIP3    H144069   0.198   2.625   4.106  0.4780 -1.5596  0.2806
 7526TIP3    H244070   0.120   2.748   4.147  1.0476 -0.2293 -2.4207
 7527TIP3   OH244071   3.969   0.260  13.267 -0.3850 -0.0089  0.5777
 7527TIP3    H144072   4.015   0.179  13.243  0.0236  0.9516 -2.1905
 7527TIP3    H244073   3.878   0.234  13.276 -0.2770 -0.7910 -0.3964
 7528TIP3   OH244074   5.053   2.430  11.545 -0.5553  0.0762  0.0132
 7528TIP3    H144075   5.076   2.356  11.489 -2.1413 -0.0711 -0.4991
 7528TIP3    H244076   5.015   2.494  11.485 -0.4668  0.7320  0.6472
 7529TIP3   OH244077   2.690   6.351  13.905  0.2132  0.3240  0.6252
 7529TIP3    H144078   2.743   6.359  13.826 -0.9634 -0.9738 -0.3471
 7529TIP3    H244079   2.634   6.429  13.905  0.9418  0.8552  0.7654
 7530TIP3   OH244080   2.410   5.733  16.876  0.1448 -0.2763  0.2417
 7530TIP3    H144081   2.318   5.757  16.860 -0.8689 -2.7629  1.8084
 7530TIP3    H244082   2.442   5.803  16.934 -1.1934 -0.0398  0.7604
 7531TIP3   OH244083   1.862   5.489  12.818 -0.1453 -0.2184  0.3303
 7531TIP3    H144084   1.902   5.429  12.755 -1.8525 -2.1818  1.0003
 7531TIP3    H244085   1.887   5.576  12.787  0.0887 -1.1337 -2.3405
 7532TIP3   OH244086   0.478   0.700   5.810  0.1489 -0.1226 -0.5111
 7532TIP3    H144087   0.442   0.617   5.778 -0.8123 -0.5434  1.5276
 7532TIP3    H244088   0.467   0.696   5.905 -1.4399  2.9943 -0.4356
 7533TIP3   OH244089   2.229   0.914  12.587 -0.6106  0.1924 -0.1420
 7533TIP3    H144090   2.164   0.952  12.528 -2.1296 -2.6166 -0.4450
 7533TIP3    H244091   2.257   0.986  12.642 -3.2998  1.7271 -0.6285
 7534TIP3   OH244092   1.454   5.924   0.970 -0.5369  0.7304 -0.5813
 7534TIP3    H144093   1.369   5.961   0.945 -0.5358  0.4019 -1.0873
 7534TIP3    H244094   1.518   5.987   0.936 -0.5864  1.2825  0.3185
 7535TIP3   OH244095   0.110   5.723  14.038  0.1151  0.2544  0.3869
 7535TIP3    H144096   0.028   5.683  14.066 -0.5519  0.2086 -1.4529
 7535TIP3    H244097   0.094   5.749  13.947  1.4013  2.3181  0.6879
 7536TIP3   OH244098   5.381   5.909   2.704 -0.1415  0.0847  0.4070
 7536TIP3    H144099   5.322   5.968   2.752 -3.5187 -1.3746 -1.5751
 7536TIP3    H244100   5.464   5.956   2.701 -1.3185  2.6463  2.8229
 7537TIP3   OH244101   5.789   5.805   6.046  0.0062  0.0782 -0.2522
 7537TIP3    H144102   5.848   5.741   6.086 -1.0202 -2.4862 -2.4811
 7537TIP3    H244103   5.710   5.803   6.101  0.0932 -0.3920 -0.1383
 7538TIP3   OH244104   6.105   2.307  15.919 -0.3272  0.6132  0.3159
 7538TIP3    H144105   6.092   2.367  15.846  1.9312  1.4558  0.5004
 7538TIP3    H244106   6.077   2.356  15.996  0.7720  1.1686  0.3805
 7539TIP3   OH244107   4.846   5.320  12.396  0.1187 -0.4057 -0.4138
 7539TIP3    H144108   4.929   5.289  12.433  1.5926  3.9989  0.6771
 7539TIP3    H244109   4.858   5.316  12.302  0.5231 -2.1109 -0.3152
 7540TIP3   OH244110   5.291   6.309  11.659 -0.1753 -0.1112 -0.1491
 7540TIP3    H144111   5.378   6.326  11.695  0.5567 -0.5296 -1.6565
 7540TIP3    H244112   5.297   6.336  11.567 -1.8862  0.6349 -0.0863
 7541TIP3   OH244113   5.565   5.544  12.547 -0.0161 -0.3706  0.4597
 7541TIP3    H144114   5.569   5.628  12.593 -1.5056 -0.3928  0.6773
 7541TIP3    H244115   5.553   5.568  12.455 -0.0782 -0.3351  0.4767
 7542TIP3   OH244116   4.205   3.081  15.683  0.2741  0.6308  0.2986
 7542TIP3    H144117   4.161   3.166  15.684  0.5678  0.7809  0.8537
 7542TIP3    H244118   4.269   3.088  15.612 -1.0598  0.1566 -0.9990
 7543TIP3   OH244119   0.448   3.299   4.894  0.2117 -0.3039  0.4106
 7543TIP3    H144120   0.513   3.333   4.955  0.2571 -1.7436  1.2149
 7543TIP3    H244121   0.466   3.205   4.889 -0.1208 -0.3041 -1.4517
 7544TIP3   OH244122   5.458   5.116   5.172 -0.3884  0.0100 -0.0070
 7544TIP3    H144123   5.520   5.189   5.179 -0.7116  0.2116  0.8649
 7544TIP3    H244124   5.510   5.045   5.136 -0.3273  0.9659 -1.9324
 7545TIP3   OH244125   3.332   4.864   4.131  0.5319 -0.3152 -0.5399
 7545TIP3    H144126   3.361   4.861   4.222 -1.3716  1.7849  0.2281
 7545TIP3    H244127   3.306   4.773   4.112  0.4868 -0.7016  1.1780
 7546TIP3   OH244128   6.436   6.819   4.437 -0.5770 -0.1672  0.2902
 7546TIP3    H144129   6.342   6.829   4.451 -0.4102  0.5799  0.9809
 7546TIP3    H244130   6.473   6.903   4.466  0.2044 -0.0531 -0.9712
 7547TIP3   OH244131   3.622   2.306   3.801  0.2532  0.2042  0.4622
 7547TIP3    H144132   3.648   2.349   3.719 -1.2829 -1.9200 -1.2750
 7547TIP3    H244133   3.611   2.377   3.863  0.8168  1.9919 -1.3650
 7548TIP3   OH244134   3.844   3.110  15.711 -0.2838  0.3396 -0.5433
 7548TIP3    H144135   3.918   3.139  15.658  0.0452  2.3246  0.8910
 7548TIP3    H244136   3.878   3.037  15.761  0.7668  1.2807  0.1602
 7549TIP3   OH244137   1.391   3.009   1.917  0.2739  0.0980  0.1495
 7549TIP3    H144138   1.480   2.975   1.911  0.1164 -0.2014 -0.7656
 7549TIP3    H244139   1.386   3.051   2.002  1.4929  0.6902 -0.0551
 7550TIP3   OH244140   2.059   4.674   4.628 -0.2093 -0.2763  0.3356
 7550TIP3    H144141   1.987   4.656   4.569  0.2448 -0.8217 -0.0600
 7550TIP3    H244142   2.102   4.751   4.589 -1.9297  1.5540  1.8312
 7551TIP3   OH244143   3.848   4.389  12.442 -0.3609 -0.3264  0.0402
 7551TIP3    H144144   3.782   4.339  12.491 -1.2189  0.0190 -0.7357
 7551TIP3    H244145   3.862   4.468  12.496 -0.2162 -0.6306  0.4509
 7552TIP3   OH244146   0.285   6.865  15.152  0.2946  0.0023  0.2764
 7552TIP3    H144147   0.283   6.957  15.177 -2.4930 -0.1726  0.9749
 7552TIP3    H244148   0.267   6.817  15.233  1.0208 -1.1609 -0.2147
 7553TIP3   OH244149   1.698   1.305   4.343 -0.1390 -0.4211  0.5971
 7553TIP3    H144150   1.659   1.378   4.391  0.0390 -1.1643  1.9177
 7553TIP3    H244151   1.625   1.244   4.330 -0.1596 -0.2760  0.0031
 7554TIP3   OH244152   5.194   5.429   0.888  0.6725  0.2043  0.6325
 7554TIP3    H144153   5.126   5.379   0.842 -0.2990  1.7633  0.2979
 7554TIP3    H244154   5.200   5.511   0.841  3.0196  0.0259  0.5250
 7555TIP3   OH244155   0.691   0.355  14.423  0.4130 -0.0851 -0.0727
 7555TIP3    H144156   0.726   0.432  14.469 -1.4483  0.1039  1.1637
 7555TIP3    H244157   0.639   0.310  14.490 -1.9779 -0.1178 -1.8419
 7556TIP3   OH244158   3.638   6.665  14.509  0.1158  0.2050 -0.5048
 7556TIP3    H144159   3.638   6.605  14.434 -1.1235  0.6728 -0.9032
 7556TIP3    H244160   3.633   6.608  14.586 -0.1380 -0.2266 -0.8356
 7557TIP3   OH244161   2.270   2.575  15.783  0.2362  1.0121  0.1981
 7557TIP3    H144162   2.318   2.506  15.829  0.1495  0.6098 -0.3018
 7557TIP3    H244163   2.184   2.536  15.765 -0.0579  1.5025  0.5233
 7558TIP3   OH244164   5.143   3.167   2.099 -0.0981  0.2021 -0.1934
 7558TIP3    H144165   5.120   3.243   2.045 -0.9431  0.3282  0.3161
 7558TIP3    H244166   5.143   3.201   2.188  1.3006 -0.0021 -0.0956
 7559TIP3   OH244167   0.236   2.592   0.538  0.0023  0.1206  0.4666
 7559TIP3    H144168   0.214   2.650   0.611 -1.6366  1.4604 -1.0172
 7559TIP3    H244169   0.330   2.604   0.526  0.2492  0.1474  2.0794
 7560TIP3   OH244170   1.480   1.721  14.265  0.1399  0.2394 -0.3395
 7560TIP3    H144171   1.447   1.640  14.226 -0.9516  0.9574 -0.9815
 7560TIP3    H244172   1.575   1.716  14.254  0.2439 -1.5771  0.9026
 7561TIP3   OH244173   5.850   2.641   6.183 -0.2371 -1.0252  0.2028
 7561TIP3    H144174   5.885   2.590   6.256 -1.7906 -1.6939  0.5277
 7561TIP3    H244175   5.755   2.633   6.192 -0.5519  1.4716 -0.0684
 7562TIP3   OH244176   5.094   2.547  15.996  0.5276  0.4899 -0.1885
 7562TIP3    H144177   5.052   2.491  15.931 -0.7181 -1.4720  2.1483
 7562TIP3    H244178   5.024   2.606  16.024  0.7559  0.5992  0.1431
 7563TIP3   OH244179   1.629   2.491   5.889  0.3490 -0.2872  0.6618
 7563TIP3    H144180   1.629   2.404   5.849 -1.1635 -0.3517  0.7368
 7563TIP3    H244181   1.669   2.548   5.822 -0.2246 -0.7569 -0.0995
 7564TIP3   OH244182   6.828   5.521   1.373  0.1718 -0.5560 -0.2467
 7564TIP3    H144183   6.758   5.456   1.386  0.4478 -0.7466  0.3194
 7564TIP3    H244184   6.804   5.593   1.431 -0.5419  0.1918 -1.4441
 7565TIP3   OH244185   5.152   0.529   3.968 -0.0487 -0.2096  0.2022
 7565TIP3    H144186   5.140   0.434   3.960 -0.7773 -0.3053  2.1312
 7565TIP3    H244187   5.245   0.539   3.987 -0.0059 -0.5505  0.1829
 7566TIP3   OH244188   5.995   3.740   3.912 -0.2029 -0.1980 -0.5031
 7566TIP3    H144189   6.075   3.702   3.947  1.2319  0.9141 -2.3742
 7566TIP3    H244190   5.924   3.699   3.963  1.5378 -0.8300  1.5520
 7567TIP3   OH244191   2.812   3.333  12.531 -0.1216  0.2262 -0.1896
 7567TIP3    H144192   2.905   3.330  12.508  0.3438  1.4493  1.3253
 7567TIP3    H244193   2.768   3.364  12.452  0.8655  0.4580 -0.6569
 7568TIP3   OH244194   2.383   5.617   3.445 -0.1311  0.4034 -0.3796
 7568TIP3    H144195   2.440   5.566   3.387 -1.2826  0.1860 -1.3595
 7568TIP3    H244196   2.399   5.708   3.420 -0.3201  0.3360 -0.7533
 7569TIP3   OH244197   0.047   3.183   4.805  0.6669 -0.2973  0.2855
 7569TIP3    H144198  -0.042   3.212   4.787 -0.2603 -2.2989  1.3552
 7569TIP3    H244199   0.091   3.186   4.720 -0.3115  1.0148 -0.1972
 7570TIP3   OH244200   2.025   5.248   0.842 -0.1463 -0.5620  0.0634
 7570TIP3    H144201   1.999   5.184   0.908 -1.1056 -0.5987 -0.3392
 7570TIP3    H244202   1.969   5.229   0.766  0.6541 -0.2595 -0.6187
 7571TIP3   OH244203   2.925   4.384  11.796  0.0195  0.0428 -0.4354
 7571TIP3    H144204   2.943   4.409  11.705 -2.0181  0.0388 -0.8933
 7571TIP3    H244205   2.842   4.428  11.817  0.1536 -0.4403  1.2241
 7572TIP3   OH244206   3.817   3.138   1.668  0.1479 -0.8036 -0.5589
 7572TIP3    H144207   3.767   3.071   1.714  1.0943 -0.0104  1.8033
 7572TIP3    H244208   3.799   3.219   1.717  0.5172  0.2944 -2.1630
 7573TIP3   OH244209   1.008   4.273  10.640 -0.4025 -0.2479  0.4737
 7573TIP3    H144210   0.995   4.367  10.655 -0.7141  0.1439 -1.8212
 7573TIP3    H244211   1.082   4.268  10.580 -0.5818 -1.4441  0.3263
 7574TIP3   OH244212   2.634   0.480  10.257 -0.4354 -0.3792 -0.3354
 7574TIP3    H144213   2.558   0.462  10.202 -1.1912 -0.4841  0.7075
 7574TIP3    H244214   2.630   0.413  10.325  1.4484 -1.3190 -1.0763
 7575TIP3   OH244215   0.905   1.277   2.449 -0.4067 -0.0630  0.0913
 7575TIP3    H144216   0.854   1.304   2.526  1.0250 -0.6176  1.2854
 7575TIP3    H244217   0.846   1.222   2.399 -0.6138 -1.8147  2.1361
 7576TIP3   OH244218   5.412   1.892  11.623 -0.3214  0.6568  0.2449
 7576TIP3    H144219   5.434   1.830  11.693  1.1785  0.3831 -0.4322
 7576TIP3    H244220   5.340   1.851  11.577  0.2486 -0.3156  0.1846
 7577TIP3   OH244221   2.785   5.416  16.964 -0.1358  0.5817  0.1837
 7577TIP3    H144222   2.799   5.505  16.931 -0.8945  0.0763 -1.6015
 7577TIP3    H244223   2.783   5.426  17.059  1.0802  2.2699  0.0870
 7578TIP3   OH244224   5.968   1.008   2.235  0.4476  0.0090  0.3155
 7578TIP3    H144225   6.038   0.994   2.299  2.0421  1.1850 -1.0925
 7578TIP3    H244226   5.929   1.092   2.260  0.9997  0.4149 -0.1390
 7579TIP3   OH244227   5.469   1.039  11.205 -0.6014 -0.3252  0.3658
 7579TIP3    H144228   5.463   1.050  11.110 -2.2431  0.5036  0.5338
 7579TIP3    H244229   5.507   1.121  11.237  2.1914 -1.4685  0.2892
 7580TIP3   OH244230   0.468   4.651  13.074  0.7162 -0.6735 -0.6027
 7580TIP3    H144231   0.400   4.665  13.008  0.4330  2.0908  0.1906
 7580TIP3    H244232   0.424   4.603  13.144 -0.3902  0.7683 -0.2581
 7581TIP3   OH244233   2.496   5.195   4.278  0.0766  0.7013  0.3469
 7581TIP3    H144234   2.548   5.168   4.354  1.3179 -1.1606 -1.0622
 7581TIP3    H244235   2.496   5.291   4.282  0.6999  0.6728  2.2699
 7582TIP3   OH244236   2.211   1.018  13.683  0.0175  0.3381 -0.1066
 7582TIP3    H144237   2.142   0.955  13.661 -0.6154  1.2377 -0.7912
 7582TIP3    H244238   2.232   1.061  13.600  0.3270  1.1258  0.3635
 7583TIP3   OH244239   4.042   4.327  14.899 -0.2501  0.4112  0.4763
 7583TIP3    H144240   3.972   4.393  14.897 -2.8609 -2.1328  0.5306
 7583TIP3    H244241   4.073   4.323  14.809  0.0808  1.7814  0.5032
 7584TIP3   OH244242   4.499   6.281   4.566  0.2184  0.6652  0.8266
 7584TIP3    H144243   4.559   6.327   4.506 -1.8419 -0.2115 -2.1378
 7584TIP3    H244244   4.519   6.189   4.553 -1.4423  0.3830  0.0882
 7585TIP3   OH244245   0.929   1.365  11.970 -0.0556 -0.2486 -0.1023
 7585TIP3    H144246   0.958   1.302  11.904 -0.5835 -0.6618  0.0561
 7585TIP3    H244247   0.916   1.446  11.921  0.3012 -0.3506 -0.3671
 7586TIP3   OH244248   1.099   4.102  10.865 -0.7776 -0.2157  0.3433
 7586TIP3    H144249   1.079   4.143  10.781 -0.4260 -2.9273 -1.1860
 7586TIP3    H244250   1.185   4.136  10.889  0.3447 -1.3205 -1.8163
 7587TIP3   OH244251   4.872   5.231  11.171  0.0854 -0.3139 -0.2419
 7587TIP3    H144252   4.900   5.147  11.134 -0.9237 -1.7017  1.9477
 7587TIP3    H244253   4.831   5.208  11.254 -0.5441  2.3488  0.2698
 7588TIP3   OH244254   2.595   1.485   0.647  0.1172  0.4279 -0.5422
 7588TIP3    H144255   2.597   1.471   0.742  0.5815 -0.3866 -0.6646
 7588TIP3    H244256   2.502   1.486   0.625 -0.0675  2.3993  0.1553
 7589TIP3   OH244257   0.731   1.071  12.209 -0.2120 -0.0597 -0.1692
 7589TIP3    H144258   0.722   1.071  12.114  1.3325  0.0664 -0.3398
 7589TIP3    H244259   0.778   0.990  12.229 -2.3392 -1.1720  0.7314
 7590TIP3   OH244260   3.722   2.262  11.588 -0.5028  0.8506  0.1033
 7590TIP3    H144261   3.707   2.198  11.658  3.3535  0.0880  0.4706
 7590TIP3    H244262   3.691   2.217  11.508  2.7977 -2.0990  0.2135
 7591TIP3   OH244263   0.651   4.243   6.321 -0.5179 -0.5445  0.2309
 7591TIP3    H144264   0.640   4.182   6.394  0.7670  0.7808  1.6183
 7591TIP3    H244265   0.615   4.326   6.354 -1.2190 -0.2608 -1.1894
 7592TIP3   OH244266   5.492   5.017   4.520  0.4011  0.5210  0.3387
 7592TIP3    H144267   5.451   4.970   4.448 -0.2510  0.0170  1.0122
 7592TIP3    H244268   5.418   5.047   4.574  0.8720 -1.2137  2.0840
 7593TIP3   OH244269   6.405   0.903  14.988  0.4936  0.0668 -0.2538
 7593TIP3    H144270   6.476   0.846  14.955 -1.6698 -2.8447 -0.3171
 7593TIP3    H244271   6.369   0.943  14.909  1.6446  1.1168 -0.2778
 7594TIP3   OH244272   2.158   6.756  16.898 -0.3755  0.1912  0.1590
 7594TIP3    H144273   2.086   6.818  16.908 -1.0707 -0.4184 -0.8991
 7594TIP3    H244274   2.172   6.721  16.986 -0.7486  0.9892  0.5426
 7595TIP3   OH244275   5.658   1.514  13.653  0.1012  0.5910 -0.0641
 7595TIP3    H144276   5.605   1.435  13.640  1.5590 -0.1937 -1.7809
 7595TIP3    H244277   5.612   1.582  13.604 -1.2042  0.8610  1.4839
 7596TIP3   OH244278   5.029   5.911  11.123 -0.2130  0.5897  0.6084
 7596TIP3    H144279   5.080   5.844  11.079 -1.7803 -1.4705  1.7536
 7596TIP3    H244280   4.943   5.907  11.081 -0.9769  0.3176  2.1221
 7597TIP3   OH244281   6.286   1.527  15.062 -0.9804  0.1489  0.1862
 7597TIP3    H144282   6.277   1.442  15.106  1.9657  0.7653  2.3347
 7597TIP3    H244283   6.358   1.570  15.109 -0.2914  2.5913 -2.8035
 7598TIP3   OH244284   4.907   6.148  12.903 -0.1269  0.0236  0.4217
 7598TIP3    H144285   4.916   6.205  12.979  0.7959  0.7016 -0.1626
 7598TIP3    H244286   4.815   6.157  12.878  0.3143  2.6852 -0.6610
 7599TIP3   OH244287   5.229   4.682  11.392  0.5072 -0.5437  0.5013
 7599TIP3    H144288   5.148   4.631  11.394 -0.1810  0.5432  0.7783
 7599TIP3    H244289   5.269   4.661  11.308  0.3545 -1.7019  0.6995
 7600TIP3   OH244290   5.513   2.575  12.958  0.1989  0.6875 -0.0040
 7600TIP3    H144291   5.533   2.660  12.920  0.4604  0.2764 -0.8033
 7600TIP3    H244292   5.510   2.515  12.884  1.8236 -0.3467  0.7044
 7601TIP3   OH244293   1.220   0.812   2.250 -0.2143  0.1934 -0.9489
 7601TIP3    H144294   1.264   0.891   2.218  0.6976  0.5731  1.0849
 7601TIP3    H244295   1.138   0.843   2.287  0.1373  0.2108 -0.1635
 7602TIP3   OH244296   1.424   4.718   0.544 -0.7949 -0.0514 -0.3083
 7602TIP3    H144297   1.425   4.797   0.489 -1.2958  0.4347  0.3613
 7602TIP3    H244298   1.447   4.647   0.485 -2.1775  0.3295 -1.3481
 7603TIP3   OH244299   5.165   1.875  11.459  0.4069 -0.0113  0.1941
 7603TIP3    H144300   5.184   1.967  11.477  0.4404 -0.2802  1.6506
 7603TIP3    H244301   5.081   1.876  11.414  0.1174  0.7098  0.7290
 7604TIP3   OH244302   5.448   5.462  12.787  0.3538 -0.1235  0.2558
 7604TIP3    H144303   5.494   5.484  12.706 -0.7764  0.1326 -0.3307
 7604TIP3    H244304   5.441   5.366  12.786 -0.6069 -0.0534 -0.4923
 7605TIP3   OH244305   4.753   5.632  16.195 -0.2266 -0.3082 -0.4106
 7605TIP3    H144306   4.728   5.693  16.125 -0.7932  1.8353  1.5257
 7605TIP3    H244307   4.846   5.648  16.208 -0.3847  0.2142  0.1272
 7606TIP3   OH244308   0.390   1.521   1.653 -0.0945 -0.1318  0.4918
 7606TIP3    H144309   0.466   1.463   1.658  0.9353  1.2334  2.2938
 7606TIP3    H244310   0.315   1.465   1.673  0.8070 -0.9590  1.7006
 7607TIP3   OH244311   1.065   4.578   5.055  0.1549 -0.2076 -0.6265
 7607TIP3    H144312   1.069   4.654   5.113  1.4444  0.1493 -1.1336
 7607TIP3    H244313   0.981   4.587   5.009 -0.5542 -0.1158  0.6479
 7608TIP3   OH244314   3.131   6.297   1.045 -0.1339  0.0561 -0.4123
 7608TIP3    H144315   3.139   6.392   1.055  1.5923 -0.2456  2.0139
 7608TIP3    H244316   3.208   6.272   0.994  0.9754 -0.2586  1.3271
 7609TIP3   OH244317   0.664   2.998   2.429 -0.7175 -0.2972 -1.0632
 7609TIP3    H144318   0.694   3.072   2.483 -1.6970  0.9922 -2.2095
 7609TIP3    H244319   0.716   2.924   2.459  1.0022  1.0628 -0.5370
 7610TIP3   OH244320   4.255   2.530   1.668 -0.1508 -0.4794  0.6593
 7610TIP3    H144321   4.348   2.509   1.669  0.0875  0.4328 -0.5894
 7610TIP3    H244322   4.213   2.456   1.712  1.0022 -1.7087 -0.2394
 7611TIP3   OH244323   3.057   1.536   1.212 -0.3122  0.1031  0.2492
 7611TIP3    H144324   2.966   1.524   1.239  0.3196  1.4545  3.3676
 7611TIP3    H244325   3.101   1.456   1.240 -0.4298 -0.4032 -0.9507
 7612TIP3   OH244326   2.767   1.060  16.046  0.2888 -0.7266 -0.3009
 7612TIP3    H144327   2.784   0.966  16.034  0.0943 -0.8138  0.0771
 7612TIP3    H244328   2.681   1.073  16.006  0.7333 -0.5118 -1.2114
 7613TIP3   OH244329   2.102   4.968  13.367  0.2101  0.1394 -0.1309
 7613TIP3    H144330   2.016   4.934  13.392  1.2607 -0.6343  2.8413
 7613TIP3    H244331   2.129   4.915  13.293 -0.6122 -1.6796  0.8180
 7614TIP3   OH244332   6.527   2.922   2.139 -0.1755 -0.1665 -0.0601
 7614TIP3    H144333   6.545   2.998   2.194  0.4701 -0.2739 -0.1194
 7614TIP3    H244334   6.451   2.881   2.179 -0.9178  0.8549 -0.3784
 7615TIP3   OH244335   4.081   6.168   2.870  0.0174  0.0096  0.0473
 7615TIP3    H144336   4.081   6.086   2.822  0.1699  0.5961 -0.9712
 7615TIP3    H244337   4.135   6.227   2.818 -1.7743  1.3821 -0.3552
 7616TIP3   OH244338   3.418   6.021  15.879  0.2112  0.0364 -0.1372
 7616TIP3    H144339   3.479   6.036  15.952  0.1462 -0.0595 -0.0636
 7616TIP3    H244340   3.416   6.105  15.833 -1.2096  0.6956  1.0651
 7617TIP3   OH244341   1.981   2.896   1.618 -0.2104 -0.4266  0.6875
 7617TIP3    H144342   2.060   2.943   1.646  0.0792 -0.8693  0.6251
 7617TIP3    H244343   1.930   2.962   1.571  0.3622 -0.2606  0.2768
 7618TIP3   OH244344   5.491   2.641   0.545 -0.4793 -0.3663  0.3915
 7618TIP3    H144345   5.413   2.608   0.500 -1.0991  0.4120  0.8686
 7618TIP3    H244346   5.532   2.564   0.583 -1.2093 -0.7480  0.4210
 7619TIP3   OH244347   1.546   3.331   3.289  0.0565 -0.1380 -0.1471
 7619TIP3    H144348   1.491   3.391   3.238  0.7401  0.0513 -0.6745
 7619TIP3    H244349   1.571   3.263   3.227  0.6701 -0.0528 -0.0033
 7620TIP3   OH244350   5.815   6.624  11.201 -0.4381  0.5197 -0.2363
 7620TIP3    H144351   5.884   6.684  11.170 -0.5322  0.6970 -0.1002
 7620TIP3    H244352   5.734   6.662  11.168 -0.7504  1.7491  1.7844
 7621TIP3   OH244353   1.571   1.189   4.744 -0.3937 -0.9120  0.0696
 7621TIP3    H144354   1.513   1.138   4.687 -2.7425 -0.1130  1.6149
 7621TIP3    H244355   1.573   1.276   4.704 -1.1080 -0.6681  0.5435
 7622TIP3   OH244356   3.882   4.628  12.607 -0.2130 -0.4511  0.3922
 7622TIP3    H144357   3.965   4.649  12.649  0.2542  0.4254 -0.8932
 7622TIP3    H244358   3.881   4.681  12.527 -2.0752 -0.3256  0.4415
 7623TIP3   OH244359   2.962   4.840   5.241 -0.5702 -0.3691  0.0247
 7623TIP3    H144360   3.023   4.779   5.284 -0.8854  0.4398  1.7347
 7623TIP3    H244361   2.924   4.790   5.169  1.1470 -1.3063 -0.2825
 7624TIP3   OH244362   2.445   3.586  14.704 -0.3426 -0.2185  0.0727
 7624TIP3    H144363   2.358   3.573  14.667 -1.0139 -0.9987  1.8263
 7624TIP3    H244364   2.444   3.538  14.787  0.8941  1.8272  1.3804
 7625TIP3   OH244365   3.032   4.081   5.259 -0.5891 -0.3339  0.0452
 7625TIP3    H144366   2.997   4.075   5.347 -0.4851  0.6166  0.1659
 7625TIP3    H244367   3.031   3.991   5.226  1.1480 -1.0229  1.6946
 7626TIP3   OH244368   1.829   4.824  14.187  0.3557  0.3921 -0.1392
 7626TIP3    H144369   1.817   4.843  14.093 -0.3670 -0.9313 -0.3284
 7626TIP3    H244370   1.755   4.867  14.230  0.0551  0.0307 -0.2970
 7627TIP3   OH244371   3.623   2.755   3.144 -0.3672  0.3076  0.4012
 7627TIP3    H144372   3.683   2.756   3.069 -0.5641  1.1153  0.2469
 7627TIP3    H244373   3.536   2.767   3.106 -0.4917  0.4843  0.7369
 7628TIP3   OH244374   2.717   4.096  13.883  0.0956 -0.1015  0.0935
 7628TIP3    H144375   2.703   4.004  13.863  1.4117  0.0096 -1.5605
 7628TIP3    H244376   2.634   4.125  13.921 -1.0562 -1.4788 -1.2374
 7629TIP3   OH244377   4.317   5.487   0.816  0.0194 -0.2057 -0.1895
 7629TIP3    H144378   4.338   5.505   0.907 -0.5531  0.8203 -0.2400
 7629TIP3    H244379   4.296   5.394   0.814  2.1463 -0.7334  0.2927
 7630TIP3   OH244380   4.847   4.020  13.504  0.1087 -0.6601 -0.2316
 7630TIP3    H144381   4.891   3.939  13.478  0.5285 -0.1742 -1.1042
 7630TIP3    H244382   4.872   4.083  13.436  0.4575  0.4222  0.8560
 7631TIP3   OH244383   5.263   6.718  14.524  0.4371 -0.4267  0.4976
 7631TIP3    H144384   5.329   6.657  14.491 -0.8096 -1.8288  0.4832
 7631TIP3    H244385   5.190   6.662  14.551 -1.2426  1.1410 -0.5989
 7632TIP3   OH244386   0.888   0.022   3.278 -0.1022 -0.2651 -0.0715
 7632TIP3    H144387   0.801   0.059   3.261 -0.1814  0.0095  0.9127
 7632TIP3    H244388   0.880  -0.070   3.253 -0.6948 -0.2562  0.0740
 7633TIP3   OH244389   4.942   1.759   0.092  0.1209  0.0896 -0.8348
 7633TIP3    H144390   4.887   1.702   0.146  1.6537 -0.5770  0.0948
 7633TIP3    H244391   4.939   1.720   0.004  1.6651 -1.9100 -0.0845
 7634TIP3   OH244392   3.348   6.824  12.272  0.3110  0.2762 -0.2325
 7634TIP3    H144393   3.376   6.755  12.332  2.1435  0.7874 -0.4681
 7634TIP3    H244394   3.410   6.895  12.285 -1.5050  1.9178 -0.0323
 7635TIP3   OH244395   2.370   3.529   2.859 -0.1791  0.2403 -0.3437
 7635TIP3    H144396   2.460   3.535   2.893  0.1246 -0.2539 -1.0462
 7635TIP3    H244397   2.350   3.618   2.830 -0.0915  0.4566  0.2414
 7636TIP3   OH244398   1.122   4.267  11.129  0.0702  0.3953  0.0465
 7636TIP3    H144399   1.215   4.249  11.123  0.5914  1.9932  2.1780
 7636TIP3    H244400   1.081   4.182  11.142  1.6633 -0.0767  2.7081
 7637TIP3   OH244401   3.936   1.871   6.333 -0.5619  0.4623  0.1618
 7637TIP3    H144402   3.913   1.960   6.360 -0.7140  0.1652  1.0166
 7637TIP3    H244403   3.902   1.864   6.243  0.8853  1.8120 -0.5489
 7638TIP3   OH244404   0.744   2.696   0.586 -0.1718 -0.0417  0.0181
 7638TIP3    H144405   0.685   2.636   0.632  0.0260 -1.1977 -1.1871
 7638TIP3    H244406   0.767   2.761   0.652 -3.7938  1.2555  0.2270
 7639TIP3   OH244407   6.125   6.528   3.562 -0.7012 -0.0617  0.5327
 7639TIP3    H144408   6.122   6.508   3.656 -0.8381  1.9668  1.0188
 7639TIP3    H244409   6.205   6.579   3.551 -1.2284  0.6263 -0.2324
 7640TIP3   OH244410   2.297   4.965  14.918  0.0743 -0.2755  0.1062
 7640TIP3    H144411   2.382   4.976  14.874 -0.6668  0.2574 -1.2347
 7640TIP3    H244412   2.247   5.042  14.892 -1.0087 -0.8443  0.4729
 7641TIP3   OH244413   3.753   4.551  14.260  0.1278 -0.0673  0.1443
 7641TIP3    H144414   3.729   4.624  14.317  0.4107 -1.8484  2.7135
 7641TIP3    H244415   3.679   4.542  14.200 -0.4386  1.5824  0.5415
 7642TIP3   OH244416   5.276   5.050  15.998 -0.3947  0.4622 -0.0638
 7642TIP3    H144417   5.367   5.078  16.005 -0.5505  0.9037  0.1963
 7642TIP3    H244418   5.281   4.963  15.957  0.0849  0.8965 -0.9563
 7643TIP3   OH244419   3.162   2.993   0.969  0.2488 -0.3122 -0.2886
 7643TIP3    H144420   3.258   2.989   0.967  0.3675  1.4576  0.4052
 7643TIP3    H244421   3.140   2.983   1.062 -0.2049 -0.2090 -0.3832
 7644TIP3   OH244422   5.819   0.271   6.330 -0.2460 -0.3465 -0.6421
 7644TIP3    H144423   5.848   0.224   6.408  1.2329 -0.6859 -1.3654
 7644TIP3    H244424   5.821   0.363   6.355  2.4914 -0.2571 -0.9213
 7645TIP3   OH244425   1.691   4.504   3.186 -0.8452  0.1362 -0.3239
 7645TIP3    H144426   1.733   4.422   3.163 -0.6665  0.2463 -0.3893
 7645TIP3    H244427   1.760   4.557   3.226 -1.8458 -1.2804  3.6506
 7646TIP3   OH244428   3.166   4.527   3.445 -0.7165 -0.4592  0.3446
 7646TIP3    H144429   3.125   4.568   3.521 -0.1407  1.4130 -0.2980
 7646TIP3    H244430   3.259   4.530   3.464 -0.4240  1.5391 -1.0626
 7647TIP3   OH244431   4.753   0.863  12.158 -0.0061  0.2403 -0.2860
 7647TIP3    H144432   4.756   0.928  12.088 -0.0829 -0.4455 -0.9512
 7647TIP3    H244433   4.689   0.798  12.127 -2.2530  1.3379  1.6967
 7648TIP3   OH244434   2.617   5.648   2.047  0.5861  0.0011 -0.2635
 7648TIP3    H144435   2.609   5.709   1.973 -1.5658  1.1127  0.8011
 7648TIP3    H244436   2.536   5.598   2.045 -0.3039  1.1642  2.2280
 7649TIP3   OH244437   2.658   6.128  12.163  0.5284  0.2083 -0.6729
 7649TIP3    H144438   2.619   6.040  12.156  1.0079 -0.1190  0.4971
 7649TIP3    H244439   2.598   6.185  12.115 -0.6822 -0.5013 -0.0583
 7650TIP3   OH244440   5.586   5.030  13.718  0.0999  0.0786  0.0786
 7650TIP3    H144441   5.550   4.948  13.685  1.2944 -0.4559  0.0358
 7650TIP3    H244442   5.520   5.096  13.696 -1.7594 -1.1087  1.7417
 7651TIP3   OH244443   0.396   2.641  12.605  0.0064 -0.2243  0.9667
 7651TIP3    H144444   0.444   2.593  12.537  0.7439  0.6544  0.8417
 7651TIP3    H244445   0.313   2.595  12.613  0.8212 -1.7570  1.1235
 7652TIP3   OH244446   5.680   4.698   0.198 -0.5162  0.1652  0.0139
 7652TIP3    H144447   5.739   4.771   0.181  0.2622 -0.8110 -1.7491
 7652TIP3    H244448   5.626   4.691   0.119 -0.0684 -1.6052 -0.1788
 7653TIP3   OH244449   4.735   2.154  16.348  0.4422 -0.0596  0.4081
 7653TIP3    H144450   4.828   2.148  16.324  0.4431  1.8427 -0.2338
 7653TIP3    H244451   4.736   2.177  16.441  0.5799 -1.1034  0.6719
 7654TIP3   OH244452   0.952   0.615   5.887  0.1686 -0.6275 -0.1967
 7654TIP3    H144453   0.971   0.522   5.881  2.4221 -0.2630  0.6587
 7654TIP3    H244454   1.013   0.656   5.826  0.4297  0.4302  0.7601
 7655TIP3   OH244455   0.008   1.160  12.875 -0.9532 -0.2174  0.0027
 7655TIP3    H144456  -0.057   1.090  12.877  2.0694 -3.2693  0.5945
 7655TIP3    H244457   0.051   1.150  12.790 -0.5277  0.9989  0.0561
 7656TIP3   OH244458   6.447   3.631   4.719  0.4264 -0.1888  0.3388
 7656TIP3    H144459   6.359   3.634   4.682  0.2850 -0.1239  0.6700
 7656TIP3    H244460   6.446   3.555   4.777  0.0656  0.7264  1.5996
 7657TIP3   OH244461   3.860   3.333   1.172  0.1325  0.1207  0.0526
 7657TIP3    H144462   3.943   3.285   1.165 -0.0474 -0.0157 -1.6239
 7657TIP3    H244463   3.851   3.376   1.087 -0.5842  1.7145  0.9100
 7658TIP3   OH244464   2.783   0.288  12.855  0.2638  0.0612 -0.2253
 7658TIP3    H144465   2.816   0.366  12.810 -1.6686  1.1323  0.1150
 7658TIP3    H244466   2.693   0.278  12.824  0.2730 -1.6832  0.2150
 7659TIP3   OH244467   0.891   0.777   5.521 -0.3686  0.2098 -0.2067
 7659TIP3    H144468   0.976   0.788   5.478 -0.0369 -2.0971 -0.2714
 7659TIP3    H244469   0.909   0.784   5.614  0.0788 -1.0612 -0.1783
 7660TIP3   OH244470   4.621   5.986   4.836  0.2138  0.1376 -0.0976
 7660TIP3    H144471   4.531   5.954   4.838  0.5150 -0.7332  0.0158
 7660TIP3    H244472   4.613   6.080   4.851 -0.5886 -0.1107  1.2584
 7661TIP3   OH244473   1.299   1.998   2.982  0.1882  0.0231 -0.0424
 7661TIP3    H144474   1.360   2.065   2.949 -0.5621  0.1112 -1.3208
 7661TIP3    H244475   1.309   1.925   2.921 -2.3073  0.7493 -1.4447
 7662TIP3   OH244476   4.278   2.975  13.561 -0.4075  0.3629  0.0861
 7662TIP3    H144477   4.248   2.975  13.471  1.4803 -2.3016 -0.6614
 7662TIP3    H244478   4.198   2.965  13.613 -1.3176 -4.8713 -1.6979
 7663TIP3   OH244479   5.809   3.393  10.866 -0.0700 -0.0461 -0.1498
 7663TIP3    H144480   5.714   3.386  10.855 -0.2023  1.6880 -0.4767
 7663TIP3    H244481   5.841   3.303  10.861 -1.5318 -0.5248 -1.5844
 7664TIP3   OH244482   3.917   5.097  15.865  0.0439 -0.8599 -0.0011
 7664TIP3    H144483   3.896   5.035  15.795  0.6607 -2.7235  1.3792
 7664TIP3    H244484   3.832   5.122  15.902 -0.1869 -1.3189 -0.2149
 7665TIP3   OH244485   1.691   1.428  12.409 -0.8868 -0.4999 -0.2442
 7665TIP3    H144486   1.755   1.359  12.427 -0.2936 -0.8460 -3.1619
 7665TIP3    H244487   1.611   1.399  12.454  0.3253 -1.2302  1.5429
 7666TIP3   OH244488   2.355   5.834  15.204 -0.0463  0.6187 -0.6462
 7666TIP3    H144489   2.418   5.789  15.147 -0.6228 -0.8604 -0.1780
 7666TIP3    H244490   2.341   5.773  15.277 -0.6500  1.7068  0.1738
 7667TIP3   OH244491   1.368   0.635  17.001  0.3422  0.0427 -0.3943
 7667TIP3    H144492   1.441   0.694  17.017  1.9001 -1.1036 -2.7287
 7667TIP3    H244493   1.364   0.580  17.079  1.5069  0.6014  0.0812
 7668TIP3   OH244494   0.686   4.169   4.515 -0.6457 -0.5998 -0.3032
 7668TIP3    H144495   0.617   4.116   4.555 -1.8271  1.2958  0.2946
 7668TIP3    H244496   0.743   4.193   4.589 -0.5600 -0.4015 -0.4336
 7669TIP3   OH244497   0.295   4.808  12.933  0.3272  0.0423 -0.3910
 7669TIP3    H144498   0.207   4.780  12.907  0.0718  2.1493 -2.0353
 7669TIP3    H244499   0.281   4.878  12.995  0.9379 -1.4656  1.5503
 7670TIP3   OH244500   4.382   1.778   2.017 -0.2918  0.1627 -0.3756
 7670TIP3    H144501   4.308   1.812   1.967 -0.7203  2.4513  1.6353
 7670TIP3    H244502   4.458   1.791   1.960 -1.0962  0.1706 -1.4713
 7671TIP3   OH244503   3.238   1.716  14.726 -0.1664  0.4427  0.6857
 7671TIP3    H144504   3.290   1.795  14.709  0.3305 -0.1204 -0.4965
 7671TIP3    H244505   3.275   1.650  14.667 -0.3816 -0.7639  1.8748
 7672TIP3   OH244506   0.878   1.330   1.050  0.2529 -0.2633  0.1493
 7672TIP3    H144507   0.854   1.411   1.095 -0.2986 -1.9414  3.0804
 7672TIP3    H244508   0.972   1.338   1.034  0.7034  0.0612  2.5634
 7673TIP3   OH244509   6.052   4.302   2.662  0.4611 -0.4662  0.6848
 7673TIP3    H144510   5.999   4.226   2.686  2.8261 -1.9463  1.5599
 7673TIP3    H244511   6.085   4.281   2.574  0.2998  0.0654  0.4891
 7674TIP3   OH244512   3.459   2.440  15.954 -0.3309  0.2301 -0.2215
 7674TIP3    H144513   3.427   2.389  15.880  0.3901 -1.4042  0.5287
 7674TIP3    H244514   3.509   2.377  16.006  0.4422  1.6821  0.8696
 7675TIP3   OH244515   0.804   2.324   2.833 -0.2585  0.0315  0.0489
 7675TIP3    H144516   0.878   2.263   2.834  0.6895  1.0412 -1.9077
 7675TIP3    H244517   0.729   2.272   2.863  1.2222 -0.9972  2.1631
 7676TIP3   OH244518   1.962   0.958  10.600 -0.5716  0.2524  0.3263
 7676TIP3    H144519   2.049   0.934  10.631 -0.3768 -0.5421 -0.7874
 7676TIP3    H244520   1.910   0.878  10.609 -0.9841  0.5099  0.2776
 7677TIP3   OH244521   6.420   4.609   2.927 -0.9570 -0.2120  0.1943
 7677TIP3    H144522   6.398   4.688   2.878 -0.1177  0.2881  0.6129
 7677TIP3    H244523   6.342   4.553   2.918 -1.3819  0.4676 -0.4729
 7678TIP3   OH244524   0.663   2.908   3.429 -0.2402 -0.0443 -0.3515
 7678TIP3    H144525   0.599   2.906   3.358 -2.0147 -0.3310  1.2073
 7678TIP3    H244526   0.690   2.817   3.440  1.2529  0.1886 -1.6477
 7679TIP3   OH244527   3.767   2.596  14.292  0.0135 -0.0161  0.0836
 7679TIP3    H144528   3.802   2.663  14.350  0.2291 -0.1601  0.1198
 7679TIP3    H244529   3.674   2.592  14.314  0.0822 -0.0261  0.3740
 7680TIP3   OH244530   4.277   5.382   3.302 -0.6570 -0.0826 -0.1060
 7680TIP3    H144531   4.303   5.471   3.325 -0.3106 -0.0931 -0.4401
 7680TIP3    H244532   4.299   5.329   3.379  0.4821 -0.1176 -0.4317
 7681TIP3   OH244533   3.397   0.952   4.254  0.0198 -0.7466 -0.2221
 7681TIP3    H144534   3.372   0.873   4.207  0.5640 -0.5749 -0.8230
 7681TIP3    H244535   3.458   0.921   4.321 -2.1769 -1.2533  1.6697
 7682TIP3   OH244536   1.692   2.698   4.468  0.3715  0.0011  0.0639
 7682TIP3    H144537   1.752   2.771   4.453 -0.0240  0.2723 -0.2107
 7682TIP3    H244538   1.659   2.712   4.556 -1.5906  1.5500 -0.8620
 7683TIP3   OH244539   4.796   0.312  16.764  0.2300 -0.6573  0.2085
 7683TIP3    H144540   4.749   0.257  16.825  0.4257 -0.1139  0.8630
 7683TIP3    H244541   4.848   0.251  16.711  2.9367 -1.0339  2.9780
 7684TIP3   OH244542   0.245   3.265  14.397 -0.1907  0.5956 -0.2839
 7684TIP3    H144543   0.292   3.208  14.336  1.2708 -0.2340  1.5169
 7684TIP3    H244544   0.202   3.205  14.457 -1.3049  1.3944 -0.2688
 7685TIP3   OH244545   4.143   0.456   0.132 -0.0923  0.1414 -0.0856
 7685TIP3    H144546   4.074   0.452   0.065 -1.8675  0.7406  1.5917
 7685TIP3    H244547   4.109   0.518   0.197  1.5629 -0.3903  1.3681
 7686TIP3   OH244548   3.308   5.212   2.061 -0.2805 -0.3154  0.2957
 7686TIP3    H144549   3.336   5.146   1.998 -1.5976 -1.4061  0.7760
 7686TIP3    H244550   3.316   5.295   2.015  0.5905 -0.8937 -0.6368
 7687TIP3   OH244551   2.165   3.685   1.535 -0.7968  0.4784  0.3182
 7687TIP3    H144552   2.202   3.770   1.559  0.8325  0.1780 -0.9222
 7687TIP3    H244553   2.166   3.634   1.616 -1.6157  1.5407  1.0318
 7688TIP3   OH244554   2.284   0.496  11.800 -0.4352  0.4695 -0.8292
 7688TIP3    H144555   2.304   0.587  11.823 -0.6821  0.2370  0.3968
 7688TIP3    H244556   2.346   0.445  11.853  0.2096 -0.0610 -2.0717
 7689TIP3   OH244557   1.664   1.523  10.775  0.0723 -0.1070 -0.5342
 7689TIP3    H144558   1.684   1.511  10.682 -0.5795  1.2200 -0.8672
 7689TIP3    H244559   1.737   1.575  10.809 -0.5981  0.9908 -0.7421
 7690TIP3   OH244560   6.011   4.056   3.302  0.0174  0.6093  0.1317
 7690TIP3    H144561   6.033   4.141   3.265  1.6337 -0.2069 -0.9251
 7690TIP3    H244562   5.976   4.006   3.229  0.7745 -0.1894  0.2896
 7691TIP3   OH244563   6.077   3.406   5.203 -0.0000  0.1770 -0.1240
 7691TIP3    H144564   6.038   3.347   5.267  1.5336 -0.9987 -0.2366
 7691TIP3    H244565   6.034   3.383   5.120 -0.4884  0.2689  0.1017
 7692TIP3   OH244566   4.969   6.668  15.209 -0.4498 -0.0679 -0.0486
 7692TIP3    H144567   4.915   6.710  15.277 -1.7024 -1.6313 -0.0085
 7692TIP3    H244568   5.050   6.719  15.208 -0.3698  0.0295  2.6339
 7693TIP3   OH244569   5.068   2.443  13.198 -0.2673  0.1549  0.0469
 7693TIP3    H144570   5.089   2.382  13.268 -0.2743  0.0051 -0.0811
 7693TIP3    H244571   5.138   2.509  13.202 -0.4692  0.3501  0.4299
 7694TIP3   OH244572   3.777   3.435  11.896 -0.0972  0.4547 -0.2133
 7694TIP3    H144573   3.729   3.504  11.944 -0.8931  0.0087 -0.3419
 7694TIP3    H244574   3.863   3.473  11.880 -0.1394  0.9927  0.7124
 7695TIP3   OH244575   2.563   3.961  16.202 -0.0261 -0.0719 -0.3606
 7695TIP3    H144576   2.491   4.025  16.209 -1.9869 -2.2282  0.5798
 7695TIP3    H244577   2.624   4.001  16.140 -1.9755  1.9491 -1.1336
 7696TIP3   OH244578   5.837   4.664   1.785 -0.0977  0.0499 -0.1780
 7696TIP3    H144579   5.848   4.569   1.775 -2.8658 -0.1444 -3.0305
 7696TIP3    H244580   5.792   4.674   1.868  1.2306 -0.9774  0.7133
 7697TIP3   OH244581   5.005   5.176  13.336 -0.1135  0.3379 -0.2938
 7697TIP3    H144582   4.958   5.112  13.281 -1.5515 -0.0368  1.2866
 7697TIP3    H244583   5.063   5.123  13.390 -0.5650  0.4440  0.3087
 7698TIP3   OH244584   0.898   1.110  16.174 -0.7189  0.1415 -0.1302
 7698TIP3    H144585   0.891   1.101  16.080 -0.5672  1.6101 -0.3131
 7698TIP3    H244586   0.989   1.086  16.194 -1.0020 -1.0473 -0.2207
 7699TIP3   OH244587   4.814   3.859  14.333 -0.5434  0.4429  0.1790
 7699TIP3    H144588   4.851   3.871  14.246 -1.8726 -1.2066 -0.6668
 7699TIP3    H244589   4.778   3.770  14.332 -1.3165  0.6833  2.1322
 7700TIP3   OH244590   3.623   4.689   0.004 -0.2930 -0.7383 -0.5039
 7700TIP3    H144591   3.640   4.598  -0.020 -3.3240 -1.9149  1.2736
 7700TIP3    H244592   3.653   4.740  -0.071 -0.8449 -3.3930 -2.6668
 7701TIP3   OH244593   3.393   1.376  15.312  0.7360  0.7532 -0.3475
 7701TIP3    H144594   3.389   1.329  15.229 -1.3777 -0.6240  0.4463
 7701TIP3    H244595   3.312   1.352  15.357  2.9822 -0.8356  3.3291
 7702TIP3   OH244596   0.066   5.297   3.612 -0.4115 -0.4657 -0.0431
 7702TIP3    H144597   0.009   5.361   3.568 -0.1478  0.1609  0.4943
 7702TIP3    H244598   0.079   5.334   3.700 -0.4784 -1.4022  0.3792
 7703TIP3   OH244599   3.249   4.573  16.080 -0.2140 -0.1934  0.3392
 7703TIP3    H144600   3.264   4.521  16.159 -0.2519 -0.2554  0.3050
 7703TIP3    H244601   3.317   4.544  16.018  1.3680  1.5114  1.1523
 7704TIP3   OH244602   2.458   3.330  14.503 -0.5308 -0.4483 -0.9018
 7704TIP3    H144603   2.414   3.245  14.506 -0.4212 -0.4889  0.3175
 7704TIP3    H244604   2.536   3.318  14.558 -1.9516  1.1818  1.7010
 7705TIP3   OH244605   4.268   5.886  16.285  0.2022 -0.7790 -0.1852
 7705TIP3    H144606   4.299   5.970  16.317  1.1261 -0.6169 -1.4412
 7705TIP3    H244607   4.250   5.835  16.364  1.1706  0.0395  0.5848
 7706TIP3   OH244608   1.755   2.467  16.224  0.5620  0.2217 -0.3085
 7706TIP3    H144609   1.738   2.453  16.317  0.8326 -1.1796 -0.4450
 7706TIP3    H244610   1.782   2.381  16.191  1.0848  0.8321 -1.5539
 7707TIP3   OH244611   5.382   6.853   1.693 -0.1531 -0.2551 -0.4687
 7707TIP3    H144612   5.328   6.930   1.711 -0.7429 -0.6444 -0.5499
 7707TIP3    H244613   5.359   6.827   1.604 -0.3365 -0.8277 -0.2591
 7708TIP3   OH244614   0.766   5.676  14.401  0.1961  0.2711  0.4265
 7708TIP3    H144615   0.799   5.635  14.321 -1.1108 -0.4767  0.2446
 7708TIP3    H244616   0.812   5.631  14.472  1.1519  0.7451  0.1298
 7709TIP3   OH244617   4.960   5.159   5.387 -0.2233 -0.3154 -0.8098
 7709TIP3    H144618   4.952   5.065   5.374 -0.6783 -0.6697  1.4615
 7709TIP3    H244619   5.024   5.168   5.458 -1.7301  0.9072  0.4796
 7710TIP3   OH244620   2.134   5.702  14.637 -0.1529 -0.4346 -0.4201
 7710TIP3    H144621   2.146   5.651  14.557 -0.7116  0.0247 -0.8094
 7710TIP3    H244622   2.127   5.793  14.606 -0.9930 -0.3156  0.0886
 7711TIP3   OH244623   6.056   2.194  15.228  0.0333  0.0678  0.5184
 7711TIP3    H144624   6.084   2.278  15.264  0.6678  0.4236 -0.7548
 7711TIP3    H244625   5.971   2.177  15.269  0.3137  0.8868  1.4680
 7712TIP3   OH244626   2.671   5.364   0.657 -0.5358  0.3052  0.0142
 7712TIP3    H144627   2.700   5.442   0.610  1.5287  0.3525  1.2231
 7712TIP3    H244628   2.600   5.328   0.603 -1.5923  2.9830 -0.5747
 7713TIP3   OH244629   4.213   4.977  13.606 -0.3463  0.0761  0.8166
 7713TIP3    H144630   4.150   4.956  13.674 -0.8020 -1.9905 -0.1601
 7713TIP3    H244631   4.262   5.052  13.641 -0.9392 -0.5333  3.1316
 7714TIP3   OH244632   1.905   3.437  13.465  0.3024  0.2318 -0.6298
 7714TIP3    H144633   1.971   3.400  13.407 -0.2498  0.3757 -1.3552
 7714TIP3    H244634   1.956   3.478  13.536  0.9966  0.4250 -1.2322
 7715TIP3   OH244635   4.016   5.723  14.845  0.1404  0.1126 -0.3691
 7715TIP3    H144636   3.980   5.769  14.769 -0.9577  0.3591  0.2872
 7715TIP3    H244637   4.105   5.758  14.853 -0.5476  1.9300 -0.0780
 7716TIP3   OH244638   2.201   5.860   4.173 -0.1490  0.4556  0.0525
 7716TIP3    H144639   2.229   5.852   4.082  1.0462  0.7473  0.3809
 7716TIP3    H244640   2.111   5.890   4.168  0.2527  1.5207 -1.0279
 7717TIP3   OH244641   3.592   2.099  16.813 -0.0990  0.3962 -0.8266
 7717TIP3    H144642   3.520   2.079  16.872  0.9877  1.1897  0.8378
 7717TIP3    H244643   3.559   2.168  16.756 -1.3451 -0.7658 -1.5798
 7718TIP3   OH244644   5.214   4.790  14.235  0.0182 -0.2948  0.5968
 7718TIP3    H144645   5.150   4.743  14.288 -1.3221 -1.2104 -1.6661
 7718TIP3    H244646   5.258   4.721  14.185  1.5983  0.4872  0.8496
 7719TIP3   OH244647   3.571   4.700   2.637  0.0853 -1.0738 -0.4395
 7719TIP3    H144648   3.521   4.726   2.714  2.0901  0.8048  0.3563
 7719TIP3    H244649   3.608   4.615   2.659  1.9609  0.1328  1.4785
 7720TIP3   OH244650   0.714   0.798   1.698  0.0205 -0.2251  0.3561
 7720TIP3    H144651   0.705   0.739   1.773  0.1480 -0.7630 -0.0419
 7720TIP3    H244652   0.782   0.860   1.725  0.8194 -1.0528  0.2927
 7721TIP3   OH244653   3.932   0.997  16.336  0.3480  0.4683  0.0494
 7721TIP3    H144654   3.939   1.055  16.260 -0.5732 -0.6440 -0.9405
 7721TIP3    H244655   3.927   1.055  16.411  0.6562  1.6214 -0.7967
 7722TIP3   OH244656   1.736   2.413  15.471 -0.4623  0.1080 -1.4685
 7722TIP3    H144657   1.655   2.363  15.469 -0.2209 -0.2851 -1.7984
 7722TIP3    H244658   1.719   2.485  15.530 -1.3820  0.5821 -2.2801
 7723TIP3   OH244659   4.080   5.599  16.759  0.7692 -0.2935  0.0296
 7723TIP3    H144660   4.003   5.547  16.780  0.3209  1.0545  1.9622
 7723TIP3    H244661   4.136   5.540  16.708 -0.4986 -2.0507  0.6032
 7724TIP3   OH244662   1.352   1.039   2.170 -0.2639  0.0248 -0.2206
 7724TIP3    H144663   1.428   1.036   2.112 -1.1541 -1.5286 -1.3582
 7724TIP3    H244664   1.319   1.128   2.162  1.4665  0.7774  0.3910
 7725TIP3   OH244665   0.487   3.916  10.723 -0.1446 -0.0467 -0.9956
 7725TIP3    H144666   0.581   3.915  10.735 -0.4360 -1.2514  1.7985
 7725TIP3    H244667   0.470   3.845  10.660  0.6590 -1.3143  0.1743
 7726TIP3   OH244668   5.861   2.892  11.440 -0.4213 -0.1068 -0.2759
 7726TIP3    H144669   5.777   2.849  11.452 -0.9288  0.9714  0.0996
 7726TIP3    H244670   5.840   2.983  11.420  0.6503  0.2324  0.0255
 7727TIP3   OH244671   5.675   0.021  15.834 -0.1966  0.2850  0.3276
 7727TIP3    H144672   5.622  -0.052  15.867  2.8131 -2.0672  0.3699
 7727TIP3    H244673   5.655   0.024  15.740 -0.3767 -0.5831  0.3263
 7728TIP3   OH244674   3.197   4.029  12.765 -0.1847  0.1846  0.5801
 7728TIP3    H144675   3.262   3.984  12.712  1.3013  0.5093  2.0415
 7728TIP3    H244676   3.247   4.071  12.835 -1.9903  0.1881  1.9637
 7729TIP3   OH244677   2.212   3.323   5.808 -0.1292 -0.2437  0.1835
 7729TIP3    H144678   2.226   3.418   5.811  1.4054 -0.3870 -1.0994
 7729TIP3    H244679   2.120   3.314   5.783 -0.8929  0.8444  2.3067
 7730TIP3   OH244680   2.880   1.913   3.355  0.0410 -0.4199 -0.1174
 7730TIP3    H144681   2.855   1.928   3.264 -0.1819 -1.0888 -0.1639
 7730TIP3    H244682   2.947   1.845   3.351  0.8318  0.3146  0.1306
 7731TIP3   OH244683   3.627   2.211   1.483  0.2057 -0.4410  0.7087
 7731TIP3    H144684   3.600   2.254   1.565  2.5976 -1.3857  2.0927
 7731TIP3    H244685   3.702   2.262   1.453 -1.0327  0.2978 -1.3664
 7732TIP3   OH244686   1.174   1.091  13.078  0.1023  0.0019 -0.4144
 7732TIP3    H144687   1.097   1.117  13.129 -1.4050  0.6893 -2.8568
 7732TIP3    H244688   1.249   1.122  13.129 -1.3757  3.0024  0.1510
 7733TIP3   OH244689   4.183   0.584  12.482  0.2202 -0.1169  0.2542
 7733TIP3    H144690   4.117   0.653  12.482 -1.2943 -1.5032  1.2540
 7733TIP3    H244691   4.137   0.506  12.514  1.9558 -1.5197 -0.4845
 7734TIP3   OH244692   2.998   6.340   1.634 -0.2747 -0.0312 -0.8810
 7734TIP3    H144693   2.924   6.397   1.652 -0.9495 -1.3797  0.8703
 7734TIP3    H244694   2.959   6.257   1.606  0.1248 -2.3324  4.3063
 7735TIP3   OH244695   4.296   5.458   4.072  0.1963  0.2023  0.1178
 7735TIP3    H144696   4.355   5.410   4.130  2.5500 -2.3912 -3.9610
 7735TIP3    H244697   4.214   5.410   4.077  1.4768 -2.3604 -1.2523
 7736TIP3   OH244698   5.936   2.150   1.332 -0.0229  0.4017  0.1109
 7736TIP3    H144699   5.945   2.057   1.352  0.5319  0.7936  1.8972
 7736TIP3    H244700   5.842   2.164   1.326 -0.0938 -0.4054 -0.9650
 7737TIP3   OH244701   2.288   3.250   0.267 -0.7066 -0.3192  0.1320
 7737TIP3    H144702   2.293   3.154   0.264 -1.2319 -0.3283 -0.6057
 7737TIP3    H244703   2.218   3.273   0.207 -0.8671  0.5155  0.6149
 7738TIP3   OH244704   4.945   3.239   3.216  0.0906 -0.4584  0.1960
 7738TIP3    H144705   4.962   3.173   3.283  0.0511  0.3843  1.0609
 7738TIP3    H244706   4.941   3.322   3.264  2.7937  0.5816 -1.1571
 7739TIP3   OH244707   0.312   6.096  16.782 -0.7657  0.6378  0.2749
 7739TIP3    H144708   0.344   6.029  16.721 -1.5265 -0.5994  1.1803
 7739TIP3    H244709   0.298   6.174  16.728 -2.3439 -0.6890 -1.3441
 7740TIP3   OH244710   1.545   3.715  14.000 -0.3560  0.3856 -0.6071
 7740TIP3    H144711   1.546   3.749  13.910 -0.8264  1.0232 -0.3791
 7740TIP3    H244712   1.473   3.652  14.000 -0.2087  0.2178 -0.7399
 7741TIP3   OH244713   0.825   1.343  12.223 -0.3977 -0.0310  0.1359
 7741TIP3    H144714   0.768   1.266  12.212  1.9078 -1.9344  0.6289
 7741TIP3    H244715   0.889   1.335  12.152  0.8968  0.4629  1.2039
 7742TIP3   OH244716   3.228   5.703  12.032 -0.4204  0.0939 -0.1462
 7742TIP3    H144717   3.146   5.660  12.009 -0.6167  0.8397 -0.8870
 7742TIP3    H244718   3.273   5.716  11.949 -0.1518  0.8665  0.1053
 7743TIP3   OH244719   5.660   5.937   4.215  0.3160 -0.6686 -0.2190
 7743TIP3    H144720   5.722   5.883   4.166  1.4638 -2.4721  2.9622
 7743TIP3    H244721   5.625   5.878   4.282 -0.9718  1.6899  1.3128
 7744TIP3   OH244722   6.002   4.881   4.920  0.2200  0.1583 -0.4228
 7744TIP3    H144723   5.914   4.905   4.892  0.7299  0.4241 -1.9452
 7744TIP3    H244724   6.049   4.964   4.925 -0.1575  0.2816  2.6655
 7745TIP3   OH244725   1.048   0.324  17.048  0.3096 -0.6215 -0.1054
 7745TIP3    H144726   1.103   0.245  17.051  1.1471 -0.0441 -0.0356
 7745TIP3    H244727   1.022   0.338  17.139  2.0861  0.4945  0.2723
 7746TIP3   OH244728   0.797   6.713   2.652  0.4099 -0.1057 -0.2813
 7746TIP3    H144729   0.765   6.717   2.742 -0.7510 -1.0147 -0.6297
 7746TIP3    H244730   0.760   6.632   2.617 -0.3334  0.9199 -2.0048
 7747TIP3   OH244731   5.111   5.489  12.132 -0.0597 -0.1351  0.1137
 7747TIP3    H144732   5.102   5.444  12.048 -0.4414 -1.2971  0.7583
 7747TIP3    H244733   5.024   5.488  12.170 -0.0516  1.0661  0.2103
 7748TIP3   OH244734   0.211   4.124  11.069 -0.0421 -0.0708  0.2481
 7748TIP3    H144735   0.163   4.205  11.051  0.9845  0.0810 -2.3062
 7748TIP3    H244736   0.292   4.153  11.109 -0.3340  0.0276  0.7712
 7749TIP3   OH244737   1.637   1.439   4.568 -0.0131  0.6717 -0.3830
 7749TIP3    H144738   1.682   1.493   4.633  1.3308  0.9280 -1.4822
 7749TIP3    H244739   1.553   1.483   4.553  0.1592  1.2502  0.3112
 7750TIP3   OH244740   1.262   6.834  15.865  0.0333  0.1464  0.5685
 7750TIP3    H144741   1.244   6.747  15.900 -0.7199  0.4614  0.9838
 7750TIP3    H244742   1.280   6.887  15.943  1.3067  0.1945  0.2732
 7751TIP3   OH244743   2.717   1.026  11.427 -0.8701  0.1900 -0.3502
 7751TIP3    H144744   2.661   1.097  11.395  0.5306  0.7092 -1.8261
 7751TIP3    H244745   2.772   1.067  11.493 -0.6362  0.2781 -0.5969
 7752TIP3   OH244746   6.653   5.623  12.700 -0.0065  0.2765  0.6097
 7752TIP3    H144747   6.561   5.622  12.726 -1.1360 -0.5382 -2.8285
 7752TIP3    H244748   6.681   5.532  12.708 -1.2497 -0.6130 -3.2054
 7753TIP3   OH244749   2.193   3.152  12.819  0.3131 -0.2515  0.4134
 7753TIP3    H144750   2.259   3.083  12.827 -0.1524 -0.5868  1.5997
 7753TIP3    H244751   2.241   3.227  12.786  1.3026 -0.4910  1.2542
 7754TIP3   OH244752   3.283   3.307   5.185 -0.2940 -0.3820 -0.1988
 7754TIP3    H144753   3.248   3.319   5.273 -2.9691 -0.9909 -1.0844
 7754TIP3    H244754   3.361   3.252   5.197  1.0203  1.7786  1.9731
 7755TIP3   OH244755   1.077   0.170  15.765 -0.0268  0.0084  0.0420
 7755TIP3    H144756   1.009   0.115  15.803 -0.9382  0.1783 -1.2898
 7755TIP3    H244757   1.157   0.145  15.811  0.1837 -4.3625 -2.2162
 7756TIP3   OH244758   0.300   2.977  13.806  0.1912 -0.2832 -0.4008
 7756TIP3    H144759   0.356   2.962  13.882 -0.4343  0.7580  0.2954
 7756TIP3    H244760   0.263   2.891  13.785  0.9811 -0.7200 -0.0309
 7757TIP3   OH244761   5.438   3.099  13.174  0.1270 -0.2272  0.1957
 7757TIP3    H144762   5.524   3.128  13.144 -0.1832 -1.5772 -2.2130
 7757TIP3    H244763   5.455   3.017  13.220  0.1280 -0.5701 -0.4088
 7758TIP3   OH244764   6.326   4.920   1.279  0.0019  0.0667  0.1456
 7758TIP3    H144765   6.318   4.906   1.184  0.8505  2.4475 -0.3577
 7758TIP3    H244766   6.326   4.832   1.316 -0.0307 -0.9565 -2.0835
 7759TIP3   OH244767   6.696   0.372  12.524 -0.4757  0.0152 -0.1839
 7759TIP3    H144768   6.738   0.452  12.556 -1.5870  1.0411 -1.1783
 7759TIP3    H244769   6.609   0.373  12.565 -0.1742 -1.2028  0.5387
 7760TIP3   OH244770   0.126   1.637  15.050 -0.5762  0.4315  0.3089
 7760TIP3    H144771   0.134   1.720  15.097  1.1681  1.4897 -1.6566
 7760TIP3    H244772   0.154   1.658  14.961 -0.4664 -2.2032 -0.3572
 7761TIP3   OH244773   5.035   4.103   3.082 -0.2230  0.4696 -0.1759
 7761TIP3    H144774   4.984   4.181   3.061 -1.1025  0.8034  2.7548
 7761TIP3    H244775   5.127   4.131   3.073 -0.4978  0.9559 -1.8632
 7762TIP3   OH244776   0.782   2.507   4.168 -0.3413  0.1158 -0.3686
 7762TIP3    H144777   0.869   2.545   4.153  1.2374 -2.3692  1.5783
 7762TIP3    H244778   0.764   2.525   4.260 -2.8940  2.2403 -1.1529
 7763TIP3   OH244779   2.687   4.003  15.844  0.4160 -0.2252  0.0858
 7763TIP3    H144780   2.706   4.037  15.757 -2.3908 -0.1846 -0.5929
 7763TIP3    H244781   2.596   3.973  15.839 -0.0138  0.2703  3.1532
 7764TIP3   OH244782   6.359   2.696  11.423  0.4865  0.3541 -0.5176
 7764TIP3    H144783   6.407   2.620  11.456  0.9926 -0.5737 -3.1741
 7764TIP3    H244784   6.371   2.693  11.328 -1.3744  2.4868 -0.9065
 7765TIP3   OH244785   2.112   3.421   5.375  0.1972  0.1389 -0.0472
 7765TIP3    H144786   2.101   3.329   5.401 -1.2309 -0.4560 -2.3795
 7765TIP3    H244787   2.070   3.471   5.445 -1.0604 -1.1624  0.1868
 7766TIP3   OH244788   4.723   1.874  13.132 -0.1641 -0.2515  0.1202
 7766TIP3    H144789   4.662   1.864  13.205  0.3776  0.6361  0.7283
 7766TIP3    H244790   4.802   1.912  13.173  0.3264 -0.2118 -0.8447
 7767TIP3   OH244791   5.235   2.961  11.917 -0.0683 -0.3407  0.3825
 7767TIP3    H144792   5.195   3.043  11.887  1.4784  0.3740  0.1823
 7767TIP3    H244793   5.328   2.971  11.896  0.6129 -1.0159  2.7891
 7768TIP3   OH244794   6.503   3.567  11.262  0.1316  0.1889  0.4052
 7768TIP3    H144795   6.520   3.483  11.304 -1.3650 -0.5954 -0.4915
 7768TIP3    H244796   6.502   3.631  11.333  1.4688 -0.4881  1.0742
 7769TIP3   OH244797   5.916   0.739   0.174 -1.0112 -0.6605  0.1559
 7769TIP3    H144798   5.984   0.682   0.137 -2.0880 -0.9303 -1.5049
 7769TIP3    H244799   5.834   0.700   0.145 -1.8824 -0.0875  1.7619
 7770TIP3   OH244800   5.276   3.393   5.880  0.5477  0.2238  0.1634
 7770TIP3    H144801   5.311   3.400   5.791  0.1103 -0.3558 -0.0573
 7770TIP3    H244802   5.339   3.442   5.934  0.9650  0.3432 -0.4185
 7771TIP3   OH244803   3.908   6.638   1.584  0.7880 -0.2160 -0.2352
 7771TIP3    H144804   3.904   6.648   1.489 -0.7188  0.5669 -0.1274
 7771TIP3    H244805   3.817   6.625   1.610  1.3416 -1.9134  0.9706
 7772TIP3   OH244806   5.259   5.107  16.908 -0.2842  0.1674 -0.4251
 7772TIP3    H144807   5.251   5.161  16.986 -0.0904  1.6229 -1.3703
 7772TIP3    H244808   5.337   5.140  16.863  0.8275 -2.0169 -0.2287
 7773TIP3   OH244809   3.546   1.608  12.362  0.3145  0.1161  0.1647
 7773TIP3    H144810   3.522   1.621  12.454 -0.9704  1.2560 -0.3034
 7773TIP3    H244811   3.577   1.694  12.333  0.6717 -0.2256 -0.4941
 7774TIP3   OH244812   4.913   2.575  14.111 -0.3098  0.0879  0.5182
 7774TIP3    H144813   4.947   2.500  14.062 -0.1324  0.7896 -0.4775
 7774TIP3    H244814   4.929   2.650  14.053 -1.0990  0.7987  1.1970
 7775TIP3   OH244815   3.821   3.368  12.556 -0.5457 -0.2857 -0.0674
 7775TIP3    H144816   3.819   3.282  12.599  1.4366  0.5161  1.8145
 7775TIP3    H244817   3.770   3.425  12.614 -0.7558  0.1048 -0.6219
 7776TIP3   OH244818   0.956   1.779  14.088 -0.2708  0.0208 -1.0275
 7776TIP3    H144819   0.934   1.762  14.180  2.1582  0.8895 -0.1984
 7776TIP3    H244820   0.894   1.846  14.060 -1.5872 -0.8637 -0.3108
 7777TIP3   OH244821   0.640   1.565   4.630 -0.4681  0.5252  0.3719
 7777TIP3    H144822   0.697   1.641   4.624  0.8519 -0.4215  0.5092
 7777TIP3    H244823   0.574   1.589   4.696  0.7331  1.0511  1.4122
 7778TIP3   OH244824   0.786   0.074  13.335  0.4405 -0.1105  0.0634
 7778TIP3    H144825   0.833   0.155  13.316 -0.4967  0.5848  0.6310
 7778TIP3    H244826   0.743   0.051  13.252  1.5638 -0.6340 -0.3987
 7779TIP3   OH244827   4.062   5.333   2.481 -0.6787 -0.1446  0.3035
 7779TIP3    H144828   4.145   5.336   2.435 -0.1359 -0.1178  1.2577
 7779TIP3    H244829   4.015   5.259   2.442 -1.0635  1.0436 -1.6057
 7780TIP3   OH244830   5.597   6.764  14.176  0.9428  0.0529 -0.3923
 7780TIP3    H144831   5.621   6.730  14.263  0.0799  1.5536  0.4634
 7780TIP3    H244832   5.511   6.726  14.159  1.6876 -1.3652 -1.2703
 7781TIP3   OH244833   4.407   2.593  11.271  0.4002  0.2576  0.5110
 7781TIP3    H144834   4.425   2.575  11.178 -1.4279  0.3513  0.0973
 7781TIP3    H244835   4.457   2.527  11.319  0.2097 -0.7414 -0.6144
 7782TIP3   OH244836   6.068   2.093  16.076  0.1328 -0.0634  0.3897
 7782TIP3    H144837   5.975   2.089  16.101  0.2038  0.9605  0.8322
 7782TIP3    H244838   6.069   2.151  16.000  0.4147 -0.0511  0.4045
 7783TIP3   OH244839   0.076   0.793   0.350 -0.0401  0.1292 -0.0330
 7783TIP3    H144840   0.106   0.874   0.391  0.4010 -0.3111  0.5427
 7783TIP3    H244841   0.023   0.821   0.276  0.7090  0.9385 -0.2798
 7784TIP3   OH244842   4.635   0.453  15.760 -0.2739 -0.4941 -0.4868
 7784TIP3    H144843   4.626   0.364  15.726 -0.6604  0.0706 -1.9171
 7784TIP3    H244844   4.707   0.491  15.710 -1.0839  0.4782 -0.9551
 7785TIP3   OH244845   2.468   5.562   1.191 -0.2822 -0.3303  0.3015
 7785TIP3    H144846   2.482   5.482   1.141 -0.5265  0.5672 -1.2628
 7785TIP3    H244847   2.554   5.604   1.193 -0.0389 -0.8317  1.5474
 7786TIP3   OH244848   1.294   6.194  10.951  0.0570  0.2850 -0.5565
 7786TIP3    H144849   1.269   6.214  11.041 -1.1102  1.0918 -1.0404
 7786TIP3    H244850   1.282   6.099  10.944 -1.9302  0.4764 -0.4400
 7787TIP3   OH244851   2.794   2.442  11.423 -0.0777  0.3409 -0.1140
 7787TIP3    H144852   2.773   2.452  11.516  0.4676  2.7739 -0.1708
 7787TIP3    H244853   2.716   2.473  11.378 -1.4190 -3.3465 -0.6206
 7788TIP3   OH244854   2.413   5.472   6.258 -0.2009  0.1445  0.2096
 7788TIP3    H144855   2.357   5.544   6.230  0.0678  0.3654  0.2349
 7788TIP3    H244856   2.500   5.496   6.227  0.0833  0.3449  1.1480
 7789TIP3   OH244857   4.897   3.198  15.046  0.2023  0.0324 -0.2723
 7789TIP3    H144858   4.835   3.131  15.017  1.2082 -1.2385  0.3847
 7789TIP3    H244859   4.953   3.153  15.110  1.2323  1.3757 -0.1756
 7790TIP3   OH244860   2.681   2.142   1.974 -0.0553 -0.4418 -0.8432
 7790TIP3    H144861   2.711   2.056   1.944  0.6066 -0.8690  0.8863
 7790TIP3    H244862   2.600   2.158   1.926 -1.8127 -3.4030  0.8826
 7791TIP3   OH244863   6.629   3.759   2.626  0.3155  0.4462 -0.5169
 7791TIP3    H144864   6.574   3.690   2.590 -0.8804  0.7706  0.6379
 7791TIP3    H244865   6.659   3.809   2.549 -1.8031  0.8620 -1.1192
 7792TIP3   OH244866   5.306   3.077   4.651  0.2784 -0.1987  0.0120
 7792TIP3    H144867   5.367   3.039   4.587 -0.7640 -0.2613 -0.9849
 7792TIP3    H244868   5.346   3.160   4.676  1.5917 -1.0072  0.6704
 7793TIP3   OH244869   6.689   6.355  12.962  0.4768 -0.3844  0.2366
 7793TIP3    H144870   6.733   6.437  12.941 -0.8641  0.5202  0.7722
 7793TIP3    H244871   6.608   6.382  13.005 -0.5706 -1.9712 -0.6344
 7794TIP3   OH244872   2.680   5.161  17.047  0.0274 -0.9240 -0.4114
 7794TIP3    H144873   2.585   5.165  17.059  0.1664 -0.5846  0.6776
 7794TIP3    H244874   2.703   5.249  17.015  0.2984  0.0058  2.0968
 7795TIP3   OH244875   3.493   1.431  16.591  0.3726  0.0279  0.2723
 7795TIP3    H144876   3.569   1.441  16.648  1.0793 -1.2664 -0.4130
 7795TIP3    H244877   3.526   1.451  16.503 -0.4275  0.8584  0.1482
 7796TIP3   OH244878   2.991   2.592  13.200  0.8174 -0.8074  0.6750
 7796TIP3    H144879   3.025   2.530  13.135  0.2690  0.1573 -0.5646
 7796TIP3    H244880   3.066   2.609  13.258  1.9245 -0.2165 -0.8571
 7797TIP3   OH244881   3.547   0.484  10.070 -0.2105 -0.3916  0.0616
 7797TIP3    H144882   3.452   0.488  10.075 -0.4402 -1.8700 -1.7612
 7797TIP3    H244883   3.578   0.549  10.133 -2.4148  0.4273  0.3721
 7798TIP3   OH244884   4.436   1.207   5.043 -0.4934  0.0831 -0.0918
 7798TIP3    H144885   4.501   1.277   5.054  0.1400 -0.4710 -0.2274
 7798TIP3    H244886   4.467   1.156   4.968 -0.9709 -0.3190 -0.0270
 7799TIP3   OH244887   3.055   0.959  16.606 -0.1877  0.1293 -0.4329
 7799TIP3    H144888   3.138   0.961  16.654 -0.5767 -0.0894  0.2659
 7799TIP3    H244889   2.992   1.002  16.665 -0.5816  0.2562 -0.9355
 7800TIP3   OH244890   2.160   1.149   4.128  0.3894 -0.2570  0.2779
 7800TIP3    H144891   2.069   1.162   4.155 -0.1892  0.7431 -1.9424
 7800TIP3    H244892   2.207   1.132   4.210 -1.7224 -0.4792  1.5145
 7801TIP3   OH244893   4.374   1.570  12.073 -0.4980 -0.1536  0.3044
 7801TIP3    H144894   4.411   1.554  11.986 -0.5850  0.2577  0.1896
 7801TIP3    H244895   4.449   1.562  12.132  0.1845  2.4073 -0.0942
 7802TIP3   OH244896   2.722   3.273  14.622 -0.2079 -0.1711 -0.1633
 7802TIP3    H144897   2.762   3.327  14.554  2.4239 -1.4261  0.2752
 7802TIP3    H244898   2.787   3.270  14.692 -1.4015 -1.7325  0.9528
 7803TIP3   OH244899   5.857   1.157   4.109  0.0061 -0.2952 -0.0002
 7803TIP3    H144900   5.864   1.228   4.172  0.1484  1.1340 -1.5440
 7803TIP3    H244901   5.922   1.178   4.042 -0.1598 -1.7228 -0.6465
 7804TIP3   OH244902   2.344   3.367  16.259 -0.5965 -0.1637  0.1723
 7804TIP3    H144903   2.401   3.361  16.335 -3.3896 -1.9448  2.3422
 7804TIP3    H244904   2.268   3.417  16.290 -1.0128  0.7390 -2.0897
 7805TIP3   OH244905   2.964   4.088   4.922 -0.2979  0.0879 -0.6982
 7805TIP3    H144906   2.952   4.131   4.837 -3.1278  0.9426  0.0336
 7805TIP3    H244907   2.970   4.159   4.985  0.0312 -0.5543  0.0143
 7806TIP3   OH244908   6.389   1.300  12.118 -0.0084 -0.0195  0.2604
 7806TIP3    H144909   6.471   1.308  12.069  0.1482  1.5630  0.7025
 7806TIP3    H244910   6.364   1.391  12.136  0.8508 -0.4612  4.6195
 7807TIP3   OH244911   1.948   3.327   2.547  0.8504  0.8084 -0.0093
 7807TIP3    H144912   1.971   3.267   2.617  0.0357  0.5942  0.0846
 7807TIP3    H244913   1.891   3.392   2.589  1.3429  1.3896 -0.2103
 7808TIP3   OH244914   4.620   4.843  15.610  0.1912  0.4188  0.9346
 7808TIP3    H144915   4.585   4.798  15.686  0.7968  0.9853  1.5657
 7808TIP3    H244916   4.552   4.907  15.586 -1.2454 -1.5754 -0.7403
 7809TIP3   OH244917   6.214   4.103  14.221  0.0780 -0.0448 -0.3848
 7809TIP3    H144918   6.154   4.033  14.247 -0.9025  0.1245 -2.0223
 7809TIP3    H244919   6.173   4.183  14.252 -0.1803  0.0087 -0.8529
 7810TIP3   OH244920   2.247   3.956  12.554 -0.7371  0.4157  0.2600
 7810TIP3    H144921   2.281   3.872  12.585  0.1938  0.8919  0.5728
 7810TIP3    H244922   2.169   3.972  12.608  0.4583  0.8893  1.9366
 7811TIP3   OH244923   5.968   3.264   5.405 -0.0197 -0.1314  0.0063
 7811TIP3    H144924   5.927   3.336   5.454 -0.6303 -1.1911  1.1200
 7811TIP3    H244925   5.907   3.191   5.414  1.0534 -1.0936 -0.2330
 7812TIP3   OH244926   0.871   6.267   4.348  0.0434  0.5007  0.2323
 7812TIP3    H144927   0.885   6.210   4.424  2.5733  0.2225 -0.3473
 7812TIP3    H244928   0.856   6.354   4.384  1.4124  0.4072  1.0888
 7813TIP3   OH244929   1.918   3.530  12.637  0.3138  0.1011  0.1516
 7813TIP3    H144930   1.844   3.474  12.660  0.1609  0.2455  0.0068
 7813TIP3    H244931   1.907   3.608  12.691 -0.2282  0.5859 -0.6510
 7814TIP3   OH244932   5.696   1.527  12.941  0.2227  0.6305  0.7754
 7814TIP3    H144933   5.765   1.589  12.917  0.0773  0.7111  0.5582
 7814TIP3    H244934   5.619   1.558  12.893  0.3667 -0.2434 -0.0344
 7815TIP3   OH244935   2.273   6.495   3.254  0.0900 -0.2630  0.4724
 7815TIP3    H144936   2.209   6.477   3.186  0.5193  0.7146 -0.2249
 7815TIP3    H244937   2.259   6.427   3.319 -0.5572 -1.0294 -0.4352
 7816TIP3   OH244938   5.095   5.984  14.957 -0.1269  0.6898  0.6885
 7816TIP3    H144939   5.113   5.898  14.921  0.0073  1.3195 -0.8391
 7816TIP3    H244940   5.005   6.004  14.928  0.5699  1.8949 -0.8300
 7817TIP3   OH244941   4.117   6.818   1.119 -0.4601  0.2818  0.0710
 7817TIP3    H144942   4.129   6.816   1.024  0.0556  2.5086  0.0299
 7817TIP3    H244943   4.201   6.787   1.154 -0.0866  0.9429 -0.2180
 7818TIP3   OH244944   1.135   6.289   0.001 -0.5481 -0.2827 -0.2985
 7818TIP3    H144945   1.092   6.373   0.017 -1.7665 -1.2640  2.1491
 7818TIP3    H244946   1.188   6.275   0.079  0.7006 -1.1995 -1.2737
 7819TIP3   OH244947   3.468   1.074  16.409  0.3747  0.8628 -0.4663
 7819TIP3    H144948   3.425   0.989  16.394 -0.9536  1.0870  1.6891
 7819TIP3    H244949   3.508   1.095  16.325 -2.4915 -0.0894 -2.1949
 7820TIP3   OH244950   0.675   5.478   1.706 -0.4218  0.2062  0.4327
 7820TIP3    H144951   0.653   5.509   1.618  1.1580  0.5924  0.1333
 7820TIP3    H244952   0.721   5.395   1.692  0.6502  0.7183  0.8102
 7821TIP3   OH244953   3.644   6.035  15.024  0.2868 -0.0135  0.0133
 7821TIP3    H144954   3.689   5.954  15.001  0.1187  0.1878 -1.0802
 7821TIP3    H244955   3.639   6.034  15.119  1.9847 -0.3774  0.1242
 7822TIP3   OH244956   1.133   5.036  11.527 -0.2351 -0.4129  0.2383
 7822TIP3    H144957   1.161   5.026  11.437  0.7997 -1.0441  0.6154
 7822TIP3    H244958   1.159   4.955  11.570 -1.2236 -0.3614  0.9835
 7823TIP3   OH244959   2.477   4.576   2.757 -0.9504  0.7415 -0.8374
 7823TIP3    H144960   2.423   4.589   2.835  1.3028 -2.0745  1.3679
 7823TIP3    H244961   2.431   4.508   2.708 -0.1488 -0.6965  0.3580
 7824TIP3   OH244962   4.269   3.768   5.422  0.4789 -0.5284 -0.1390
 7824TIP3    H144963   4.278   3.715   5.343 -0.4435  1.0404 -1.3308
 7824TIP3    H244964   4.277   3.858   5.392  0.1731  0.1043  1.5738
 7825TIP3   OH244965   0.319   5.426   0.818 -0.4409 -0.3218  0.2577
 7825TIP3    H144966   0.248   5.486   0.794  0.6022  0.2321 -1.6666
 7825TIP3    H244967   0.279   5.365   0.880 -2.7057 -0.3160 -1.0979
 7826TIP3   OH244968   3.303   2.921  16.787  0.3671 -0.4393 -0.1732
 7826TIP3    H144969   3.381   2.971  16.812  1.4024 -1.3069 -1.5612
 7826TIP3    H244970   3.237   2.988  16.770  1.1880  0.3745 -0.2392
 7827TIP3   OH244971   6.462   0.500  15.634 -0.3152  0.2175  0.0294
 7827TIP3    H144972   6.371   0.474  15.649 -0.1789  0.7943  2.2152
 7827TIP3    H244973   6.513   0.444  15.692  0.4515  1.7146  0.8722
 7828TIP3   OH244974   1.115   3.198  13.673  0.3507  0.6179 -0.2713
 7828TIP3    H144975   1.070   3.115  13.659  0.8690  0.1818  0.5955
 7828TIP3    H244976   1.044   3.263  13.677 -0.1821  0.0053  0.5697
 7829TIP3   OH244977   4.657   6.156  13.678  0.7314  0.1031  0.1987
 7829TIP3    H144978   4.654   6.061  13.669 -1.3479  0.2526 -1.2045
 7829TIP3    H244979   4.592   6.176  13.745 -0.9233  0.6899 -1.5155
 7830TIP3   OH244980   1.130   4.500   3.513  0.2310  0.4595 -0.0705
 7830TIP3    H144981   1.112   4.587   3.476 -0.2902  0.5380  0.3493
 7830TIP3    H244982   1.063   4.489   3.581 -0.4816 -0.7984 -0.9437
 7831TIP3   OH244983   1.741   0.848   5.831  0.3764 -0.5707  0.3649
 7831TIP3    H144984   1.710   0.880   5.916  0.5827  0.7614 -0.0475
 7831TIP3    H244985   1.814   0.790   5.853 -0.4557 -1.3579  1.1598
 7832TIP3   OH244986   4.843   4.693   3.062 -0.3427  0.1799  0.2436
 7832TIP3    H144987   4.770   4.723   3.117 -1.0284 -1.3205  0.2135
 7832TIP3    H244988   4.900   4.645   3.122 -0.3990 -0.3097 -0.0856
 7833TIP3   OH244989   2.031   6.167  16.354 -0.1862  0.0966  0.4506
 7833TIP3    H144990   2.119   6.184  16.321  0.6088 -2.9302  0.6483
 7833TIP3    H244991   1.983   6.131  16.279 -1.2813  1.6180  0.3717
 7834TIP3   OH244992   3.820   0.033   0.389  0.3002 -0.3444  0.1027
 7834TIP3    H144993   3.777   0.084   0.457 -0.7082 -0.6233 -0.2992
 7834TIP3    H244994   3.859  -0.041   0.435 -0.6233 -0.6912  0.3581
 7835TIP3   OH244995   2.459   6.773   3.016  0.6428  0.0746  0.0511
 7835TIP3    H144996   2.395   6.723   2.965 -0.7648  0.8598  0.9806
 7835TIP3    H244997   2.410   6.848   3.050  2.0058  0.5917  0.9749
 7836TIP3   OH244998   5.313   4.922  15.648  0.2412  0.2375 -0.4909
 7836TIP3    H144999   5.408   4.929  15.642  0.2759  1.5579  0.7849
 7836TIP3    H245000   5.286   4.880  15.567  1.8860  0.1430 -1.0203
 7837TIP3   OH245001   3.375   6.688   1.785  0.0210  0.0879 -0.2818
 7837TIP3    H145002   3.440   6.679   1.715  0.8366  0.5162  0.4145
 7837TIP3    H245003   3.299   6.638   1.753  0.5535 -0.1200 -1.2578
 7838TIP3   OH245004   5.854   4.236  14.072 -0.1824  0.4871  0.2358
 7838TIP3    H145005   5.771   4.224  14.025  0.0632  1.4799 -0.4856
 7838TIP3    H245006   5.911   4.167  14.037 -0.6662 -0.1431  0.6667
 7839TIP3   OH245007   0.287   1.578  14.667  0.4153  0.0036 -0.2668
 7839TIP3    H145008   0.336   1.626  14.733 -0.2501 -0.0657  0.2901
 7839TIP3    H245009   0.328   1.603  14.584 -1.3756  3.5578 -0.3039
 7840TIP3   OH245010   5.761   3.805  13.584  0.6597  0.1293  0.2407
 7840TIP3    H145011   5.669   3.786  13.596  0.8200  1.2178  5.0384
 7840TIP3    H245012   5.794   3.733  13.530 -2.6422 -0.9791 -0.5171
 7841TIP3   OH245013   5.569   5.109   0.032  0.2723 -0.5154 -0.2505
 7841TIP3    H145014   5.502   5.041   0.036 -0.3261  0.0982  0.5548
 7841TIP3    H245015   5.629   5.088   0.104 -0.0680 -0.0484  0.1772
 7842TIP3   OH245016   5.497   3.795  12.963  0.0966 -0.2584 -0.2313
 7842TIP3    H145017   5.513   3.845  13.043  3.3524 -1.8031  0.2459
 7842TIP3    H245018   5.528   3.852  12.892 -0.8601  0.2800 -0.2430
 7843TIP3   OH245019   3.400   0.032   1.953  0.0745  0.1074  0.6740
 7843TIP3    H145020   3.364  -0.041   1.902  0.0674  0.4635  0.1708
 7843TIP3    H245021   3.494   0.027   1.938 -0.0160  0.8088 -0.1711
 7844TIP3   OH245022   0.157   3.585  11.839  0.1690 -0.1452 -0.3698
 7844TIP3    H145023   0.177   3.613  11.929 -1.3369 -0.3881  0.0761
 7844TIP3    H245024   0.242   3.574  11.797  0.9174 -0.4523  1.1692
 7845TIP3   OH245025   3.009   3.840   4.674  0.2712 -0.4845 -0.3956
 7845TIP3    H145026   2.943   3.770   4.671  0.2320 -0.4179 -2.1296
 7845TIP3    H245027   2.958   3.921   4.680  0.1055 -0.3962 -2.2737
 7846TIP3   OH245028   4.322   3.032   2.133 -0.4577 -0.5288 -0.0859
 7846TIP3    H145029   4.247   3.091   2.138 -0.4461 -0.4117 -1.0782
 7846TIP3    H245030   4.309   2.983   2.053  0.7241 -0.2226 -0.4871
 7847TIP3   OH245031   2.847   4.382   1.451  0.2733  0.3154 -0.5195
 7847TIP3    H145032   2.752   4.382   1.455  0.1786 -1.9989 -1.0594
 7847TIP3    H245033   2.866   4.391   1.357  0.7063  2.9085 -0.2449
 7848TIP3   OH245034   0.315   1.682  11.173  0.1608 -0.3568 -0.0487
 7848TIP3    H145035   0.228   1.711  11.202  0.4196  1.3116 -0.7873
 7848TIP3    H245036   0.299   1.644  11.086  0.4058  2.1681 -1.2949
 7849TIP3   OH245037   3.672   0.287   9.886  0.1818  0.3021 -0.0953
 7849TIP3    H145038   3.596   0.228   9.887  1.4493 -1.4071 -0.1631
 7849TIP3    H245039   3.639   0.369   9.923 -2.3731  0.5210 -2.5035
 7850TIP3   OH245040   0.885   6.090  13.210 -0.2546 -0.0086 -0.1079
 7850TIP3    H145041   0.842   6.133  13.136 -0.7987  0.3296  0.3990
 7850TIP3    H245042   0.815   6.076  13.274  0.1433 -0.6107  0.2082
 7851TIP3   OH245043   5.350   2.960  15.290 -0.1532  0.1430 -0.3112
 7851TIP3    H145044   5.337   3.009  15.372  0.6600  1.1759 -0.7859
 7851TIP3    H245045   5.305   2.877  15.305  0.2446  0.1836  1.3090
 7852TIP3   OH245046   0.643   6.166   5.519  0.6859  0.5440 -0.8325
 7852TIP3    H145047   0.600   6.119   5.448  0.6078  0.2114 -0.5723
 7852TIP3    H245048   0.607   6.254   5.515 -0.0414  0.2673 -0.6114
 7853TIP3   OH245049   1.703   1.957  16.547 -0.7346 -0.5933 -0.4941
 7853TIP3    H145050   1.730   1.887  16.488  0.6592  1.7027 -2.7950
 7853TIP3    H245051   1.645   2.012  16.494  0.3828  1.4369  0.2769
 7854TIP3   OH245052   6.853   1.005  11.641  0.0612 -0.0352  0.1348
 7854TIP3    H145053   6.771   0.957  11.628 -0.0997  0.4370 -0.6487
 7854TIP3    H245054   6.917   0.959  11.586  0.1564  0.0156  0.2030
 7855TIP3   OH245055   6.515   5.156   4.018 -0.2958 -0.3499 -0.1179
 7855TIP3    H145056   6.423   5.177   4.037 -1.1031 -0.6426 -3.1933
 7855TIP3    H245057   6.551   5.238   3.985  0.3049 -0.4791  0.2072
 7856TIP3   OH245058   4.268   5.582  13.386 -0.5165 -0.6462  0.1902
 7856TIP3    H145059   4.185   5.604  13.343 -0.5247 -0.6284  0.2154
 7856TIP3    H245060   4.275   5.487  13.377 -0.6124 -0.6648  0.3188
 7857TIP3   OH245061   3.997   3.657  16.626  0.4841 -0.5634  0.8319
 7857TIP3    H145062   4.084   3.677  16.659  0.4768 -1.6643  1.5621
 7857TIP3    H245063   3.949   3.740  16.633  1.0831 -0.2765  1.6676
 7858TIP3   OH245064   2.340   3.508   0.790  0.0464  0.2085  0.6106
 7858TIP3    H145065   2.337   3.452   0.713  0.0498  0.5923  0.3281
 7858TIP3    H245066   2.254   3.550   0.792  0.1743  0.4701  0.6137
 7859TIP3   OH245067   1.148   0.646   0.738 -0.2327  0.2382  0.2635
 7859TIP3    H145068   1.148   0.550   0.735 -0.2990  0.2403  0.2034
 7859TIP3    H245069   1.175   0.667   0.828  2.4923  0.1922 -0.4595
 7860TIP3   OH245070   1.244   1.597   2.484 -0.1525  0.2120 -0.3084
 7860TIP3    H145071   1.205   1.511   2.501  0.4788 -0.3321 -1.4478
 7860TIP3    H245072   1.338   1.582   2.494 -0.0909  0.9914  0.3373
 7861TIP3   OH245073   1.535   0.387  12.128  0.0098  0.0922  0.6268
 7861TIP3    H145074   1.613   0.368  12.076  0.2263  0.6671  0.7328
 7861TIP3    H245075   1.568   0.429  12.207 -0.4271  0.5978  0.5461
 7862TIP3   OH245076   1.967   6.584   3.751  0.0579  0.3006 -0.1544
 7862TIP3    H145077   1.967   6.650   3.820 -1.1984  0.9531 -0.7471
 7862TIP3    H245078   1.879   6.547   3.753  0.0299  0.2750 -1.3537
 7863TIP3   OH245079   6.627   3.627   3.085  0.0339  0.2457  0.2130
 7863TIP3    H145080   6.651   3.535   3.096  1.0834  0.4187 -0.4727
 7863TIP3    H245081   6.675   3.654   3.007  0.3477  1.5911  0.8561
 7864TIP3   OH245082   6.119   1.523   6.068 -0.0551 -0.0604  0.3275
 7864TIP3    H145083   6.044   1.487   6.020  1.4288 -2.5874 -0.2266
 7864TIP3    H245084   6.194   1.508   6.011  1.5918 -1.9407  2.8072
 7865TIP3   OH245085   4.907   1.984  12.806 -0.2087 -0.0978  0.1523
 7865TIP3    H145086   4.859   1.905  12.831  1.3554 -1.4782 -0.9267
 7865TIP3    H245087   4.844   2.035  12.755 -1.0273 -1.0617  0.1597
 7866TIP3   OH245088   3.623   1.357  17.038 -0.3891 -0.5395 -0.1359
 7866TIP3    H145089   3.559   1.289  17.061  1.3682 -1.6059  2.0103
 7866TIP3    H245090   3.657   1.386  17.123  3.5961 -1.6840 -1.1676
 7867TIP3   OH245091   6.514   5.979  12.003  0.0533  0.2848 -0.0842
 7867TIP3    H145092   6.604   5.954  11.982 -0.0311  0.1001 -0.2322
 7867TIP3    H245093   6.521   6.069  12.036  0.4109 -0.0666  0.8385
 7868TIP3   OH245094   6.045   2.832   6.227 -0.2613 -0.5495 -0.0435
 7868TIP3    H145095   5.978   2.781   6.182 -0.5478 -0.4874  0.3036
 7868TIP3    H245096   6.015   2.923   6.219  0.5497 -0.3612 -1.1752
 7869TIP3   OH245097   6.163   6.168   3.479  0.5926  0.8272  0.1713
 7869TIP3    H145098   6.184   6.169   3.572  1.5199  0.8247 -0.0323
 7869TIP3    H245099   6.247   6.163   3.434  0.4955  4.4755 -0.7729
 7870TIP3   OH245100   3.761   0.574   3.923  0.1299 -0.3128  0.1598
 7870TIP3    H145101   3.832   0.516   3.949  0.7821 -0.6168 -2.0675
 7870TIP3    H245102   3.805   0.646   3.877 -0.9613 -0.6503 -1.5061
 7871TIP3   OH245103   0.089   3.662   3.803 -0.5767 -0.1536  0.2619
 7871TIP3    H145104   0.112   3.577   3.841  0.8401 -0.2289 -0.6684
 7871TIP3    H245105   0.162   3.682   3.744 -0.9302  1.6747  0.3935
 7872TIP3   OH245106   4.961   1.793   5.197 -0.4450  0.6621  0.3205
 7872TIP3    H145107   4.994   1.733   5.130 -2.3630 -1.4762  1.1665
 7872TIP3    H245108   4.888   1.839   5.154 -0.4758  0.6619  0.3725
 7873TIP3   OH245109   5.509   4.231  10.617 -0.3891 -0.6584  0.4643
 7873TIP3    H145110   5.518   4.321  10.648 -0.6416  0.4936 -2.4880
 7873TIP3    H245111   5.415   4.212  10.625 -0.6305  0.0420 -0.6068
 7874TIP3   OH245112   2.101   6.574  13.399 -0.0745 -0.2074  0.1182
 7874TIP3    H145113   2.126   6.482  13.388 -0.2172 -0.3991  1.2668
 7874TIP3    H245114   2.151   6.603  13.476  1.2882  1.1914 -1.2168
 7875TIP3   OH245115   0.495   5.669  16.401 -0.1644  0.3433  0.4981
 7875TIP3    H145116   0.510   5.642  16.491 -0.4526 -1.1814  0.1095
 7875TIP3    H245117   0.581   5.670  16.361 -0.1596 -0.1222  0.4921
 7876TIP3   OH245118   0.476   0.096  11.068 -0.1451 -0.0311  0.1844
 7876TIP3    H145119   0.529   0.026  11.105  0.2780 -1.9289 -3.5655
 7876TIP3    H245120   0.391   0.054  11.051 -0.3991  0.8229 -0.7000
 7877TIP3   OH245121   5.915   1.788  15.634  0.9445  0.6280 -0.6656
 7877TIP3    H145122   5.981   1.798  15.703  1.1240  1.1359 -0.9108
 7877TIP3    H245123   5.966   1.778  15.553  0.7788 -1.2144 -0.6017
 7878TIP3   OH245124   3.955   2.083   5.523  0.6913  0.3563 -0.2602
 7878TIP3    H145125   3.909   2.033   5.590 -0.7261  0.9892 -0.7172
 7878TIP3    H245126   3.925   2.045   5.440 -0.8053  2.2171 -0.6330
 7879TIP3   OH245127   2.978   5.624   3.376  0.1701 -0.0071 -0.0973
 7879TIP3    H145128   2.901   5.640   3.321  0.5843  0.5075 -0.5357
 7879TIP3    H245129   2.954   5.547   3.429 -0.5531  0.0081 -0.3920
 7880TIP3   OH245130   0.407   5.162  12.114 -1.0016 -0.6102 -0.0849
 7880TIP3    H145131   0.371   5.230  12.171  1.9645  0.1460  1.0613
 7880TIP3    H245132   0.374   5.183  12.027 -1.0083  1.6799  0.4174
 7881TIP3   OH245133   1.520   4.906   2.840 -0.5548 -0.3174 -0.0937
 7881TIP3    H145134   1.521   4.956   2.758  0.7114 -3.0066 -1.8770
 7881TIP3    H245135   1.611   4.909   2.870 -0.9560  0.4038  1.1139
 7882TIP3   OH245136   0.201   2.324  12.553  0.1446 -0.1340  0.3265
 7882TIP3    H145137   0.155   2.391  12.604 -1.8549 -0.9622 -0.2603
 7882TIP3    H245138   0.170   2.337  12.464  1.4864 -0.4339 -0.1997
 7883TIP3   OH245139   2.065   5.136  13.055  0.1251  0.0508  0.3565
 7883TIP3    H145140   2.150   5.108  13.089  0.5470  1.7143  0.7388
 7883TIP3    H245141   2.060   5.229  13.076 -0.5505  0.6676 -2.2216
 7884TIP3   OH245142   5.995   2.886   4.506  0.4348  0.2346 -0.6699
 7884TIP3    H145143   5.971   2.842   4.587  0.7320 -0.0111 -0.7118
 7884TIP3    H245144   5.912   2.904   4.462  0.3383 -1.3048 -1.1890
 7885TIP3   OH245145   3.146   3.369   1.566  0.0379 -0.1162  0.4683
 7885TIP3    H145146   3.236   3.363   1.532  0.5604 -0.9054  1.9215
 7885TIP3    H245147   3.139   3.297   1.628 -1.6081 -0.0366  0.4111
 7886TIP3   OH245148   3.861   0.110  13.685  0.3143  0.0833  0.3034
 7886TIP3    H145149   3.766   0.111  13.677  0.3962  0.2953 -0.6893
 7886TIP3    H245150   3.877   0.061  13.766 -0.5974 -1.2222 -0.2665
 7887TIP3   OH245151   4.660   3.085  15.745  0.6011  0.0208 -0.6699
 7887TIP3    H145152   4.743   3.113  15.785  0.2029 -0.8138  0.7778
 7887TIP3    H245153   4.685   3.014  15.686  0.9295 -0.2390 -0.2274
 7888TIP3   OH245154   2.546   4.178  14.822  0.0838 -0.0821  0.3817
 7888TIP3    H145155   2.571   4.260  14.780  0.0462 -0.6289 -0.7238
 7888TIP3    H245156   2.630   4.136  14.842  0.1023 -0.5713 -0.6617
 7889TIP3   OH245157   4.001   0.486   5.678  0.4291 -0.0032 -0.1750
 7889TIP3    H145158   3.924   0.489   5.734  1.5100 -0.1088  1.3973
 7889TIP3    H245159   3.999   0.399   5.638  0.7284 -0.7425  1.3692
 7890TIP3   OH245160   1.926   3.573   1.464 -0.4203  0.1583  0.6762
 7890TIP3    H145161   1.854   3.610   1.515 -0.7351  0.3260  0.1209
 7890TIP3    H245162   2.005   3.595   1.514 -0.7042  0.5091  0.9761
 7891TIP3   OH245163   1.477   1.143  10.663  0.2262  0.8543  0.5225
 7891TIP3    H145164   1.479   1.215  10.600  1.0427  0.5524  0.1860
 7891TIP3    H245165   1.527   1.073  10.620  0.4487  0.5089  1.3368
 7892TIP3   OH245166   6.251   1.253  16.948  0.6044 -0.2813 -0.1639
 7892TIP3    H145167   6.200   1.180  16.984  2.5629 -0.8267  1.7093
 7892TIP3    H245168   6.255   1.236  16.854 -1.5622 -0.8533 -0.2188
 7893TIP3   OH245169   0.784   3.513   4.275 -0.5565 -0.2305 -0.2049
 7893TIP3    H145170   0.735   3.588   4.308 -1.8515 -2.0313  2.2390
 7893TIP3    H245171   0.717   3.453   4.243  0.4746 -0.3331 -2.3524
 7894TIP3   OH245172   4.151   0.548  15.369 -0.1127 -0.5899 -0.2304
 7894TIP3    H145173   4.142   0.454  15.350 -2.7488 -0.1482 -1.6691
 7894TIP3    H245174   4.226   0.575  15.316 -1.2781 -1.3506 -2.4294
 7895TIP3   OH245175   2.374   6.062   4.185  0.7111  0.1407 -0.6564
 7895TIP3    H145176   2.346   5.972   4.198  0.5270  0.1740 -0.8150
 7895TIP3    H245177   2.451   6.072   4.241  1.2021 -0.3529 -1.2265
 7896TIP3   OH245178   4.440   1.073   5.932 -0.1591  0.5841  0.3152
 7896TIP3    H145179   4.449   0.986   5.971  0.5382  1.1575  1.4940
 7896TIP3    H245180   4.431   1.057   5.838  1.0032 -0.7274  0.4008
 7897TIP3   OH245181   3.062   6.109  15.403  0.5558  0.1274  0.0223
 7897TIP3    H145182   2.998   6.127  15.334  1.2209  0.4363 -0.5193
 7897TIP3    H245183   3.010   6.070  15.474 -0.1379 -0.1693 -0.6334
 7898TIP3   OH245184   0.472   1.300   5.533 -0.1183  0.6894  0.1362
 7898TIP3    H145185   0.485   1.341   5.447 -1.4301 -0.6496 -0.7479
 7898TIP3    H245186   0.425   1.219   5.514 -0.3750  0.3201  2.1332
 7899TIP3   OH245187   1.886   6.117  16.119  0.9340  0.3988  0.0275
 7899TIP3    H145188   1.797   6.092  16.094  1.0846  1.4921 -1.7275
 7899TIP3    H245189   1.942   6.049  16.080  1.0037  0.8196 -0.6124
 7900TIP3   OH245190   4.328   0.048   1.524  0.3239 -0.4696 -0.5797
 7900TIP3    H145191   4.294  -0.041   1.531 -0.2349 -0.2278 -0.1563
 7900TIP3    H245192   4.317   0.071   1.432 -0.1078 -0.6088 -0.5641
 7901TIP3   OH245193   5.049   4.811   5.046  0.3197  0.3847  0.8826
 7901TIP3    H145194   5.112   4.880   5.063  1.2236 -0.1444 -0.1869
 7901TIP3    H245195   5.102   4.732   5.037 -0.2785  0.1975 -1.7150
 7902TIP3   OH245196   3.596   6.593  10.758 -0.0964 -0.4481 -0.2700
 7902TIP3    H145197   3.558   6.639  10.683  1.6072  0.4705 -0.6384
 7902TIP3    H245198   3.545   6.513  10.766 -2.7944  1.1604 -0.0210
 7903TIP3   OH245199   6.854   2.344   2.422 -0.1564 -0.3562 -0.3905
 7903TIP3    H145200   6.762   2.322   2.413  0.0251 -1.6081  0.6452
 7903TIP3    H245201   6.855   2.422   2.479 -0.6125  0.4413 -1.4296
 7904TIP3   OH245202   4.621   0.577   2.724  0.0944 -0.0476  0.5518
 7904TIP3    H145203   4.683   0.612   2.660  1.1795  0.5886  1.9185
 7904TIP3    H245204   4.586   0.498   2.682  0.5057  0.5488 -0.9658
 7905TIP3   OH245205   4.563   0.182  16.317 -0.0895  0.0425 -0.5906
 7905TIP3    H145206   4.643   0.196  16.370 -0.6601  0.0742  0.2881
 7905TIP3    H245207   4.518   0.266  16.320 -1.2616 -0.5840  0.8438
 7906TIP3   OH245208   1.986   6.391   0.334  0.0969 -0.1693 -0.1784
 7906TIP3    H145209   1.975   6.468   0.390 -2.8578 -0.7059  0.1973
 7906TIP3    H245210   1.993   6.425   0.245  0.7747  0.5746  0.1541
 7907TIP3   OH245211   1.457   3.787   0.436 -0.0459  0.0637  0.2406
 7907TIP3    H145212   1.367   3.799   0.468  0.1646 -0.5801  1.1263
 7907TIP3    H245213   1.494   3.721   0.495  1.0113  0.3301 -0.1114
 7908TIP3   OH245214   4.561   3.257  14.804  0.0587 -0.2674  0.1841
 7908TIP3    H145215   4.625   3.186  14.814  2.3742  1.8994  2.4215
 7908TIP3    H245216   4.497   3.224  14.741  0.7942 -4.4065  1.3393
 7909TIP3   OH245217   2.735   5.617   3.877  0.4383 -0.1916 -0.4977
 7909TIP3    H145218   2.706   5.600   3.787 -0.3954  3.3892 -1.0726
 7909TIP3    H245219   2.830   5.613   3.873  0.5163  1.6622 -2.0637
 7910TIP3   OH245220   3.744   1.820  16.999  0.2328  0.6534 -0.0914
 7910TIP3    H145221   3.740   1.779  16.913 -0.9511 -0.2610  0.3710
 7910TIP3    H245222   3.833   1.803  17.030 -0.2250 -1.6699  0.1038
 7911TIP3   OH245223   5.486   4.988  12.548  0.1447 -0.2738  0.0336
 7911TIP3    H145224   5.405   4.960  12.504  0.4757  0.3805 -1.0214
 7911TIP3    H245225   5.482   5.083  12.546  1.3317 -0.2257 -0.7710
 7912TIP3   OH245226   5.919   4.563   6.132  0.1749 -0.6043 -0.6651
 7912TIP3    H145227   6.003   4.600   6.105 -0.2778  0.6983 -0.3788
 7912TIP3    H245228   5.872   4.549   6.049  0.2488 -0.2672 -0.7654
 7913TIP3   OH245229   4.883   0.077  16.288 -0.2123 -0.4452 -0.0927
 7913TIP3    H145230   4.945   0.092  16.217  0.6604  0.4594  0.8116
 7913TIP3    H245231   4.801   0.054  16.244 -0.6281  3.2020 -1.6159
 7914TIP3   OH245232   5.588   6.201  16.705  0.0054 -0.4393 -0.4647
 7914TIP3    H145233   5.624   6.283  16.738  0.5957 -0.7914 -0.2298
 7914TIP3    H245234   5.589   6.211  16.610 -1.0851  0.3141 -0.4149
 7915TIP3   OH245235   6.579   3.298   1.783  0.1809 -0.4341  0.3227
 7915TIP3    H145236   6.660   3.246   1.787  0.7333  0.4314  0.8169
 7915TIP3    H245237   6.510   3.237   1.809  0.9057 -0.7568  1.5900
 7916TIP3   OH245238   6.670   3.584  16.072  0.1547 -0.0898  0.7009
 7916TIP3    H145239   6.612   3.552  16.003  2.1204 -0.6020 -0.8061
 7916TIP3    H245240   6.650   3.677  16.079 -0.2154 -0.0636 -0.4651
 7917TIP3   OH245241   4.478   0.298  14.061  0.0845  0.4160 -0.0443
 7917TIP3    H145242   4.418   0.225  14.077  0.2503  0.5514  1.3922
 7917TIP3    H245243   4.441   0.343  13.985 -2.1318  0.9589  1.2553
 7918TIP3   OH245244   2.610   6.259   4.415  0.2220 -0.5712 -0.2584
 7918TIP3    H145245   2.585   6.269   4.507 -3.1079 -1.8204 -0.8438
 7918TIP3    H245246   2.684   6.318   4.402  0.8427 -0.4127  3.2036
 7919TIP3   OH245247   6.824   0.995   3.849  0.2930  0.2252 -0.0410
 7919TIP3    H145248   6.852   1.023   3.762 -0.1896  0.0877 -0.2460
 7919TIP3    H245249   6.764   0.922   3.832 -1.3065  1.3897  0.2840
 7920TIP3   OH245250   5.357   1.308   0.873 -0.3277 -0.6805  0.0461
 7920TIP3    H145251   5.330   1.313   0.965 -0.9604 -0.6402 -0.1396
 7920TIP3    H245252   5.353   1.215   0.852  1.1510 -0.8568  0.4449
 7921TIP3   OH245253   2.507   3.454  11.980 -0.6524  0.2616 -0.1594
 7921TIP3    H145254   2.453   3.379  12.005  1.4732 -1.6607 -0.9539
 7921TIP3    H245255   2.514   3.447  11.885  2.2912 -0.6575  0.0014
 7922TIP3   OH245256   6.239   4.605  10.875 -0.2225 -0.4631  0.0282
 7922TIP3    H145257   6.177   4.667  10.838 -1.4720 -0.8656  1.3700
 7922TIP3    H245258   6.264   4.549  10.802 -1.3304 -0.1999 -0.5608
 7923TIP3   OH245259   5.174   1.526  10.721  0.4706 -0.3032  0.3309
 7923TIP3    H145260   5.120   1.554  10.795 -0.3143 -0.0316 -0.3330
 7923TIP3    H245261   5.196   1.435  10.741  1.2462  0.1175  1.4583
 7924TIP3   OH245262   0.670   2.295  14.197 -0.6171  0.1287  0.3964
 7924TIP3    H145263   0.761   2.324  14.191 -0.5168 -0.3643 -0.7817
 7924TIP3    H245264   0.669   2.236  14.272 -0.1523  0.7685  0.9163
 7925TIP3   OH245265   0.941   3.133   1.361  0.3570 -0.2274  0.1339
 7925TIP3    H145266   0.949   3.076   1.438 -1.1999 -1.0272 -0.2539
 7925TIP3    H245267   0.971   3.079   1.288  1.3649  0.3614  0.1065
 7926TIP3   OH245268   4.188   3.039  10.658 -0.0790  0.2799 -0.1281
 7926TIP3    H145269   4.281   3.063  10.661 -0.0878  0.8106 -2.5594
 7926TIP3    H245270   4.141   3.120  10.673 -0.1681  0.1256  0.4608
 7927TIP3   OH245271   1.693   6.542   2.797 -0.1221 -0.0088  0.8888
 7927TIP3    H145272   1.628   6.485   2.755 -0.5488  0.9474  0.2160
 7927TIP3    H245273   1.713   6.498   2.880  1.1121 -2.2244 -0.4790
 7928TIP3   OH245274   0.111   5.184   5.640 -0.0470  0.1930 -0.9434
 7928TIP3    H145275   0.192   5.204   5.594  0.9676  0.2519  0.8104
 7928TIP3    H245276   0.073   5.269   5.661  0.0301  0.1718 -0.7237
 7929TIP3   OH245277   3.428   3.256   0.429  0.7139 -0.3166  0.2211
 7929TIP3    H145278   3.502   3.317   0.435  0.2492  0.3542 -0.6516
 7929TIP3    H245279   3.387   3.276   0.345 -1.0453  0.0204  1.1154
 7930TIP3   OH245280   5.205   1.192  10.848  0.5735 -0.5220  0.4646
 7930TIP3    H145281   5.150   1.115  10.860 -1.2569  0.6824  0.2479
 7930TIP3    H245282   5.161   1.261  10.899  1.2928  0.7501 -0.5700
 7931TIP3   OH245283   4.114   5.814  15.284 -0.1403 -0.2361 -0.5948
 7931TIP3    H145284   4.070   5.898  15.299 -1.3930 -0.6875 -1.4897
 7931TIP3    H245285   4.076   5.756  15.350 -0.2041 -0.4024 -0.7785
 7932TIP3   OH245286   2.811   6.167  14.054 -0.1206 -0.2319  0.1225
 7932TIP3    H145287   2.800   6.231  14.124 -1.7769 -0.0519 -0.2641
 7932TIP3    H245288   2.779   6.211  13.975  0.5270 -0.8723 -0.5192
 7933TIP3   OH245289   6.521   5.562   3.750  0.3917  0.5865 -0.2385
 7933TIP3    H145290   6.440   5.557   3.700  1.2420  1.8444 -1.8155
 7933TIP3    H245291   6.510   5.639   3.806  0.3150  0.4935 -0.1265
 7934TIP3   OH245292   6.183   6.782  11.692 -0.2674  0.1104 -0.6273
 7934TIP3    H145293   6.229   6.859  11.725 -0.6106  0.8153 -1.7318
 7934TIP3    H245294   6.092   6.795  11.718 -0.3047  0.0188 -0.7085
 7935TIP3   OH245295   3.023   4.525  11.339  0.3082 -0.5245  0.1225
 7935TIP3    H145296   3.053   4.523  11.248  0.8025 -2.6054  0.2962
 7935TIP3    H245297   2.931   4.499  11.335 -0.2069  1.1552  0.0839
 7936TIP3   OH245298   4.342   3.594   1.129  0.0040  0.0966  0.8119
 7936TIP3    H145299   4.304   3.633   1.050 -0.3676 -0.6999  0.5961
 7936TIP3    H245300   4.311   3.650   1.200  0.7879  1.1455  0.3496
 7937TIP3   OH245301   5.593   4.364   3.786  0.5964 -0.5766 -0.1053
 7937TIP3    H145302   5.524   4.430   3.781  0.4420 -0.7637 -0.4053
 7937TIP3    H245303   5.673   4.413   3.767  0.4231 -0.5722 -0.8793
 7938TIP3   OH245304   3.686   2.969  11.114 -0.2044  0.2680 -0.3990
 7938TIP3    H145305   3.664   2.967  11.021 -1.1425 -1.7996 -0.1703
 7938TIP3    H245306   3.610   2.931  11.158  0.5388  0.5051  1.1710
 7939TIP3   OH245307   6.481   2.503   3.007  0.3988  0.4178  0.3820
 7939TIP3    H145308   6.574   2.526   3.010 -0.0778  2.8183 -0.8231
 7939TIP3    H245309   6.450   2.511   3.097  1.0782  0.8796  0.5749
 7940TIP3   OH245310   3.166   5.144   2.451 -0.1862  0.2199  0.0384
 7940TIP3    H145311   3.164   5.240   2.446 -2.9424  0.2282 -0.1764
 7940TIP3    H245312   3.153   5.125   2.544 -2.3902  0.1040 -0.2540
 7941TIP3   OH245313   1.944   6.369  15.374  0.1972 -0.4029 -0.2165
 7941TIP3    H145314   1.851   6.368  15.351 -0.0588  0.0993  0.7337
 7941TIP3    H245315   1.956   6.291  15.430  0.0720  0.1613  0.6201
 7942TIP3   OH245316   2.235   6.087   2.414 -0.4794  0.1515  0.3029
 7942TIP3    H145317   2.218   6.024   2.344 -0.1946 -1.0064  1.2303
 7942TIP3    H245318   2.165   6.070   2.478  1.2821 -1.3930  1.9666
 7943TIP3   OH245319   6.516   2.198  16.920  0.4189  0.1243 -0.2886
 7943TIP3    H145320   6.514   2.292  16.938 -0.5470 -0.0490  0.5755
 7943TIP3    H245321   6.424   2.171  16.923  0.5457 -0.6167 -1.8547
 7944TIP3   OH245322   2.298   5.594   2.335  0.1508 -0.0001 -0.0400
 7944TIP3    H145323   2.389   5.567   2.329 -0.2463 -1.6577  0.8482
 7944TIP3    H245324   2.248   5.523   2.295 -0.7706  0.7416 -0.2481
 7945TIP3   OH245325   3.429   2.677  13.126 -0.0303  0.4285  0.0671
 7945TIP3    H145326   3.442   2.639  13.039  2.5386  0.6972  0.2531
 7945TIP3    H245327   3.451   2.769  13.116  0.4685  0.4251  1.0113
 7946TIP3   OH245328   5.998   6.464   4.318  0.3550 -0.1821  0.9654
 7946TIP3    H145329   6.043   6.472   4.402 -0.0841  1.8115  1.0543
 7946TIP3    H245330   6.063   6.423   4.260  1.2680  0.0024  1.8249
 7947TIP3   OH245331   0.341   0.929  12.947 -0.5399 -0.0279  0.3348
 7947TIP3    H145332   0.385   1.014  12.953  0.5397 -0.5435 -0.0353
 7947TIP3    H245333   0.354   0.902  12.857 -1.3720 -0.3427  0.3014
 7948TIP3   OH245334   2.138   4.423   0.462 -0.0809  0.2182  0.3980
 7948TIP3    H145335   2.189   4.496   0.425  0.2241 -1.0117 -1.8119
 7948TIP3    H245336   2.169   4.346   0.414 -0.6832 -1.3299  2.3688
 7949TIP3   OH245337   3.747   3.282   5.182  0.7127 -0.1091 -0.2694
 7949TIP3    H145338   3.742   3.341   5.107  2.8087  0.3379 -0.1129
 7949TIP3    H245339   3.659   3.245   5.189  0.9836 -2.1479 -4.5268
 7950TIP3   OH245340   5.953   6.421  15.612 -0.7388 -0.2188  0.7322
 7950TIP3    H145341   5.936   6.441  15.520  1.4188 -2.4671 -0.2690
 7950TIP3    H245342   5.895   6.347  15.632 -0.8003 -0.0934  1.0300
 7951TIP3   OH245343   6.273   5.843   3.367 -0.8692 -0.4698 -0.3578
 7951TIP3    H145344   6.367   5.851   3.352 -1.0332 -0.2687 -1.3032
 7951TIP3    H245345   6.237   5.928   3.341 -1.2357 -0.2683  0.7286
 7952TIP3   OH245346   3.805   3.789  13.824  0.1710  0.7095  0.5120
 7952TIP3    H145347   3.830   3.793  13.732 -0.0758  1.7268  0.4801
 7952TIP3    H245348   3.864   3.850  13.868  0.0173  0.5331  0.9687
 7953TIP3   OH245349   4.824   5.838  13.021 -0.1340  0.2205 -0.2827
 7953TIP3    H145350   4.869   5.883  12.950 -1.2916  1.3684 -0.3196
 7953TIP3    H245351   4.890   5.830  13.091  0.3887  1.0329 -0.6725
 7954TIP3   OH245352   0.648   4.403   3.588  0.1829  0.4173  0.1788
 7954TIP3    H145353   0.681   4.480   3.636  0.6769  1.5835 -1.9287
 7954TIP3    H245354   0.641   4.335   3.655  0.1484  2.1565  2.0514
 7955TIP3   OH245355   2.992   0.611   1.031 -0.4014  0.2082  0.1764
 7955TIP3    H145356   3.020   0.698   1.003  1.0028 -0.9580 -2.3509
 7955TIP3    H245357   2.905   0.625   1.069 -0.5899  2.5753 -0.9584
 7956TIP3   OH245358   2.534   4.655  15.395  0.0647  0.0325  0.3817
 7956TIP3    H145359   2.538   4.663  15.299  0.8173 -0.0787  0.4020
 7956TIP3    H245360   2.465   4.716  15.421  0.6042  0.8825 -0.1384
 7957TIP3   OH245361   0.337   0.176   5.949 -0.5168  0.2345  0.4272
 7957TIP3    H145362   0.297   0.109   6.005  0.1284  0.2109  0.8720
 7957TIP3    H245363   0.397   0.223   6.007  0.4357 -0.0250 -0.3271
 7958TIP3   OH245364   3.786   2.262  11.969  0.3905  0.5576 -0.1569
 7958TIP3    H145365   3.707   2.251  11.916  0.8859  0.2714 -0.8538
 7958TIP3    H245366   3.841   2.322  11.919  1.0326 -0.0274 -0.1715
 7959TIP3   OH245367   0.764   5.970   5.655  0.5810 -0.4257  0.1118
 7959TIP3    H145368   0.672   5.952   5.675  0.3359  0.9986  0.3519
 7959TIP3    H245369   0.761   6.032   5.582  1.3963 -1.6637 -1.0252
 7960TIP3   OH245370   5.465   5.518   3.250 -0.1019 -0.8264  0.2763
 7960TIP3    H145371   5.455   5.612   3.263  1.4925 -0.3115 -1.8117
 7960TIP3    H245372   5.428   5.480   3.330 -0.8179  1.5290  1.1756
 7961TIP3   OH245373   2.021   5.677  16.472 -0.1715 -0.7261 -0.3032
 7961TIP3    H145374   2.020   5.721  16.387 -1.9786 -1.1965 -0.5632
 7961TIP3    H245375   1.930   5.649  16.486  0.2302 -1.2986  1.4546
 7962TIP3   OH245376   5.848   3.828  16.359  0.4095  0.6866  0.3802
 7962TIP3    H145377   5.800   3.879  16.293  1.1848 -0.2781 -0.9693
 7962TIP3    H245378   5.898   3.894  16.408  0.7358  1.3123 -0.7604
 7963TIP3   OH245379   0.728   2.526   2.590  0.0553 -0.4380 -0.2937
 7963TIP3    H145380   0.634   2.546   2.586  0.0263 -0.4219  0.3429
 7963TIP3    H245381   0.732   2.444   2.640  0.4558  0.2195  0.7857
 7964TIP3   OH245382   2.334   5.934   4.459  0.2791  0.1856 -0.5896
 7964TIP3    H145383   2.338   5.839   4.460 -0.6765  0.1261 -1.5158
 7964TIP3    H245384   2.416   5.961   4.500 -0.6342 -1.0200  2.2962
 7965TIP3   OH245385   6.540   2.392  10.791  0.1282 -0.3482 -0.0836
 7965TIP3    H145386   6.510   2.302  10.775  0.2045 -0.2564 -0.7936
 7965TIP3    H245387   6.536   2.434  10.705 -1.3267  0.7688  0.4962
 7966TIP3   OH245388   4.950   1.891  11.280 -0.0628 -0.4018 -0.3797
 7966TIP3    H145389   4.909   1.810  11.312 -0.3663  0.5040  1.6794
 7966TIP3    H245390   4.958   1.878  11.186 -0.5727 -2.6194 -0.1726
 7967TIP3   OH245391   3.403   0.498  16.695  0.2457 -0.3266 -0.4954
 7967TIP3    H145392   3.311   0.506  16.722 -0.0887 -1.3067 -1.2785
 7967TIP3    H245393   3.426   0.407  16.718  1.7445  0.5374  1.8071
 7968TIP3   OH245394   5.457   2.420   2.343  0.0695 -0.3332  0.1066
 7968TIP3    H145395   5.475   2.435   2.251 -0.5595 -2.0184 -0.3337
 7968TIP3    H245396   5.390   2.485   2.366  0.0781 -0.0455 -0.6704
 7969TIP3   OH245397   2.780   5.708   4.533 -0.2410  0.2386 -0.0450
 7969TIP3    H145398   2.872   5.735   4.526 -0.1887 -0.0299 -0.4069
 7969TIP3    H245399   2.741   5.734   4.449  0.0796 -1.8118 -0.8730
 7970TIP3   OH245400   4.170   2.669   4.558  0.1602  0.3939 -0.0662
 7970TIP3    H145401   4.135   2.659   4.647  0.0617  1.2519  0.0025
 7970TIP3    H245402   4.113   2.734   4.518  0.3382  0.1682 -0.6896
 7971TIP3   OH245403   2.844   0.409  15.892  0.7037 -0.0944 -0.6877
 7971TIP3    H145404   2.859   0.456  15.811  1.1282 -1.3382 -1.3586
 7971TIP3    H245405   2.853   0.316  15.868  1.8777 -0.4600  0.9784
 7972TIP3   OH245406   2.463   4.155   5.376  0.3266 -0.7047  0.0820
 7972TIP3    H145407   2.424   4.241   5.362  0.6134 -0.6004 -0.0732
 7972TIP3    H245408   2.522   4.143   5.301 -0.3853 -1.4176 -0.3827
 7973TIP3   OH245409   3.092   0.840  13.461 -0.5113  0.0553 -0.5001
 7973TIP3    H145410   3.109   0.755  13.501 -1.3588 -0.4015 -1.0893
 7973TIP3    H245411   3.070   0.897  13.534 -1.0089 -0.5079 -0.2015
 7974TIP3   OH245412   0.589   0.015   4.181 -0.2350 -0.7134  0.0269
 7974TIP3    H145413   0.680   0.035   4.202  0.4097 -1.7717 -1.5569
 7974TIP3    H245414   0.548   0.001   4.266  0.8363  0.7010  0.8191
 7975TIP3   OH245415   2.662   5.469   5.162 -0.3697  0.0225  0.0326
 7975TIP3    H145416   2.667   5.557   5.125  0.3157  0.4964  1.2145
 7975TIP3    H245417   2.576   5.465   5.204 -1.0812 -0.4586 -1.4017
 7976TIP3   OH245418   4.070   3.692  12.185 -0.3470  0.0224  0.4874
 7976TIP3    H145419   4.126   3.617  12.205  0.0837  1.2414  4.9047
 7976TIP3    H245420   4.127   3.768  12.193 -1.5714  1.0208  0.0161
 7977TIP3   OH245421   6.756   4.130  14.502  0.1083  0.0109  0.1117
 7977TIP3    H145422   6.698   4.063  14.468  0.4498 -0.5860  0.6744
 7977TIP3    H245423   6.804   4.086  14.572  1.1749  0.5165 -0.2851
 7978TIP3   OH245424   0.462   6.248  15.557 -0.9194  0.3773  0.6896
 7978TIP3    H145425   0.546   6.230  15.599 -0.1766 -0.3402 -1.0006
 7978TIP3    H245426   0.484   6.267  15.466 -2.6803 -1.4877 -0.2172
 7979TIP3   OH245427   3.827   2.767   2.565  0.3553  0.3811  0.3949
 7979TIP3    H145428   3.848   2.833   2.499  0.8351  0.2328  0.3897
 7979TIP3    H245429   3.763   2.710   2.522  0.1677  0.6661  0.2920
 7980TIP3   OH245430   6.777   4.854  11.479 -0.2080 -0.0230 -0.4865
 7980TIP3    H145431   6.820   4.821  11.558 -0.0693  0.7294 -0.2335
 7980TIP3    H245432   6.834   4.829  11.407  0.0487 -0.0646 -0.2684
 7981TIP3   OH245433   0.729   6.193   3.768 -1.1755 -0.1491 -0.1893
 7981TIP3    H145434   0.677   6.166   3.692 -1.7701  2.2039 -0.6801
 7981TIP3    H245435   0.672   6.178   3.843 -2.4211  1.8537 -0.6698
 7982TIP3   OH245436   6.428   5.433   5.414 -0.5721 -0.0645 -0.3524
 7982TIP3    H145437   6.392   5.392   5.493 -0.6326  2.0266  0.7728
 7982TIP3    H245438   6.506   5.479   5.444 -1.3426  1.9063 -1.1974
 7983TIP3   OH245439   1.662   2.729   3.962  0.0009 -0.2145  0.0710
 7983TIP3    H145440   1.702   2.672   4.028 -0.5334 -1.3249 -0.5368
 7983TIP3    H245441   1.727   2.797   3.947  0.3659 -0.2507  1.3346
 7984TIP3   OH245442   0.093   1.667   1.659 -0.4692 -0.0889  0.7253
 7984TIP3    H145443   0.025   1.733   1.672 -0.5731  0.0742 -0.5777
 7984TIP3    H245444   0.169   1.716   1.630 -0.8902 -0.6100 -1.4259
 7985TIP3   OH245445   5.981   4.530   4.883 -0.5891  0.4359 -0.0721
 7985TIP3    H145446   6.043   4.487   4.942 -2.0819  1.3180  2.2950
 7985TIP3    H245447   5.989   4.623   4.903 -2.7562  0.5617  0.4646
 7986TIP3   OH245448   0.751   4.325  13.252  0.1934  0.0438  0.0905
 7986TIP3    H145449   0.803   4.359  13.178 -1.0062  0.3921 -0.6224
 7986TIP3    H245450   0.804   4.255  13.288  0.8122 -0.1441 -1.1198
 7987TIP3   OH245451   2.583   3.948  11.904  0.3483  0.7095 -0.4978
 7987TIP3    H145452   2.621   3.964  11.990  1.1690  1.6077 -1.0179
 7987TIP3    H245453   2.622   3.864  11.877 -1.1219 -0.4065  0.6414
 7988TIP3   OH245454   0.980   0.567  12.926 -0.1944 -0.6165 -0.1788
 7988TIP3    H145455   0.916   0.522  12.871 -2.4645 -0.0624  1.8943
 7988TIP3    H245456   0.958   0.660  12.918  1.6421 -0.1922 -0.9282
 7989TIP3   OH245457   0.751   2.181   0.545  0.1823  0.4877  0.1185
 7989TIP3    H145458   0.758   2.269   0.581  3.6623  1.3261 -2.1571
 7989TIP3    H245459   0.729   2.194   0.453  2.4371 -0.8393 -0.6723
 7990TIP3   OH245460   3.767   1.607  10.802  0.1143  0.4482  0.0027
 7990TIP3    H145461   3.720   1.538  10.755 -1.8257  0.5703  1.6485
 7990TIP3    H245462   3.705   1.679  10.807  0.8737  1.0391  1.2768
 7991TIP3   OH245463   0.497   2.059   6.108  0.7917 -0.5685 -0.5087
 7991TIP3    H145464   0.539   2.079   6.025  0.4443  1.6997 -0.2148
 7991TIP3    H245465   0.518   2.133   6.164 -3.7528  1.0142 -0.4377
 7992TIP3   OH245466   6.420   3.981   0.162 -0.2392 -0.2541 -0.0704
 7992TIP3    H145467   6.439   3.933   0.242 -1.2970 -0.4202  0.0944
 7992TIP3    H245468   6.497   4.035   0.147  0.8914 -1.7914 -0.1103
 7993TIP3   OH245469   4.495   3.735  15.379  0.1180  0.3678 -0.6928
 7993TIP3    H145470   4.521   3.810  15.432  1.9720 -1.1017  0.6338
 7993TIP3    H245471   4.412   3.707  15.417 -0.9734  2.0988 -1.6691
 7994TIP3   OH245472   1.190   2.299  12.919  0.1051 -0.2420  0.1928
 7994TIP3    H145473   1.279   2.335  12.922  0.1075 -0.2545  2.4728
 7994TIP3    H245474   1.142   2.353  12.982 -0.9861 -1.4960  0.4570
 7995TIP3   OH245475   5.925   0.989  12.476  0.4413 -0.2303 -0.3934
 7995TIP3    H145476   5.845   1.033  12.449 -0.7602  0.0352  3.1105
 7995TIP3    H245477   5.952   1.035  12.555  1.1137 -3.4944  1.4479
 7996TIP3   OH245478   1.015   3.894   2.844 -0.2864 -0.0806 -0.5272
 7996TIP3    H145479   1.022   3.988   2.826 -2.1570  0.0151 -0.8982
 7996TIP3    H245480   1.099   3.871   2.884  0.2440  1.7221 -0.5334
 7997TIP3   OH245481   0.052   5.415  11.959 -0.1160  0.0700 -0.0006
 7997TIP3    H145482   0.133   5.364  11.958 -1.1395 -1.6535  0.6020
 7997TIP3    H245483   0.066   5.484  11.894  1.4262 -0.8268 -0.6705
 7998TIP3   OH245484   0.107   3.406   3.862 -0.0024  0.3215  0.5977
 7998TIP3    H145485   0.154   3.348   3.922 -0.0607  0.3593  0.6792
 7998TIP3    H245486   0.119   3.366   3.776  0.0532  0.2495  0.6393
 7999TIP3   OH245487   2.688   3.663   5.499  0.3894 -0.1134 -0.3107
 7999TIP3    H145488   2.680   3.713   5.418 -0.3238 -1.8810 -1.4093
 7999TIP3    H245489   2.599   3.630   5.515  0.6268 -0.1844  0.9297
 8000TIP3   OH245490   2.149   5.497   0.896  0.2749  0.0352  0.2786
 8000TIP3    H145491   2.229   5.505   0.845 -0.7382  1.5646 -1.1996
 8000TIP3    H245492   2.128   5.404   0.895  1.6398 -0.2845  0.0860
 8001TIP3   OH245493   0.852   5.310   5.049  0.3145  0.3884  0.0242
 8001TIP3    H145494   0.941   5.288   5.021 -0.1199 -0.6367 -0.6165
 8001TIP3    H245495   0.803   5.228   5.038 -0.7595  1.0022  0.1483
 8002TIP3   OH245496   6.363   0.265   3.757 -0.1322  0.0845  0.4677
 8002TIP3    H145497   6.305   0.279   3.683  0.5426  1.3351  0.1499
 8002TIP3    H245498   6.320   0.310   3.830 -0.7855 -1.1273  0.8652
 8003TIP3   OH245499   6.269   3.250  14.396  0.1848 -0.8510 -0.5412
 8003TIP3    H145500   6.174   3.261  14.384  0.2644  2.3709  0.7639
 8003TIP3    H245501   6.307   3.269  14.310 -0.2503  0.5031 -0.4510
 8004TIP3   OH245502   3.815   4.004  12.756 -0.0315 -0.9041 -0.3873
 8004TIP3    H145503   3.863   3.934  12.712 -0.6135 -1.6195  0.0917
 8004TIP3    H245504   3.875   4.078  12.756  0.6582 -1.4500 -0.7558
 8005TIP3   OH245505   2.973   6.665   6.386 -0.7851 -0.2122  0.2527
 8005TIP3    H145506   2.883   6.639   6.404 -1.5864  0.5604 -2.3095
 8005TIP3    H245507   3.014   6.587   6.349 -0.6339 -0.2982  0.5914
 8006TIP3   OH245508   0.011   3.361  10.967  0.2140 -0.0393 -0.1090
 8006TIP3    H145509  -0.069   3.403  10.998  0.4915 -0.7091  1.5903
 8006TIP3    H245510   0.078   3.430  10.973  0.3088 -0.2164  1.0257
 8007TIP3   OH245511   3.063   1.277  14.479 -0.0978 -0.4345  0.2056
 8007TIP3    H145512   3.088   1.210  14.543  1.7863 -1.1461 -1.1788
 8007TIP3    H245513   3.123   1.264  14.405  1.1772  3.4233  0.2781
 8008TIP3   OH245514   1.544   0.663   2.593 -0.0238 -0.0811  0.5557
 8008TIP3    H145515   1.558   0.608   2.670 -0.4332 -0.3279  0.4582
 8008TIP3    H245516   1.492   0.608   2.534 -1.9181  1.0050  1.1549
 8009TIP3   OH245517   4.203   4.218   0.702  0.0517 -0.7283 -0.5308
 8009TIP3    H145518   4.285   4.177   0.674  0.9728  0.7161 -0.0578
 8009TIP3    H245519   4.228   4.307   0.728 -1.3574 -0.8033  1.2994
 8010TIP3   OH245520   5.575   6.526   1.128  0.6603 -0.2710 -0.5375
 8010TIP3    H145521   5.645   6.563   1.183  0.3604 -0.2818 -0.1472
 8010TIP3    H245522   5.538   6.602   1.083  0.8592 -0.2530 -0.6734
 8011TIP3   OH245523   6.020   4.947  16.863  0.1339 -0.4786  0.2248
 8011TIP3    H145524   6.100   4.958  16.810 -0.0770 -0.6564 -0.1336
 8011TIP3    H245525   6.035   5.002  16.940  0.3984 -0.1267 -0.0735
 8012TIP3   OH245526   2.333   1.153  16.974  0.2412  0.4432 -0.1854
 8012TIP3    H145527   2.419   1.174  17.011  0.5526  0.2400 -0.7846
 8012TIP3    H245528   2.293   1.238  16.955  0.9431  0.5370 -1.3349
 8013TIP3   OH245529   5.146   3.942   5.085  0.2257  0.6021 -0.0792
 8013TIP3    H145530   5.151   3.991   5.003 -0.6802 -1.2330 -1.2848
 8013TIP3    H245531   5.061   3.967   5.122  0.6087  1.3845  0.3055
 8014TIP3   OH245532   2.972   2.010   0.394 -0.4322 -0.0984  0.1755
 8014TIP3    H145533   2.949   2.088   0.445  2.4778  2.0458 -1.4992
 8014TIP3    H245534   3.011   1.950   0.457 -0.8999  0.6188  1.1802
 8015TIP3   OH245535   0.670   3.606   1.339 -0.0828 -0.3040 -0.0204
 8015TIP3    H145536   0.671   3.534   1.401 -1.7583 -0.5219 -0.1971
 8015TIP3    H245537   0.712   3.571   1.260 -1.2873 -1.2683 -0.2629
 8016TIP3   OH245538   2.102   5.813   1.324 -0.0249 -0.3075 -0.0327
 8016TIP3    H145539   2.020   5.856   1.303  0.7204  1.9198  1.2470
 8016TIP3    H245540   2.126   5.765   1.244 -2.6218 -1.2387 -0.3410
 8017TIP3   OH245541   2.750   1.409  14.781  0.0116 -0.3482  0.4856
 8017TIP3    H145542   2.830   1.411  14.729  0.7084  0.3981  1.5507
 8017TIP3    H245543   2.692   1.350  14.732  0.5777  0.3975 -1.1736
 8018TIP3   OH245544   3.274   4.072  13.798 -0.4100  0.4859  0.0229
 8018TIP3    H145545   3.240   4.041  13.882 -0.0509  1.1492  0.4191
 8018TIP3    H245546   3.369   4.061  13.804 -0.3279  1.1287 -0.0454
 8019TIP3   OH245547   4.262   3.299   3.212  0.4015  0.0519  0.2311
 8019TIP3    H145548   4.172   3.330   3.221  0.2747 -0.0457 -0.6196
 8019TIP3    H245549   4.316   3.372   3.240  0.0895  0.7703 -0.9917
 8020TIP3   OH245550   3.110   1.311  13.807 -0.0654 -0.0212  0.2316
 8020TIP3    H145551   3.187   1.364  13.828 -1.1416  2.4241 -1.5022
 8020TIP3    H245552   3.060   1.309  13.888  1.1714 -0.5335  1.0121
 8021TIP3   OH245553   0.117   4.972   3.521  0.3798  0.0372 -0.2481
 8021TIP3    H145554   0.042   5.029   3.538 -0.2757 -0.6880 -0.6455
 8021TIP3    H245555   0.080   4.896   3.476  1.1075 -1.0510  0.9181
 8022TIP3   OH245556   1.618   5.567   3.679 -0.7769 -0.0310 -0.0254
 8022TIP3    H145557   1.705   5.547   3.644 -0.1621  2.1105  0.1858
 8022TIP3    H245558   1.632   5.636   3.742 -2.6826  0.5975 -0.2262
 8023TIP3   OH245559   5.766   0.457  11.827 -0.0017  0.2914 -0.6499
 8023TIP3    H145560   5.733   0.498  11.747 -1.2993  0.7833  0.1040
 8023TIP3    H245561   5.699   0.476  11.893  1.3439  0.4634  0.7201
 8024TIP3   OH245562   1.543   1.100  13.514  0.3182 -0.1902  0.4166
 8024TIP3    H145563   1.597   1.154  13.573 -0.3417  0.7101  0.2166
 8024TIP3    H245564   1.483   1.054  13.573  0.8647 -0.6970  0.5863
 8025TIP3   OH245565   2.883   1.855   1.274  0.0750  0.0132 -0.4227
 8025TIP3    H145566   2.837   1.840   1.192 -0.1747 -1.6802 -0.0022
 8025TIP3    H245567   2.858   1.782   1.331  0.3937  1.0290  1.1081
 8026TIP3   OH245568   5.125   0.136  13.073  0.0453  0.3967 -0.5390
 8026TIP3    H145569   5.125   0.229  13.098 -3.0639  0.6881 -1.2301
 8026TIP3    H245570   5.218   0.114  13.065  0.9008  3.5093 -0.6743
 8027TIP3   OH245571   1.272   3.859  10.896 -0.1107  0.3658  0.3516
 8027TIP3    H145572   1.240   3.930  10.841 -1.4392  0.3764  1.0935
 8027TIP3    H245573   1.334   3.901  10.955  0.8569  0.4663 -0.7110
 8028TIP3   OH245574   1.040   4.760   2.839 -1.1719  0.5193 -0.3259
 8028TIP3    H145575   1.063   4.668   2.850 -0.7828  0.8204  1.8657
 8028TIP3    H245576   1.103   4.794   2.775 -0.0171 -0.2928  0.3501
 8029TIP3   OH245577   3.085   4.664  16.848  0.0526 -0.3290  0.4398
 8029TIP3    H145578   3.130   4.678  16.931  1.1351 -1.9969  0.1723
 8029TIP3    H245579   2.999   4.704  16.860  0.9547  1.3622  1.5790
 8030TIP3   OH245580   6.755   2.692   5.475 -0.1847  0.0424  0.3730
 8030TIP3    H145581   6.691   2.623   5.490 -0.1140 -0.3320 -0.9432
 8030TIP3    H245582   6.766   2.695   5.380  0.8772  0.8976  0.4991
 8031TIP3   OH245583   0.481   1.469   0.936  0.2514 -0.3584  0.2586
 8031TIP3    H145584   0.430   1.545   0.964 -1.3581 -0.3231 -2.4892
 8031TIP3    H245585   0.525   1.440   1.016 -1.7253  1.4234  2.1328
 8032TIP3   OH245586   3.848   3.771   2.168 -0.9894  0.2366  0.0735
 8032TIP3    H145587   3.902   3.781   2.246 -1.6454  1.5729  0.3831
 8032TIP3    H245588   3.794   3.694   2.185  0.3627 -0.7701  0.0055
 8033TIP3   OH245589   5.543   0.397  10.684  0.4776  0.1317 -0.2699
 8033TIP3    H145590   5.497   0.314  10.684  2.5329 -1.0767  0.2018
 8033TIP3    H245591   5.566   0.413  10.592 -0.2962  0.4231 -0.4189
 8034TIP3   OH245592   1.735   2.519  11.344 -0.0483  0.1796  0.2425
 8034TIP3    H145593   1.747   2.424  11.340 -0.6022  0.1058  0.2315
 8034TIP3    H245594   1.804   2.554  11.287 -0.0392 -0.2329 -0.0072
 8035TIP3   OH245595   2.034   5.185  16.840 -0.4143  0.0748 -0.8019
 8035TIP3    H145596   2.009   5.123  16.771 -1.7342 -0.4353  0.1061
 8035TIP3    H245597   2.021   5.271  16.801  0.3600 -0.1842 -1.6971
 8036TIP3   OH245598   0.525   0.484  11.263 -0.2282 -0.6950  0.3251
 8036TIP3    H145599   0.454   0.528  11.217 -1.0482  1.3544  3.3080
 8036TIP3    H245600   0.495   0.393  11.270 -0.5422 -0.8501 -2.0931
 8037TIP3   OH245601   5.194   3.956  14.262  0.1489 -0.5775 -0.0739
 8037TIP3    H145602   5.119   3.978  14.207 -0.8157 -1.4091  0.8537
 8037TIP3    H245603   5.220   4.040  14.301 -1.3606 -0.4912  0.8502
 8038TIP3   OH245604   4.058   4.724   3.167  0.2142 -0.0360 -0.1403
 8038TIP3    H145605   4.010   4.700   3.246 -0.7210  0.4984 -0.5310
 8038TIP3    H245606   4.024   4.811   3.145  0.2266 -0.3251 -1.3150
 8039TIP3   OH245607   5.859   4.439   3.817  0.0098  0.1386  0.1283
 8039TIP3    H145608   5.867   4.491   3.897 -2.4857  1.1025 -0.1591
 8039TIP3    H245609   5.826   4.354   3.847 -0.0085  0.1773  0.2183
 8040TIP3   OH245610   4.535   2.507  16.840 -0.3609 -0.1036 -0.1673
 8040TIP3    H145611   4.566   2.581  16.788  1.1508 -0.8994 -0.4415
 8040TIP3    H245612   4.499   2.548  16.919  0.2510  0.9385 -0.4044
 8041TIP3   OH245613   4.890   0.762   0.650 -0.2030  0.2077 -0.9707
 8041TIP3    H145614   4.965   0.734   0.598  1.1611  0.5406  0.7215
 8041TIP3    H245615   4.860   0.843   0.609 -0.3400 -0.4907 -2.2979
 8042TIP3   OH245616   5.975   3.161  16.101  0.0432  0.4850 -0.6096
 8042TIP3    H145617   5.945   3.170  16.010 -0.6381 -0.2415 -0.4627
 8042TIP3    H245618   6.043   3.094  16.097 -2.3192 -2.1159 -0.1261
 8043TIP3   OH245619   0.464   1.819  12.982 -0.4332  0.6411  0.0568
 8043TIP3    H145620   0.401   1.891  12.971  1.4668  2.5507  0.9171
 8043TIP3    H245621   0.526   1.830  12.909 -1.5264 -1.8098 -1.3621
 8044TIP3   OH245622   6.068   5.547  12.670 -0.4508  0.5016 -0.1413
 8044TIP3    H145623   5.998   5.500  12.714 -0.0192  0.9778  1.1085
 8044TIP3    H245624   6.023   5.603  12.606 -1.2727  1.1633  0.9756
 8045TIP3   OH245625   2.311   2.581  13.618  0.7969 -0.6898 -0.0339
 8045TIP3    H145626   2.326   2.609  13.527  0.5817  1.3206  0.5059
 8045TIP3    H245627   2.325   2.660  13.670 -1.2735 -1.2562  1.4843
 8046TIP3   OH245628   4.598   2.721   5.344  0.1601 -0.0811 -0.3331
 8046TIP3    H145629   4.622   2.741   5.434  0.8407  0.9881 -0.7282
 8046TIP3    H245630   4.502   2.711   5.346  0.0495  0.9261  0.3454
 8047TIP3   OH245631   0.438   4.834  11.198 -0.4500  0.2960 -0.5434
 8047TIP3    H145632   0.472   4.815  11.110  0.7818 -1.5032  0.2703
 8047TIP3    H245633   0.410   4.925  11.193  0.8506  0.6527 -2.4207
 8048TIP3   OH245634   4.503   1.553   2.016  0.1020  0.1626 -0.7887
 8048TIP3    H145635   4.439   1.624   2.020 -0.4474 -0.3849  1.5046
 8048TIP3    H245636   4.578   1.586   2.066  0.3767 -0.3705 -0.8428
 8049TIP3   OH245637   3.116   6.381  11.529 -0.1347  0.1275  0.3206
 8049TIP3    H145638   3.196   6.414  11.488  0.4073 -0.7961  0.5895
 8049TIP3    H245639   3.147   6.321  11.597 -1.0577 -0.1955  0.4758
 8050TIP3   OH245640   6.364   3.897  15.490  0.3431 -0.1531  0.5411
 8050TIP3    H145641   6.396   3.879  15.401  1.1196  2.2843  0.2554
 8050TIP3    H245642   6.440   3.885  15.546 -0.3386 -2.5325  1.0913
 8051TIP3   OH245643   2.834   2.064  13.513  0.1510  0.7408  0.0889
 8051TIP3    H145644   2.894   2.113  13.457  0.3479  0.2196 -0.1637
 8051TIP3    H245645   2.890   2.004  13.563 -0.2490 -0.7091 -1.1226
 8052TIP3   OH245646   3.762   6.780  15.982 -0.3443  0.8216  0.5757
 8052TIP3    H145647   3.835   6.725  16.010  0.9728  1.1046 -2.0380
 8052TIP3    H245648   3.782   6.866  16.017 -1.3707  0.1777  2.9432
 8053TIP3   OH245649   5.835   1.082  16.002 -0.5170  0.7124  0.8994
 8053TIP3    H145650   5.810   0.990  16.012  3.4469 -0.7365 -0.5254
 8053TIP3    H245651   5.808   1.105  15.913  0.9778 -0.0706  0.2149
 8054TIP3   OH245652   2.522   0.994  13.201 -0.1354 -0.0050  0.0160
 8054TIP3    H145653   2.428   0.980  13.195 -0.2620 -0.0848  1.7844
 8054TIP3    H245654   2.560   0.914  13.166 -0.7884 -1.3092  2.1168
 8055TIP3   OH245655   4.802   5.897  13.979  0.1938 -0.4194  0.5990
 8055TIP3    H145656   4.792   5.825  13.917  0.3280 -0.2676  0.3964
 8055TIP3    H245657   4.896   5.901  13.997  0.1467 -0.5058  0.8653
 8056TIP3   OH245658   3.823   0.188  12.459 -0.0385  0.1804 -0.0866
 8056TIP3    H145659   3.793   0.238  12.383 -0.0347 -1.4692 -1.2054
 8056TIP3    H245660   3.742   0.155  12.499  0.0588 -0.7222 -0.6239
 8057TIP3   OH245661   2.014   1.783  13.861 -0.0921 -0.1753  0.9884
 8057TIP3    H145662   2.070   1.792  13.939  0.1839  2.8887  0.5601
 8057TIP3    H245663   1.925   1.776  13.896  0.0401  1.0356  1.6049
 8058TIP3   OH245664   1.339   6.298  12.728  0.2916 -0.4062 -0.1681
 8058TIP3    H145665   1.323   6.384  12.766 -1.6540 -0.7674 -0.0243
 8058TIP3    H245666   1.427   6.275  12.756  0.5583  1.2058  0.4231
 8059TIP3   OH245667   1.788   3.730  14.392 -0.7799 -0.8119 -0.4862
 8059TIP3    H145668   1.855   3.679  14.347  1.3443 -1.0416  2.6507
 8059TIP3    H245669   1.794   3.818  14.354  1.7888 -0.6765  0.0836
 8060TIP3   OH245670   6.810   4.354  12.624  0.0309  0.5401 -0.0666
 8060TIP3    H145671   6.718   4.355  12.597  0.1483  0.5163 -0.4731
 8060TIP3    H245672   6.823   4.269  12.666 -0.6710  1.3403  1.9005
 8061TIP3   OH245673   6.798   2.857  13.938 -0.3652 -0.5763  0.5003
 8061TIP3    H145674   6.755   2.775  13.911 -1.1108 -0.0287 -0.0411
 8061TIP3    H245675   6.848   2.833  14.016  0.5450 -1.8516 -0.4222
 8062TIP3   OH245676   5.773   5.002   5.349 -0.6395  0.1648  0.0053
 8062TIP3    H145677   5.751   5.069   5.414  0.2293 -0.9187  1.4967
 8062TIP3    H245678   5.781   5.050   5.267 -0.1663  1.8799  0.9936
 8063TIP3   OH245679   1.302   2.602  16.959 -0.1037  0.3226  0.3865
 8063TIP3    H145680   1.375   2.613  17.020  1.0163  0.7973 -0.9648
 8063TIP3    H245681   1.238   2.667  16.986 -1.3204 -1.8735  3.2693
 8064TIP3   OH245682   5.371   3.032   5.771  0.0039  0.3098  0.2550
 8064TIP3    H145683   5.423   3.031   5.691 -1.4436 -1.8913 -0.7798
 8064TIP3    H245684   5.288   3.071   5.745 -1.3776 -2.5656 -0.0968
 8065TIP3   OH245685   0.092   4.024   0.794  0.4522 -0.2420 -0.0014
 8065TIP3    H145686   0.123   3.948   0.745 -0.1753 -0.7613  0.3840
 8065TIP3    H245687   0.012   4.051   0.749 -0.1763 -0.7756  0.7565
 8066TIP3   OH245688   5.897   1.046  13.707 -0.1201  0.0726  0.4958
 8066TIP3    H145689   5.925   1.038  13.798 -0.0158  2.3714  0.7193
 8066TIP3    H245690   5.819   1.101  13.711  1.0129  1.9054 -0.9094
 8067TIP3   OH245691   6.080   2.180   5.218 -0.1252 -0.8410 -0.0109
 8067TIP3    H145692   6.099   2.126   5.294  1.0359  0.2678  0.5119
 8067TIP3    H245693   6.025   2.251   5.252  2.5165  1.1532  0.4403
 8068TIP3   OH245694   5.001   6.126   0.379 -0.2937 -0.2333 -0.5951
 8068TIP3    H145695   4.986   6.034   0.356 -1.4897 -1.0908  2.9727
 8068TIP3    H245696   4.921   6.170   0.352  0.3944 -0.0814 -2.5813
 8069TIP3   OH245697   3.009   1.618  13.552 -0.2479  0.1639 -0.1870
 8069TIP3    H145698   3.097   1.588  13.531 -0.1304  0.7056 -0.4702
 8069TIP3    H245699   3.002   1.606  13.647 -0.6518 -1.9293 -0.4312
 8070TIP3   OH245700   3.208   2.231   1.491 -0.0986 -0.0173  0.1777
 8070TIP3    H145701   3.232   2.142   1.515  0.9402  0.7028  2.0052
 8070TIP3    H245702   3.113   2.230   1.484 -0.1559 -1.0998  0.9054
 8071TIP3   OH245703   6.322   5.409   1.326  0.5018 -0.2091  0.5808
 8071TIP3    H145704   6.404   5.372   1.293  1.1005  0.3552  1.4113
 8071TIP3    H245705   6.277   5.440   1.248  0.0965 -2.4019 -0.1420
 8072TIP3   OH245706   0.586   5.536   5.230  0.3322 -0.1699  0.0540
 8072TIP3    H145707   0.675   5.518   5.261 -0.0509 -1.3676  0.5378
 8072TIP3    H245708   0.573   5.629   5.248  1.6918  0.1648 -0.5780
 8073TIP3   OH245709   2.637   2.105   0.400 -0.7907  0.1504  0.1400
 8073TIP3    H145710   2.580   2.176   0.371  0.1814  0.8291 -0.1872
 8073TIP3    H245711   2.719   2.149   0.424  0.3294 -0.9658 -1.4325
 8074TIP3   OH245712   1.906   2.540  11.084  0.3136 -0.1479 -0.3565
 8074TIP3    H145713   1.965   2.539  11.010 -0.5627 -0.2755 -1.0725
 8074TIP3    H245714   1.946   2.601  11.146  0.3401  1.0876 -1.5414
 8075TIP3   OH245715   2.987   4.866   3.919  0.0380 -0.2802  0.5510
 8075TIP3    H145716   2.973   4.939   3.979  0.8447 -0.3671  0.8589
 8075TIP3    H245717   2.901   4.852   3.878 -0.3292  0.2907  1.0995
 8076TIP3   OH245718   6.002   6.831   2.302  0.0228  0.1358  0.0256
 8076TIP3    H145719   6.050   6.849   2.221 -1.1081  0.7419 -0.5379
 8076TIP3    H245720   6.041   6.891   2.366  1.2609 -0.6972  0.0832
 8077TIP3   OH245721   5.383   3.845  16.109 -0.0660  0.0165  0.0350
 8077TIP3    H145722   5.424   3.888  16.184 -1.2503 -1.4360  1.5725
 8077TIP3    H245723   5.319   3.785  16.146 -1.3036 -0.1654 -2.1809
 8078TIP3   OH245724   0.491   6.275   1.346 -0.0910 -0.6091 -0.0565
 8078TIP3    H145725   0.512   6.188   1.311  1.3291 -0.4412  0.3237
 8078TIP3    H245726   0.464   6.325   1.269  0.8369 -0.8796 -0.5774
 8079TIP3   OH245727   1.849   4.740   3.266  0.7156  0.5011 -0.1255
 8079TIP3    H145728   1.798   4.810   3.225 -0.9641 -0.5335  0.0960
 8079TIP3    H245729   1.847   4.760   3.359  0.6365  0.4184 -0.1091
 8080TIP3   OH245730   2.644   2.823   2.212  0.0572  0.0087  0.0273
 8080TIP3    H145731   2.706   2.750   2.222  1.6610  0.9427 -2.3309
 8080TIP3    H245732   2.646   2.868   2.296  0.1734 -1.7722  1.0278
 8081TIP3   OH245733   4.598   5.617  13.999  0.6041 -0.2855  0.7049
 8081TIP3    H145734   4.682   5.646  14.036 -0.8656  1.7927  2.6974
 8081TIP3    H245735   4.533   5.641  14.065 -1.5695 -2.2061 -0.5810
 8082TIP3   OH245736   4.041   2.051   5.994 -0.4034 -0.1504  0.4384
 8082TIP3    H145737   4.125   2.020   6.027  0.2459  2.4280  1.4569
 8082TIP3    H245738   4.065   2.112   5.924 -1.3877  0.7935  0.9048
 8083TIP3   OH245739   4.854   0.279  13.426  0.6626  0.6209 -0.4232
 8083TIP3    H145740   4.763   0.285  13.453  0.4736 -0.0083 -0.9077
 8083TIP3    H245741   4.852   0.281  13.331  0.8800 -2.3622 -0.5757
 8084TIP3   OH245742   2.770   1.561  13.320  0.0186 -0.1606 -0.2740
 8084TIP3    H145743   2.790   1.649  13.351  0.7744 -0.0445 -1.0900
 8084TIP3    H245744   2.850   1.531  13.277 -0.1348 -1.3548  0.2272
 8085TIP3   OH245745   6.425   5.684  14.621 -0.5882 -0.3708 -0.1087
 8085TIP3    H145746   6.500   5.682  14.680 -0.6678  0.0422  0.0097
 8085TIP3    H245747   6.411   5.592  14.598  0.5305 -0.3725 -0.8693
 8086TIP3   OH245748   4.096   0.701   6.315 -0.0793 -0.0667  0.3838
 8086TIP3    H145749   4.034   0.716   6.243 -0.7114 -2.5524  0.2986
 8086TIP3    H245750   4.121   0.609   6.305  1.3337  0.0673  2.2257
 8087TIP3   OH245751   1.263   0.056  13.602 -0.0775  0.3062 -0.0650
 8087TIP3    H145752   1.301   0.105  13.530  1.2405 -0.6811 -0.0822
 8087TIP3    H245753   1.309   0.088  13.680  0.1028 -0.1904  0.0412
 8088TIP3   OH245754   2.323   1.028   0.748 -0.2922 -0.2403 -0.0833
 8088TIP3    H145755   2.341   1.078   0.668 -1.9805 -0.3639 -0.5817
 8088TIP3    H245756   2.314   0.937   0.719 -1.6051 -0.1947  0.1015
 8089TIP3   OH245757   4.789   2.716  14.743 -0.2153  0.4681  0.1517
 8089TIP3    H145758   4.879   2.706  14.714  0.9997  0.1759  3.5911
 8089TIP3    H245759   4.777   2.810  14.754  0.9169  0.3968  2.8171
 8090TIP3   OH245760   0.751   1.142   6.278  0.7829 -0.2902 -0.4277
 8090TIP3    H145761   0.685   1.165   6.343  0.6318  2.9643 -1.5362
 8090TIP3    H245762   0.705   1.085   6.216 -0.7524  1.1350 -0.6579
 8091TIP3   OH245763   1.183   2.355  12.629 -0.4150  0.7464 -0.0783
 8091TIP3    H145764   1.184   2.356  12.725  0.2553 -2.2106  0.0581
 8091TIP3    H245765   1.275   2.345  12.605 -0.7119 -0.0198 -0.9412
 8092TIP3   OH245766   0.937   2.676  16.639 -0.7189  0.0726 -0.0639
 8092TIP3    H145767   0.871   2.744  16.650  0.7510  1.2445  2.1475
 8092TIP3    H245768   1.003   2.716  16.583 -1.3619 -0.7592 -1.4757
 8093TIP3   OH245769   3.777   4.840   2.285  0.5080  0.1382  0.3300
 8093TIP3    H145770   3.860   4.867   2.247  0.3753  0.2191  0.0905
 8093TIP3    H245771   3.761   4.753   2.249 -0.3458  0.8006 -1.0341
 8094TIP3   OH245772   0.558   2.245   5.841  0.3472  0.2931 -0.1412
 8094TIP3    H145773   0.602   2.312   5.893  0.7600 -0.6254  0.7418
 8094TIP3    H245774   0.467   2.247   5.872  0.8041 -0.9575  1.4545
 8095TIP3   OH245775   6.668   6.777   4.960  0.3031 -0.1968  0.2465
 8095TIP3    H145776   6.713   6.804   5.040 -2.4310 -1.6639  2.4440
 8095TIP3    H245777   6.654   6.683   4.971  0.3780 -0.5718 -2.2918
 8096TIP3   OH245778   0.117   3.898   0.428 -0.1907  0.1099  0.6733
 8096TIP3    H145779   0.136   3.828   0.491  0.8685 -0.3054 -0.0766
 8096TIP3    H245780   0.055   3.858   0.366 -0.3692  0.1647  0.8148
 8097TIP3   OH245781   0.433   3.371  14.690 -0.0854 -0.1046  0.7015
 8097TIP3    H145782   0.509   3.382  14.633  1.5888 -1.0375  2.6418
 8097TIP3    H245783   0.449   3.431  14.763 -3.4080  2.9845 -0.7936
 8098TIP3   OH245784   5.635   5.355   4.523 -0.3864 -0.5665 -0.2141
 8098TIP3    H145785   5.682   5.399   4.593 -0.8450  0.7322 -0.6884
 8098TIP3    H245786   5.636   5.263   4.548  2.9305 -0.7394 -0.4938
 8099TIP3   OH245787   5.120   0.116   3.234 -0.1589 -0.1585 -0.2744
 8099TIP3    H145788   5.048   0.178   3.221 -0.1953  0.2398  1.4964
 8099TIP3    H245789   5.086   0.032   3.203 -1.2070  0.1389  0.0155
 8100TIP3   OH245790   1.014   0.039  12.574 -0.0642  0.1681 -0.1657
 8100TIP3    H145791   0.919   0.045  12.584 -0.0834  1.5549 -0.9543
 8100TIP3    H245792   1.031  -0.055  12.568 -1.4475 -0.0878 -0.5379
 8101TIP3   OH245793   5.389   2.229   3.340  0.4663 -0.2857 -0.0288
 8101TIP3    H145794   5.344   2.308   3.370  2.3008  0.5049  0.7654
 8101TIP3    H245795   5.482   2.248   3.352  0.9869 -2.2775 -0.5750
 8102TIP3   OH245796   3.229   2.924   1.287  0.0264  0.7229 -0.0326
 8102TIP3    H145797   3.311   2.965   1.316 -0.0028 -0.0593  1.1932
 8102TIP3    H245798   3.224   2.842   1.336 -0.5146 -0.2063 -1.5584
 8103TIP3   OH245799   4.794   5.974   2.085 -0.0592  0.4071  0.4635
 8103TIP3    H145800   4.723   5.989   2.147 -1.0742  0.3855 -0.6551
 8103TIP3    H245801   4.824   6.062   2.062 -1.3876  0.5382 -0.8968
 8104TIP3   OH245802   4.612   5.087   5.338  0.0442  0.0843 -0.4238
 8104TIP3    H145803   4.590   5.179   5.325 -1.0015 -0.2019 -0.7681
 8104TIP3    H245804   4.527   5.044   5.351  0.4344 -0.9986 -1.3327
 8105TIP3   OH245805   0.946   6.587  12.947 -0.1217  0.1784 -0.5651
 8105TIP3    H145806   0.966   6.679  12.929 -1.4699  0.7791  0.8456
 8105TIP3    H245807   0.851   6.582  12.945 -0.2269 -0.5096  2.3793
 8106TIP3   OH245808   5.015   6.864   5.968  1.1647  0.8439 -0.0069
 8106TIP3    H145809   5.087   6.815   6.007  1.3897  0.2963 -1.0507
 8106TIP3    H245810   4.998   6.936   6.029  0.0098 -1.1759  2.1908
 8107TIP3   OH245811   5.711   6.702   3.780  0.9308 -0.0347 -0.0838
 8107TIP3    H145812   5.737   6.644   3.708  2.0665  1.1439 -0.6671
 8107TIP3    H245813   5.644   6.759   3.742  0.2610 -0.5457  0.3120
 8108TIP3   OH245814   5.637   6.284  16.414  0.1498 -0.0013  0.2191
 8108TIP3    H145815   5.562   6.309  16.361  0.4123  0.6095  0.1321
 8108TIP3    H245816   5.683   6.366  16.432  0.2427 -0.2319  1.1179
 8109TIP3   OH245817   4.621   0.723  16.415 -0.4640 -0.1655  0.1965
 8109TIP3    H145818   4.615   0.804  16.365  0.9839 -0.0907  0.0835
 8109TIP3    H245819   4.712   0.695  16.404 -0.1737 -0.3527  2.4500
 8110TIP3   OH245820   1.115   2.985   0.098  0.1197  0.3650 -0.8156
 8110TIP3    H145821   1.136   2.984   0.004 -0.2088 -1.3806 -0.9020
 8110TIP3    H245822   1.089   3.076   0.115  1.7947  1.1342 -2.0200
 8111TIP3   OH245823   6.323   1.315   0.425 -0.0838 -0.0608 -1.0656
 8111TIP3    H145824   6.316   1.230   0.467 -1.0074  0.4245 -0.1694
 8111TIP3    H245825   6.276   1.305   0.341  0.5420 -0.6523 -1.3465
 8112TIP3   OH245826   4.318   6.405  15.098 -0.0660 -0.0356  0.5209
 8112TIP3    H145827   4.268   6.467  15.150  0.2004 -1.8036  3.1205
 8112TIP3    H245828   4.410   6.430  15.112 -0.0512  1.1730 -1.4848
 8113TIP3   OH245829   3.398   4.831   6.627 -0.3802 -0.3539  0.4419
 8113TIP3    H145830   3.385   4.741   6.656  2.6734 -1.7584 -2.0209
 8113TIP3    H245831   3.493   4.844   6.628 -0.4701  1.6053 -2.4555
 8114TIP3   OH245832   4.809   5.626   5.696 -0.1586 -0.0480  0.0675
 8114TIP3    H145833   4.714   5.610   5.696  0.0317 -1.2990  0.6452
 8114TIP3    H245834   4.823   5.684   5.621 -1.6070  1.7103  1.0673
 8115TIP3   OH245835   0.890   4.848   2.028 -0.4025 -0.0164  0.0751
 8115TIP3    H145836   0.941   4.874   2.106 -0.4850  1.4737 -0.3394
 8115TIP3    H245837   0.910   4.755   2.017  1.1503  0.2003  0.7400
 8116TIP3   OH245838   5.327   4.496   1.602 -0.0777  0.4878  0.1311
 8116TIP3    H145839   5.333   4.422   1.542 -1.8266  0.8387 -0.5483
 8116TIP3    H245840   5.330   4.573   1.545  1.9922  1.0029  0.8476
 8117TIP3   OH245841   5.248   1.030   4.968  0.3401 -0.0013  0.3235
 8117TIP3    H145842   5.216   1.083   5.041  1.4066 -1.9724  2.3507
 8117TIP3    H245843   5.338   1.060   4.954  0.2437  0.1583  0.0495
 8118TIP3   OH245844   6.422   4.538  11.695  0.3616 -0.4699 -0.0569
 8118TIP3    H145845   6.512   4.569  11.685  0.2420 -0.4863 -1.2558
 8118TIP3    H245846   6.380   4.557  11.611 -0.2508 -2.1074 -0.1563
 8119TIP3   OH245847   1.632   6.076  14.363  0.5533  0.1812 -0.1066
 8119TIP3    H145848   1.667   6.066  14.452  1.7234  1.0868 -0.4489
 8119TIP3    H245849   1.701   6.122  14.315 -0.4872  0.6274 -1.2151
 8120TIP3   OH245850   5.492   1.722   1.781  0.2659  0.2213 -0.9488
 8120TIP3    H145851   5.534   1.736   1.696 -0.5271  0.6056 -1.2810
 8120TIP3    H245852   5.480   1.627   1.786 -2.4033  0.3702 -2.6189
 8121TIP3   OH245853   6.049   2.466   2.054 -0.1266  0.4315  0.6184
 8121TIP3    H145854   6.094   2.421   1.983  0.8117 -0.9751  2.0323
 8121TIP3    H245855   6.089   2.553   2.057 -1.2123  1.0843 -1.4619
 8122TIP3   OH245856   3.250   5.247   4.354 -0.0746  0.3409 -0.1795
 8122TIP3    H145857   3.171   5.194   4.343 -0.9837  0.9639  2.5553
 8122TIP3    H245858   3.217   5.336   4.366  0.9839  0.5458  1.4605
 8123TIP3   OH245859   2.763   1.374   3.497 -0.4712  0.0137 -0.5238
 8123TIP3    H145860   2.751   1.341   3.586  1.5200 -2.9680 -1.1952
 8123TIP3    H245861   2.693   1.333   3.446 -0.0233 -0.4665 -0.7648
 8124TIP3   OH245862   0.674   2.815  13.353 -0.4335 -0.0373 -0.8127
 8124TIP3    H145863   0.616   2.821  13.429  0.1868  1.6810 -0.4191
 8124TIP3    H245864   0.641   2.740  13.303 -0.5241 -1.5576  1.3939
 8125TIP3   OH245865   3.002   6.072  11.960 -0.1144  0.4395  0.6169
 8125TIP3    H145866   3.042   5.988  11.940  0.0404  0.3564  1.2586
 8125TIP3    H245867   2.956   6.059  12.043 -0.6542  0.8053  0.3855
 8126TIP3   OH245868   6.446   5.011   0.305  0.4675  0.1186 -0.2298
 8126TIP3    H145869   6.460   4.918   0.286 -0.9715 -0.4877  1.3427
 8126TIP3    H245870   6.533   5.050   0.303  1.4115 -1.7437  1.2830
 8127TIP3   OH245871   5.279   0.807   4.130  0.2311 -0.5353 -0.7270
 8127TIP3    H145872   5.313   0.728   4.087  0.2845 -0.7545 -0.2873
 8127TIP3    H245873   5.354   0.844   4.176 -0.1237 -1.0614  0.3109
 8128TIP3   OH245874   2.863   1.613  12.017  0.1118 -0.3237  0.1802
 8128TIP3    H145875   2.771   1.640  12.018  0.2284  0.8995 -4.0072
 8128TIP3    H245876   2.860   1.518  12.003 -0.6384 -0.1118 -1.3803
 8129TIP3   OH245877   5.887   2.053  14.733  0.5051 -0.0930 -0.6052
 8129TIP3    H145878   5.982   2.051  14.716  0.5215  2.0558 -1.0973
 8129TIP3    H245879   5.851   2.099  14.657 -1.3200 -3.0618 -1.6868
 8130TIP3   OH245880   4.327   6.163  16.931  0.3483  0.1926 -0.0937
 8130TIP3    H145881   4.308   6.164  17.025  0.0237 -0.4857 -0.1462
 8130TIP3    H245882   4.422   6.155  16.926  0.4359  1.0179  0.1765
 8131TIP3   OH245883   2.401   6.790  13.740  0.0239  0.4395  0.3797
 8131TIP3    H145884   2.422   6.854  13.808  0.1108  0.9163 -0.0883
 8131TIP3    H245885   2.312   6.813  13.713  0.8760  1.8718 -1.4218
 8132TIP3   OH245886   2.980   4.541  13.099  0.1408  0.2644  0.1354
 8132TIP3    H145887   3.048   4.595  13.058  0.1345  0.5043  0.4361
 8132TIP3    H245888   2.967   4.468  13.038  0.0098  0.7014 -0.3674
 8133TIP3   OH245889   2.437   1.695   1.255 -0.0899  0.0363 -0.0248
 8133TIP3    H145890   2.486   1.759   1.203 -0.6609  0.2357 -0.3233
 8133TIP3    H245891   2.473   1.703   1.343  2.0018 -1.4077 -0.6778
 8134TIP3   OH245892   6.336   1.633   5.262  0.2773  0.3944 -0.2445
 8134TIP3    H145893   6.385   1.689   5.322 -1.1587  1.3596  0.0799
 8134TIP3    H245894   6.375   1.546   5.272  1.4652  0.9899  0.4663
 8135TIP3   OH245895   0.894   6.422  12.437 -0.0805 -0.2046 -0.3311
 8135TIP3    H145896   0.951   6.361  12.485  0.7726  0.6306 -0.2616
 8135TIP3    H245897   0.918   6.410  12.345  0.5582  0.4953 -0.2593
 8136TIP3   OH245898   0.966   0.301   1.115  0.3073 -0.4813  0.1351
 8136TIP3    H145899   0.986   0.394   1.104  1.4684 -0.6106  0.9708
 8136TIP3    H245900   0.966   0.287   1.210  0.2455 -1.3546  0.0161
 8137TIP3   OH245901   4.891   1.914   3.301 -0.2928 -0.0805  0.9376
 8137TIP3    H145902   4.966   1.910   3.241 -0.9899 -0.8290  0.0887
 8137TIP3    H245903   4.921   1.969   3.373  1.7708 -1.9553  1.6125
 8138TIP3   OH245904   3.412   0.457   3.663  0.3285 -0.1689 -0.5353
 8138TIP3    H145905   3.418   0.505   3.581 -0.3622 -0.5087 -0.7951
 8138TIP3    H245906   3.372   0.373   3.639 -2.6474  0.8064  0.5149
 8139TIP3   OH245907   3.204   5.471  15.021 -0.2605 -0.0137 -0.0528
 8139TIP3    H145908   3.133   5.506  14.967 -0.4583 -1.4751 -0.7881
 8139TIP3    H245909   3.185   5.503  15.109 -2.0337 -0.6458 -0.1663
 8140TIP3   OH245910   2.359   1.448   5.433 -0.2342 -0.4810  0.2071
 8140TIP3    H145911   2.292   1.380   5.435 -1.8304  1.0617  0.4746
 8140TIP3    H245912   2.367   1.470   5.340  0.1848 -0.9115  0.1351
 8141TIP3   OH245913   0.144   2.818  14.105  0.4154 -0.3071 -0.1881
 8141TIP3    H145914   0.122   2.841  14.195  0.9609 -1.9606  0.4030
 8141TIP3    H245915   0.236   2.793  14.108  0.9196  1.2083 -1.5615
 8142TIP3   OH245916   5.784   3.854  14.331  0.1846 -0.0592 -0.1493
 8142TIP3    H145917   5.822   3.911  14.265  2.7067 -2.5903 -1.0977
 8142TIP3    H245918   5.855   3.796  14.357 -1.7785 -1.7654  1.8683
 8143TIP3   OH245919   6.568   2.519   2.296 -0.2008 -0.3907  0.3264
 8143TIP3    H145920   6.588   2.554   2.383 -0.2903 -0.8833  0.5461
 8143TIP3    H245921   6.599   2.429   2.299 -1.5070 -0.8550  0.3284
 8144TIP3   OH245922   4.451   0.430   4.831  0.4487  0.3899 -0.3555
 8144TIP3    H145923   4.494   0.412   4.915 -0.1676  0.8968  0.0775
 8144TIP3    H245924   4.389   0.358   4.821  0.8394  0.0842 -0.5995
 8145TIP3   OH245925   3.153   5.037   3.318 -0.1517  0.8459  0.3923
 8145TIP3    H145926   3.233   5.017   3.367  1.1129  1.2207 -1.4214
 8145TIP3    H245927   3.157   4.980   3.241 -2.3723 -0.1462  0.9404
 8146TIP3   OH245928   4.540   6.405  11.957  0.3518  1.0761  0.3736
 8146TIP3    H145929   4.620   6.427  12.005  0.7415  1.8653 -0.6139
 8146TIP3    H245930   4.475   6.465  11.992  0.5308  1.3613  0.2227
 8147TIP3   OH245931   3.689   1.601  13.378  0.9192 -0.2811 -0.7376
 8147TIP3    H145932   3.735   1.562  13.304  0.9554 -0.2038 -0.7556
 8147TIP3    H245933   3.636   1.529  13.413  0.3297 -0.1306 -1.2959
 8148TIP3   OH245934   3.840   5.216   4.515 -0.1624 -0.2288  0.0587
 8148TIP3    H145935   3.882   5.289   4.562 -1.3019  0.7025 -0.3009
 8148TIP3    H245936   3.841   5.143   4.577 -1.6002  0.9570  1.5874
 8149TIP3   OH245937   3.200   4.089   2.981 -0.9919  0.5498  0.2356
 8149TIP3    H145938   3.105   4.074   2.972 -1.0701  1.9892 -1.8419
 8149TIP3    H245939   3.207   4.146   3.058 -1.9845  1.6163 -0.4240
 8150TIP3   OH245940   3.115   3.478  11.136  0.1393 -0.3079  0.1236
 8150TIP3    H145941   3.058   3.521  11.072 -0.4858 -0.7780  0.3449
 8150TIP3    H245942   3.062   3.475  11.216  1.6047  2.0874  1.3149
 8151TIP3   OH245943   4.088   1.478   4.728 -0.1124  1.3373 -0.1694
 8151TIP3    H145944   4.003   1.451   4.765 -0.8424  1.3293 -1.7863
 8151TIP3    H245945   4.086   1.447   4.638  0.8915  2.8963 -0.7692
 8152TIP3   OH245946   5.599   2.287  16.262 -0.2572 -0.1179  0.1568
 8152TIP3    H145947   5.553   2.370  16.270 -2.9112 -1.3031 -1.3845
 8152TIP3    H245948   5.689   2.307  16.288 -0.9059  3.0583  0.4129
 8153TIP3   OH245949   6.241   5.242   4.092  0.2560 -0.1087 -0.3460
 8153TIP3    H145950   6.147   5.225   4.089  0.0949  0.8382 -1.3324
 8153TIP3    H245951   6.249   5.337   4.105  1.1003 -0.4025  1.6299
 8154TIP3   OH245952   1.175   1.588  11.334  0.1612  0.4792 -0.1627
 8154TIP3    H145953   1.248   1.648  11.318 -0.6658  1.7734  0.7003
 8154TIP3    H245954   1.111   1.608  11.266 -0.3135  0.9348  0.4011
 8155TIP3   OH245955   4.993   0.099  13.593 -0.0814  0.1862  0.4896
 8155TIP3    H145956   5.049   0.079  13.518 -0.8170  0.0558 -0.0354
 8155TIP3    H245957   4.929   0.161  13.559 -0.6822 -0.1977  0.8972
 8156TIP3   OH245958   3.717   6.063   5.015  0.9793  0.2012  0.4820
 8156TIP3    H145959   3.642   6.026   4.969 -0.4058  3.8470 -0.5757
 8156TIP3    H245960   3.788   6.002   4.999 -1.0038 -1.8281 -1.1633
 8157TIP3   OH245961   1.569   0.083  13.570  0.0238  0.6368  0.6313
 8157TIP3    H145962   1.513   0.153  13.537 -0.9283 -1.3561 -2.3799
 8157TIP3    H245963   1.643   0.081  13.509  0.6960 -0.1759  1.4443
 8158TIP3   OH245964   3.858   0.060   1.467  0.6336 -0.0900  0.1569
 8158TIP3    H145965   3.899  -0.007   1.411 -1.3587 -3.4584  2.3442
 8158TIP3    H245966   3.764   0.047   1.455  0.1765  1.4065  1.7204
 8159TIP3   OH245967   5.926   6.703  16.954  0.1526 -0.1649 -0.0141
 8159TIP3    H145968   5.919   6.791  16.993  1.0557 -0.3106  0.5182
 8159TIP3    H245969   5.839   6.685  16.918  0.2947  1.4895 -1.3039
 8160TIP3   OH245970   5.515   5.927   0.256 -0.1816  0.1504  0.4219
 8160TIP3    H145971   5.486   5.929   0.347 -0.5159 -0.4766  0.3369
 8160TIP3    H245972   5.553   6.013   0.241  1.2507 -0.2223  1.6081
 8161TIP3   OH245973   1.317   0.804   4.164  0.1223  0.5902 -0.0502
 8161TIP3    H145974   1.409   0.807   4.141  0.8227 -1.0764  2.1519
 8161TIP3    H245975   1.298   0.710   4.174 -1.2182  0.9928  1.5734
 8162TIP3   OH245976   0.428   3.209  12.268 -0.5899 -0.2205 -0.2170
 8162TIP3    H145977   0.417   3.298  12.301  0.8731  0.0394 -0.3712
 8162TIP3    H245978   0.487   3.167  12.331 -0.5939 -0.8103 -0.6012
 8163TIP3   OH245979   5.672   2.213  14.590 -0.0402 -0.5189  0.0512
 8163TIP3    H145980   5.659   2.121  14.569  1.8949 -1.0512  0.9446
 8163TIP3    H245981   5.700   2.213  14.682  0.2737  0.9331 -0.0156
 8164TIP3   OH245982   4.132   1.410   1.312 -0.1379 -0.2302 -0.5833
 8164TIP3    H145983   4.154   1.504   1.312  1.2659 -0.5318 -1.1768
 8164TIP3    H245984   4.202   1.370   1.364 -1.5875 -0.7953  1.0093
 8165TIP3   OH245985   3.371   1.359  16.237 -0.6126  0.1695  0.8975
 8165TIP3    H145986   3.289   1.383  16.194 -0.1386  1.0971  0.4928
 8165TIP3    H245987   3.361   1.265  16.256 -1.3805  0.0569  0.0117
 8166TIP3   OH245988   4.747   1.663   2.137 -0.1982  0.3378 -0.1092
 8166TIP3    H145989   4.830   1.616   2.141 -0.5812 -0.4171 -0.8060
 8166TIP3    H245990   4.771   1.751   2.109  0.2013 -0.4215 -2.3383
 8167TIP3   OH245991   5.780   3.027   5.488  0.2073 -0.7338 -0.0129
 8167TIP3    H145992   5.702   2.975   5.510  0.3507 -0.3662  1.4389
 8167TIP3    H245993   5.821   3.047   5.572  1.5341 -0.3715 -0.7055
 8168TIP3   OH245994   4.514   4.418   4.773 -0.0961 -0.7170 -0.0772
 8168TIP3    H145995   4.536   4.325   4.773  0.1451 -0.6795  1.3458
 8168TIP3    H245996   4.559   4.453   4.849 -1.7679  0.1750  0.5592
 8169TIP3   OH245997   3.207   1.122  14.282 -0.2794  0.0270 -0.1096
 8169TIP3    H145998   3.177   1.138  14.192  1.6905 -1.5350 -1.1302
 8169TIP3    H245999   3.278   1.185  14.295  0.9951 -1.2408 -0.5771
 8170TIP3   OH246000   5.136   1.276   3.705  0.3404 -0.0218  0.5332
 8170TIP3    H146001   5.130   1.209   3.773  3.9643 -0.6900  0.4316
 8170TIP3    H246002   5.153   1.227   3.624  0.0682  0.9133 -0.1120
 8171TIP3   OH246003   0.865   5.567   5.972  0.4027 -0.0142  0.5404
 8171TIP3    H146004   0.876   5.651   5.928  1.2701 -0.2089  0.3652
 8171TIP3    H246005   0.826   5.588   6.056 -0.3443  0.4596  0.0843
 8172TIP3   OH246006   3.722   1.971   0.565  0.3045 -0.5584 -0.1244
 8172TIP3    H146007   3.654   2.000   0.505 -0.1735  0.5788  0.9277
 8172TIP3    H246008   3.730   2.042   0.629  1.1203 -1.5176  0.8807
 8173TIP3   OH246009   4.097   4.467   1.768  0.5354 -0.5705 -0.0496
 8173TIP3    H146010   4.152   4.441   1.841 -1.5558 -1.0388  1.4673
 8173TIP3    H246011   4.008   4.465   1.803 -0.2656  3.6197 -1.2935
 8174TIP3   OH246012   2.131   6.081  16.814 -0.3678 -0.0845 -0.2521
 8174TIP3    H146013   2.120   6.120  16.900 -1.0198 -0.2551 -0.2528
 8174TIP3    H246014   2.063   6.123  16.760 -2.8630 -2.9601  0.3494
 8175TIP3   OH246015   3.066   1.132  16.091 -0.2451 -0.0644 -0.1526
 8175TIP3    H146016   3.069   1.088  16.176 -0.3244  2.0117  0.9900
 8175TIP3    H246017   2.974   1.127  16.065 -0.1951 -0.8256 -0.2121
 8176TIP3   OH246018   2.934   0.709  16.962 -0.2400  0.0971  0.3170
 8176TIP3    H146019   3.005   0.728  17.023  0.1516  0.0630 -0.1193
 8176TIP3    H246020   2.929   0.613  16.960 -2.2374  0.0776  2.5424
 8177TIP3   OH246021   1.177   1.548   0.808 -0.6654 -0.3055  0.0641
 8177TIP3    H146022   1.257   1.580   0.767 -1.5282  1.0959 -0.5912
 8177TIP3    H246023   1.107   1.599   0.768 -1.8017 -0.7512  1.3881
 8178TIP3   OH246024   1.054   6.848  16.369 -0.4222 -0.3277  0.2860
 8178TIP3    H146025   1.055   6.786  16.441 -0.3934  0.2105  0.7570
 8178TIP3    H246026   1.087   6.798  16.294 -2.1526 -1.4112  0.2000
 8179TIP3   OH246027   1.149   4.433   5.847 -0.3642  0.5640  0.0915
 8179TIP3    H146028   1.153   4.446   5.752 -0.8208 -0.2410 -0.0400
 8179TIP3    H246029   1.234   4.395   5.869 -0.5234  0.1060 -0.0919
 8180TIP3   OH246030   0.650   6.657   4.921  0.4934  0.4670  0.7974
 8180TIP3    H146031   0.606   6.706   4.851  0.6080 -0.1916  0.2469
 8180TIP3    H246032   0.716   6.606   4.875 -0.9887 -1.8219  1.0640
 8181TIP3   OH246033   1.709   2.988   0.937  0.4018 -0.3644 -0.2024
 8181TIP3    H146034   1.659   2.967   1.015 -1.0111  1.4395 -0.5610
 8181TIP3    H246035   1.692   3.080   0.921 -0.5871 -0.9837 -3.4941
 8182TIP3   OH246036   1.284   1.197  16.864  0.8204  0.6039 -0.5385
 8182TIP3    H146037   1.291   1.269  16.926  1.7597  0.1944 -0.1564
 8182TIP3    H246038   1.319   1.121  16.910 -1.6523 -0.5108 -0.3330
 8183TIP3   OH246039   4.127   3.137  11.669 -0.2001 -0.2132 -0.6436
 8183TIP3    H146040   4.129   3.126  11.765  1.2755 -3.0595 -0.8864
 8183TIP3    H246041   4.119   3.231  11.656 -2.0319  0.1397  2.2588
 8184TIP3   OH246042   0.377   4.641  16.585  0.2072  0.5478 -0.0069
 8184TIP3    H146043   0.305   4.578  16.575 -0.5346  1.2674  0.7126
 8184TIP3    H246044   0.366   4.702  16.512 -0.1622  0.8897  0.3294
 8185TIP3   OH246045   0.886   5.894  10.817 -0.0117 -0.1252  0.0540
 8185TIP3    H146046   0.934   5.824  10.861  0.0497 -0.3416 -0.3628
 8185TIP3    H246047   0.830   5.850  10.754 -0.7556  0.1269  0.5213
 8186TIP3   OH246048   3.205   1.742  11.395  0.6213 -0.2598  0.4333
 8186TIP3    H146049   3.166   1.825  11.421 -1.2196 -0.5859 -1.1146
 8186TIP3    H246050   3.203   1.743  11.299 -2.1134 -3.1924  0.2945
 8187TIP3   OH246051   3.772   5.604   4.093  0.8969 -0.1101  0.0938
 8187TIP3    H146052   3.835   5.671   4.067 -0.2307  0.3664 -1.6070
 8187TIP3    H246053   3.810   5.564   4.171  3.3997 -0.0178 -0.9737
 8188TIP3   OH246054   4.752   5.584  13.683  0.1026  0.3401  0.2243
 8188TIP3    H146055   4.766   5.675  13.659  0.3988 -0.0621 -1.2243
 8188TIP3    H246056   4.827   5.537  13.645  0.4727 -0.3882  1.7821
 8189TIP3   OH246057   2.203   5.642  13.395  0.3827 -0.2146  0.2549
 8189TIP3    H146058   2.131   5.585  13.370  0.9426 -0.4506 -0.8924
 8189TIP3    H246059   2.192   5.655  13.489 -0.9158 -0.5599  0.1674
 8190TIP3   OH246060   1.224   2.672  11.431 -0.2948  0.4622 -0.1504
 8190TIP3    H146061   1.225   2.577  11.443  0.6968  0.3040 -1.2850
 8190TIP3    H246062   1.227   2.684  11.336 -0.3011  1.6321 -0.0171
 8191TIP3   OH246063   5.248   4.238   5.248  0.1185 -0.6418 -0.2202
 8191TIP3    H146064   5.221   4.300   5.316  0.8242 -0.8364  0.2571
 8191TIP3    H246065   5.295   4.169   5.297 -2.4441 -2.7082 -0.4156
 8192TIP3   OH246066   4.367   4.166   2.804 -0.2018 -0.5324  0.1322
 8192TIP3    H146067   4.421   4.204   2.734  0.1880 -2.4555 -0.6852
 8192TIP3    H246068   4.392   4.074   2.806  0.5932 -0.3561  3.6038
 8193TIP3   OH246069   2.817   6.445  10.421  0.2532  0.1355  0.6952
 8193TIP3    H146070   2.852   6.518  10.369 -0.6205  0.8126  1.0216
 8193TIP3    H246071   2.770   6.391  10.358 -0.8419  0.9780  0.7666
 8194TIP3   OH246072   0.946   1.019  10.752  0.0162  0.4233 -0.3054
 8194TIP3    H146073   0.859   1.052  10.728  0.8530  2.3151 -0.9747
 8194TIP3    H246074   1.001   1.042  10.677  1.1542 -0.4993  0.2267
 8195TIP3   OH246075   5.078   2.201  12.823 -0.4076  0.1153 -0.1223
 8195TIP3    H146076   5.045   2.111  12.825 -0.3500  0.0500 -1.2045
 8195TIP3    H246077   5.167   2.193  12.787 -0.2228  0.5566  0.2289
 8196TIP3   OH246078   3.631   0.446  12.272  0.2143 -0.4066  0.4646
 8196TIP3    H146079   3.712   0.498  12.271 -0.4950  1.0349  3.8761
 8196TIP3    H246080   3.589   0.465  12.188  1.8293  1.4599 -0.0009
 8197TIP3   OH246081   0.798   5.569  15.142 -0.4393  0.1383  0.4886
 8197TIP3    H146082   0.833   5.497  15.090 -0.8762  0.9106 -0.9573
 8197TIP3    H246083   0.728   5.529  15.194 -1.1277 -0.4033 -0.7870
 8198TIP3   OH246084   1.364   5.595  11.453  0.3749  0.5641 -0.5610
 8198TIP3    H146085   1.304   5.527  11.486 -0.2961  0.3576 -2.1425
 8198TIP3    H246086   1.450   5.553  11.454  0.2306  0.2597  0.0097
 8199TIP3   OH246087   3.491   6.221   4.757  0.6766  0.5579  0.0685
 8199TIP3    H146088   3.462   6.261   4.675 -3.8473  1.4204  1.8041
 8199TIP3    H246089   3.480   6.127   4.742 -0.2270  0.7093 -0.3495
 8200TIP3   OH246090   5.014   2.228  11.337  0.2742  0.1003  0.3583
 8200TIP3    H146091   4.968   2.293  11.283 -1.4048 -1.1118  0.2365
 8200TIP3    H246092   5.007   2.147  11.287  1.4815 -0.3845  0.9567
 8201TIP3   OH246093   0.761   0.771  12.033 -0.3929  0.5199 -0.1782
 8201TIP3    H146094   0.711   0.815  11.965  1.7212 -0.2520 -2.3931
 8201TIP3    H246095   0.819   0.711  11.985  2.0802  0.8037  2.1958
 8202TIP3   OH246096   3.663   2.023   6.288 -0.3202 -0.8266 -0.5198
 8202TIP3    H146097   3.568   2.029   6.278 -0.2455  0.6594 -0.6345
 8202TIP3    H246098   3.677   2.025   6.383 -0.3563  0.6844 -0.5173
 8203TIP3   OH246099   2.210   0.250  13.899 -0.5184  0.4718 -0.4002
 8203TIP3    H146100   2.255   0.259  13.815 -3.1614  5.6778 -1.7157
 8203TIP3    H246101   2.280   0.257  13.964  1.1799  2.0819 -2.2515
 8204TIP3   OH246102   5.590   2.389  16.768  0.9431 -0.2889 -0.0738
 8204TIP3    H146103   5.640   2.314  16.736 -0.3629 -2.1725  2.0056
 8204TIP3    H246104   5.513   2.351  16.809 -0.2379  2.2785  0.3153
 8205TIP3   OH246105   4.862   4.561   4.832  1.0971 -0.3429 -0.4571
 8205TIP3    H146106   4.949   4.544   4.868  0.9219  0.2818  0.2985
 8205TIP3    H246107   4.802   4.534   4.900  0.7778  1.6076  0.1033
 8206TIP3   OH246108   4.172   1.060   6.030 -0.9569 -0.9010  0.4287
 8206TIP3    H146109   4.208   0.983   6.076 -0.5704 -2.1375 -1.8040
 8206TIP3    H246110   4.248   1.112   6.007 -1.0368 -0.9262  0.1066
 8207TIP3   OH246111   3.679   3.415   0.092  0.6979 -0.6103 -0.5798
 8207TIP3    H146112   3.668   3.485   0.028  1.5900  0.3354  0.2651
 8207TIP3    H246113   3.747   3.358   0.054  2.0127  0.5348 -0.0274
 8208TIP3   OH246114   1.154   0.746  12.151 -0.0128  0.3299 -0.2273
 8208TIP3    H146115   1.166   0.711  12.239 -0.7930  1.1027  0.1935
 8208TIP3    H246116   1.121   0.672  12.100  1.6257 -0.4699 -0.2022
 8209TIP3   OH246117   4.038   4.968   2.169  0.3921 -0.0636 -0.3425
 8209TIP3    H146118   4.082   5.005   2.092  3.3927 -1.9462  0.3201
 8209TIP3    H246119   4.062   4.876   2.169  0.9820 -0.0514  3.0902
 8210TIP3   OH246120   4.074   4.572   3.663  0.0610  0.7662 -0.2174
 8210TIP3    H146121   4.020   4.495   3.643  1.0060 -0.0744  0.4259
 8210TIP3    H246122   4.070   4.579   3.758  0.1947  1.3697 -0.2564
 8211TIP3   OH246123   6.372   4.854  17.053 -0.0234  0.5618 -0.0834
 8211TIP3    H146124   6.444   4.915  17.066 -0.5763  1.0370  0.8610
 8211TIP3    H246125   6.336   4.877  16.967  0.9258  0.3211 -0.5625
 8212TIP3   OH246126   4.038   5.108  15.392 -0.2755 -0.3876  0.1072
 8212TIP3    H146127   4.036   5.128  15.298 -0.7731 -0.3512  0.1226
 8212TIP3    H246128   3.974   5.168  15.431  1.2849  0.9430  0.7471
 8213TIP3   OH246129   1.025   0.483  15.568 -0.2339  0.4467 -0.5969
 8213TIP3    H146130   0.955   0.438  15.521 -0.3156  0.2184 -0.2560
 8213TIP3    H246131   1.037   0.432  15.648 -0.5691  1.2346 -0.0401
 8214TIP3   OH246132   6.075   5.616   5.026  0.2694  0.2381  0.1724
 8214TIP3    H146133   6.018   5.558   5.077 -1.1221  1.4677  0.0981
 8214TIP3    H246134   6.095   5.567   4.946 -3.0576  0.7439 -1.1303
 8215TIP3   OH246135   1.855   4.058   4.497  0.1976 -0.0824 -0.0637
 8215TIP3    H146136   1.817   3.972   4.477 -1.2678  0.4054  0.4474
 8215TIP3    H246137   1.804   4.089   4.573  0.5214  1.3371 -0.3979
 8216TIP3   OH246138   2.209   4.287  16.773 -0.6165 -0.2935 -0.4318
 8216TIP3    H146139   2.270   4.223  16.736 -0.3650 -0.1406 -0.2906
 8216TIP3    H246140   2.155   4.237  16.834 -1.3379 -0.6332 -1.3455
 8217TIP3   OH246141   1.881   0.782   2.757  0.2815 -0.1050  0.7109
 8217TIP3    H146142   1.790   0.806   2.770  0.1285  1.8444 -2.9163
 8217TIP3    H246143   1.929   0.833   2.822 -0.9945  1.2379  0.6324
 8218TIP3   OH246144   6.532   2.488   5.441  0.7576 -0.3918 -0.0846
 8218TIP3    H146145   6.461   2.444   5.395 -0.3827  0.9141  0.3414
 8218TIP3    H246146   6.506   2.485   5.534  2.4612 -1.9818  0.4016
 8219TIP3   OH246147   5.666   6.581   2.168  0.5438  0.4248  0.4281
 8219TIP3    H146148   5.694   6.505   2.219 -0.6755 -1.5893 -1.7122
 8219TIP3    H246149   5.571   6.570   2.160  0.4384  1.8122 -0.5054
 8220TIP3   OH246150   2.467   3.189  17.074 -0.1333 -0.2065  0.0379
 8220TIP3    H146151   2.381   3.212  17.040 -0.3483  0.3175  0.9073
 8220TIP3    H246152   2.499   3.121  17.014 -1.7703 -1.4852  0.5389
 8221TIP3   OH246153   6.286   0.626  13.877  0.0097  0.6436  0.1757
 8221TIP3    H146154   6.291   0.715  13.842 -1.6313  0.0462 -1.8092
 8221TIP3    H246155   6.193   0.614  13.897 -0.1510 -1.2081 -1.3793
 8222TIP3   OH246156   5.816   2.717   3.145  0.3699  0.1743  0.0999
 8222TIP3    H146157   5.827   2.794   3.201  0.7648  0.8499 -0.8665
 8222TIP3    H246158   5.822   2.643   3.205 -1.6154  0.8953  1.3171
 8223TIP3   OH246159   5.681   0.404   2.940 -0.0057 -0.1441  0.1740
 8223TIP3    H146160   5.766   0.442   2.963 -0.2231  0.6028 -0.2019
 8223TIP3    H246161   5.703   0.326   2.889  0.4567 -1.0420  1.7044
 8224TIP3   OH246162   2.908   4.782   0.531  0.1263  0.6314  0.2357
 8224TIP3    H146163   2.833   4.818   0.579  0.4323 -0.8434  1.9306
 8224TIP3    H246164   2.982   4.835   0.559  0.1647  0.3014  0.7752
 8225TIP3   OH246165   6.779   3.297  13.676 -0.8035  0.2392 -0.5957
 8225TIP3    H146166   6.838   3.241  13.726 -0.6366 -1.1261 -2.1993
 8225TIP3    H246167   6.695   3.251  13.679 -0.9652  0.5060 -0.9688
 8226TIP3   OH246168   1.437   3.964  13.233 -0.4729 -0.7547 -0.3594
 8226TIP3    H146169   1.503   3.896  13.218 -0.5795 -1.0731  0.5470
 8226TIP3    H246170   1.392   3.973  13.149 -0.8600 -2.2411 -0.3331
 8227TIP3   OH246171   5.743   1.042  15.523  0.7579 -0.1424 -0.4496
 8227TIP3    H146172   5.675   1.057  15.457  0.5191  0.1398 -0.1438
 8227TIP3    H246173   5.823   1.029  15.472  0.4640 -0.5414 -0.8150
 8228TIP3   OH246174   1.412   3.398  11.153  0.2034 -0.7731  0.8004
 8228TIP3    H146175   1.323   3.405  11.187  0.1426 -1.4334  0.8033
 8228TIP3    H246176   1.404   3.340  11.078  0.2280  1.1955 -0.7961
 8229TIP3   OH246177   3.937   3.042   3.821 -0.1248  0.1717  0.1812
 8229TIP3    H146178   3.889   3.109   3.870 -0.6444  0.5749 -0.8658
 8229TIP3    H246179   3.883   2.964   3.829  1.1555 -0.5844  2.5988
 8230TIP3   OH246180   3.232   2.597  16.323  0.2700 -0.0108 -0.7849
 8230TIP3    H146181   3.211   2.519  16.376  1.3733 -0.0307 -0.3393
 8230TIP3    H246182   3.271   2.658  16.385  0.2980  0.5283 -1.3226
 8231TIP3   OH246183   0.718   0.980  12.504  0.0784 -0.4841 -0.3235
 8231TIP3    H146184   0.774   0.931  12.443  0.9659 -0.6251  0.5685
 8231TIP3    H246185   0.763   0.972  12.588 -0.5276  0.6529  0.1243
 8232TIP3   OH246186   6.516   3.109   0.503  0.1568  0.1284  0.4305
 8232TIP3    H146187   6.556   3.025   0.522 -1.8063 -1.1285 -0.6387
 8232TIP3    H246188   6.423   3.089   0.488 -0.9363  2.8264  2.6173
 8233TIP3   OH246189   5.488   5.958   4.570 -0.0831  0.1683 -0.1723
 8233TIP3    H146190   5.517   5.881   4.521 -0.6006 -1.1446  1.5222
 8233TIP3    H246191   5.412   5.990   4.521 -1.8971 -2.3557  0.8174
 8234TIP3   OH246192   5.509   5.533   1.716 -0.3731  0.5154 -0.3883
 8234TIP3    H146193   5.418   5.547   1.744 -0.1875  0.1057  0.4668
 8234TIP3    H246194   5.557   5.607   1.752 -0.0715 -0.1948  0.7499
 8235TIP3   OH246195   3.285   6.690   4.454  0.1169  0.5143  0.3214
 8235TIP3    H146196   3.290   6.691   4.358  0.5655  0.7221  0.3449
 8235TIP3    H246197   3.370   6.655   4.481  0.0319  0.5632  0.6474
 8236TIP3   OH246198   5.070   6.787   3.042  0.2722  0.3671 -0.0710
 8236TIP3    H146199   5.115   6.705   3.063 -0.2936 -0.1353 -0.7622
 8236TIP3    H246200   4.992   6.760   2.994  1.7069  1.4348 -3.2454
 8237TIP3   OH246201   6.003   5.375   3.024 -0.2731  0.0972 -0.5135
 8237TIP3    H146202   5.935   5.372   3.092  1.2507  1.6534  1.1868
 8237TIP3    H246203   6.085   5.376   3.073  1.0794 -2.0865 -2.5181
 8238TIP3   OH246204   0.854   0.807   4.820 -0.1606 -0.4005  0.1327
 8238TIP3    H146205   0.837   0.715   4.842 -1.8843  0.1226  1.2372
 8238TIP3    H246206   0.781   0.831   4.762  0.7496  0.0465 -0.8482
 8239TIP3   OH246207   4.386   2.871   5.776  0.4340  0.0035 -0.0062
 8239TIP3    H146208   4.301   2.831   5.797 -0.0778  0.4638 -1.1319
 8239TIP3    H246209   4.402   2.932   5.849 -0.2303 -0.0475  0.1874
 8240TIP3   OH246210   5.438   3.433   1.712  0.6993 -0.1577  0.0088
 8240TIP3    H146211   5.511   3.452   1.653  2.6865 -2.4237  1.5345
 8240TIP3    H246212   5.422   3.339   1.699 -1.7622  0.2128 -0.0113
 8241TIP3   OH246213   4.128   6.488  10.373 -0.0252 -0.3197  0.1528
 8241TIP3    H146214   4.160   6.418  10.429  0.0379 -0.1020  0.3946
 8241TIP3    H246215   4.102   6.557  10.434 -1.3199 -0.6316 -0.0197
 8242TIP3   OH246216   1.408   2.101  15.130 -0.4505  0.5123 -0.1083
 8242TIP3    H146217   1.316   2.075  15.123 -0.5523 -0.2447  2.7816
 8242TIP3    H246218   1.408   2.172  15.194  1.1342 -0.9163  1.5867
 8243TIP3   OH246219   3.085   5.983   0.910 -0.5773  0.2029 -0.4361
 8243TIP3    H146220   3.079   6.071   0.945 -0.9769  0.4904 -1.1944
 8243TIP3    H246221   3.137   5.992   0.830  1.4861 -0.6540  0.7522
 8244TIP3   OH246222   4.110   6.093  11.426  0.0505  0.4156  0.7828
 8244TIP3    H146223   4.151   6.093  11.512  0.8103 -1.9018  0.4766
 8244TIP3    H246224   4.182   6.081  11.364 -0.8406 -3.0295  0.1917
 8245TIP3   OH246225   2.038   2.537  15.234 -0.7189  0.2891 -0.1464
 8245TIP3    H146226   1.954   2.503  15.203 -0.9052  1.0863 -0.5361
 8245TIP3    H246227   2.027   2.548  15.328 -0.2615 -1.8282  0.2175
 8246TIP3   OH246228   6.778   4.931   1.447 -0.3551  0.3334 -0.1005
 8246TIP3    H146229   6.806   4.866   1.383  0.1009  1.0372 -0.6329
 8246TIP3    H246230   6.749   4.880   1.523  2.2352 -0.4851  0.4392
 8247TIP3   OH246231   1.188   0.106  11.659  0.2055  0.0881 -0.4385
 8247TIP3    H146232   1.194   0.127  11.753  3.5112 -0.6881 -0.3686
 8247TIP3    H246233   1.199   0.011  11.655 -0.7840 -0.0022 -1.5997
 8248TIP3   OH246234   0.928   4.200  11.472  0.6562 -0.5506 -0.3667
 8248TIP3    H146235   0.873   4.148  11.414 -1.9251  2.7233 -1.1946
 8248TIP3    H246236   0.910   4.166  11.560 -1.1687 -0.8504 -0.8323
 8249TIP3   OH246237   0.632   0.241   2.175  0.5101  0.1372 -0.1422
 8249TIP3    H146238   0.576   0.200   2.241 -1.3916  1.3149 -0.9504
 8249TIP3    H246239   0.686   0.302   2.225  0.2629 -0.1851  0.5321
 8250TIP3   OH246240   4.272   3.802   3.592  0.1826 -0.1084  0.6058
 8250TIP3    H146241   4.354   3.851   3.594  0.4941 -0.6106  3.1235
 8250TIP3    H246242   4.298   3.710   3.585 -0.2026 -0.1941  0.2748
 8251TIP3   OH246243   0.349   2.902   3.351 -0.1308  0.3900 -0.4088
 8251TIP3    H146244   0.294   2.965   3.303 -1.8396 -1.2228 -0.6598
 8251TIP3    H246245   0.351   2.824   3.295  2.3050  0.2937 -0.3021
 8252TIP3   OH246246   2.151   4.393  16.523 -0.1251  0.3961 -0.3661
 8252TIP3    H146247   2.060   4.394  16.495 -0.3579 -0.5275  0.3086
 8252TIP3    H246248   2.146   4.382  16.618  0.6956 -0.2190 -0.3873
 8253TIP3   OH246249   0.381   2.736  14.229  0.3752 -0.2765  0.2714
 8253TIP3    H146250   0.407   2.649  14.198  0.9226 -0.7080  1.8524
 8253TIP3    H246251   0.451   2.762  14.289 -0.7223  0.4164  1.2934
 8254TIP3   OH246252   4.973   2.835  16.762 -0.1720  1.2116 -0.0027
 8254TIP3    H146253   4.969   2.894  16.837 -0.3631 -0.4357  1.3441
 8254TIP3    H246254   5.035   2.767  16.789  1.1558  1.5099 -2.0659
 8255TIP3   OH246255   1.850   1.117   0.873 -0.3987 -0.3372 -0.4929
 8255TIP3    H146256   1.935   1.076   0.890 -0.2864 -0.4474 -1.2874
 8255TIP3    H246257   1.808   1.122   0.959  1.5355  2.3060  0.4043
 8256TIP3   OH246258   0.075   5.604  16.456 -0.0889  0.3717  0.2236
 8256TIP3    H146259   0.113   5.585  16.541  1.0869 -1.8293 -0.7194
 8256TIP3    H246260   0.046   5.696  16.462 -0.1080  0.2506  2.9575
 8257TIP3   OH246261   2.001   3.322  14.589  0.7163 -0.2527  0.1150
 8257TIP3    H146262   1.917   3.287  14.560 -0.3430  0.9929  1.5186
 8257TIP3    H246263   2.012   3.287  14.677  0.9612  0.7471  0.4858
 8258TIP3   OH246264   3.294   0.112  14.060  0.0263  0.5613  0.0645
 8258TIP3    H146265   3.277   0.162  14.140  1.0277 -0.4150  0.9244
 8258TIP3    H246266   3.209   0.109  14.015 -1.4303 -1.5101  2.6319
 8259TIP3   OH246267   6.368   4.478  14.795 -0.2115 -0.2238 -0.1145
 8259TIP3    H146268   6.393   4.440  14.879 -1.3257 -1.2301 -0.2097
 8259TIP3    H246269   6.443   4.463  14.738  0.0952 -0.5764  0.3805
 8260TIP3   OH246270   2.934   2.904   6.630 -0.0034 -0.1976 -0.3471
 8260TIP3    H146271   2.954   2.817   6.597 -1.5443 -0.6077 -0.2817
 8260TIP3    H246272   3.002   2.960   6.592  1.6903 -1.5650  0.5097
 8261TIP3   OH246273   4.998   1.371   0.601  0.2519 -0.4402  0.1189
 8261TIP3    H146274   5.041   1.440   0.550  1.3623 -1.5615 -0.5300
 8261TIP3    H246275   5.005   1.293   0.546 -1.2786 -1.0076  0.6942
 8262TIP3   OH246276   0.056   2.438  13.913 -0.8350 -0.3124  0.8200
 8262TIP3    H146277   0.030   2.361  13.964  0.1907 -0.4702  1.1422
 8262TIP3    H246278   0.150   2.446  13.929 -0.9751  1.1750  1.0092
 8263TIP3   OH246279   6.189   6.852  15.678 -0.3272  0.0055 -0.4107
 8263TIP3    H146280   6.170   6.781  15.617  1.4475  0.2578 -1.3047
 8263TIP3    H246281   6.240   6.915  15.627 -0.8473  1.3750  0.6902
 8264TIP3   OH246282   1.052   5.494  13.987 -0.1381 -0.3581  0.2971
 8264TIP3    H146283   0.968   5.511  13.944 -0.0262 -1.4940 -0.4146
 8264TIP3    H246284   1.111   5.561  13.952 -0.4811 -0.2348 -0.0488
 8265TIP3   OH246285   2.298   6.676  14.910  0.4083 -0.1156  0.0895
 8265TIP3    H146286   2.371   6.706  14.857  1.1108 -1.4125  0.2759
 8265TIP3    H246287   2.328   6.685  15.001  0.3572 -0.6789  0.1684
 8266TIP3   OH246288   6.039   0.604   4.736 -0.1209  0.0926  0.0771
 8266TIP3    H146289   5.996   0.616   4.651 -0.9640  0.4188  0.5320
 8266TIP3    H246290   6.103   0.675   4.741 -0.8009  0.7143  0.1483
 8267TIP3   OH246291   1.381   2.355   1.217  0.5527 -0.0727  0.0198
 8267TIP3    H146292   1.351   2.426   1.273 -0.5446 -2.5590  2.8217
 8267TIP3    H246293   1.301   2.307   1.193  1.4539 -1.9181  0.5260
 8268TIP3   OH246294   5.870   0.638   5.002  0.2225 -0.7472  0.5997
 8268TIP3    H146295   5.824   0.692   4.938  0.3585  0.2708  1.3294
 8268TIP3    H246296   5.932   0.587   4.950  1.1191  0.8786 -0.0015
 8269TIP3   OH246297   4.413   2.543   4.555  0.3232  0.6005  0.1273
 8269TIP3    H146298   4.328   2.588   4.552  0.2887  0.4915 -0.8811
 8269TIP3    H246299   4.470   2.603   4.604 -0.4988  0.3724  1.4070
 8270TIP3   OH246300   0.764   6.796  11.983 -0.1508 -0.2011 -0.3303
 8270TIP3    H146301   0.729   6.710  12.007  1.6518 -0.8676  0.0588
 8270TIP3    H246302   0.744   6.852  12.058 -1.7669 -0.1140 -0.7876
 8271TIP3   OH246303   0.341   4.519   3.038 -0.1527  0.0992 -0.4450
 8271TIP3    H146304   0.289   4.589   3.076  0.7295  0.5080  0.0393
 8271TIP3    H246305   0.325   4.443   3.095  0.3119  0.4136  0.1142
 8272TIP3   OH246306   6.709   3.722  15.107  0.0185 -0.2421 -0.0127
 8272TIP3    H146307   6.744   3.654  15.050 -0.5062  0.0089 -0.6457
 8272TIP3    H246308   6.733   3.805  15.065 -0.8112 -0.0600 -0.1551
 8273TIP3   OH246309   1.776   1.258   2.952 -0.6832 -0.7274 -0.5909
 8273TIP3    H146310   1.820   1.277   2.869  0.1054 -0.4979 -0.1366
 8273TIP3    H246311   1.690   1.300   2.944  1.1130  3.7286  0.5205
 8274TIP3   OH246312   3.659   5.168  16.397 -0.6899  0.1554 -0.1355
 8274TIP3    H146313   3.692   5.187  16.485 -0.6070  0.0583 -0.1471
 8274TIP3    H246314   3.566   5.191  16.401 -0.4575  1.1732 -0.3283
 8275TIP3   OH246315   4.640   1.434   0.016 -0.1844  0.1954  0.5897
 8275TIP3    H146316   4.630   1.466  -0.073 -2.1774  1.1930  1.1008
 8275TIP3    H246317   4.600   1.347   0.015  0.1102  0.0612  0.4377
 8276TIP3   OH246318   5.143   5.396  14.219 -0.0291 -0.0228 -0.0596
 8276TIP3    H146319   5.140   5.429  14.308  1.4676 -0.0119  0.0052
 8276TIP3    H246320   5.053   5.369  14.201 -0.5385  0.8090  1.1201
 8277TIP3   OH246321   0.159   3.529   0.506 -0.2001  0.2097 -0.4518
 8277TIP3    H146322   0.116   3.545   0.590 -0.5175 -0.5121 -0.4637
 8277TIP3    H246323   0.249   3.504   0.529  0.1899  1.5737 -0.4187
 8278TIP3   OH246324   3.395   0.770  10.756  0.5711  0.6898 -0.6141
 8278TIP3    H146325   3.370   0.678  10.755 -0.8773  0.6686  4.7018
 8278TIP3    H246326   3.491   0.769  10.763  0.5191 -0.5300  0.2963
 8279TIP3   OH246327   2.318   0.636   3.956 -0.0113 -0.5595  0.3993
 8279TIP3    H146328   2.385   0.647   4.023  0.0606 -0.7339  0.3561
 8279TIP3    H246329   2.363   0.651   3.873 -0.7789  3.0792  0.4889
 8280TIP3   OH246330   2.624   4.827   5.147  0.1153  0.1276 -0.5758
 8280TIP3    H146331   2.638   4.759   5.081 -2.0617 -0.2421 -0.7233
 8280TIP3    H246332   2.672   4.796   5.224  1.0832 -0.3996 -1.3743
 8281TIP3   OH246333   1.982   1.883   1.223  0.5318  0.1300  0.0817
 8281TIP3    H146334   1.943   1.933   1.151 -2.4249  0.7607  1.9533
 8281TIP3    H246335   2.048   1.942   1.260 -0.2720  1.1381 -0.0599
 8282TIP3   OH246336   5.148   0.857  16.910 -0.0855  0.0811 -0.3429
 8282TIP3    H146337   5.202   0.794  16.862  0.1952 -0.7327  0.9740
 8282TIP3    H246338   5.209   0.925  16.937  0.2697 -0.6718  0.8606
 8283TIP3   OH246339   3.623   1.217  11.301  0.3311 -0.5440  0.0502
 8283TIP3    H146340   3.622   1.307  11.335  0.9800 -0.1512 -0.9075
 8283TIP3    H246341   3.537   1.182  11.325  0.5095 -0.0736  1.4592
 8284TIP3   OH246342   4.397   1.131   5.649  0.0555 -0.3304 -0.1010
 8284TIP3    H146343   4.365   1.147   5.560 -0.3569  0.3565  0.1586
 8284TIP3    H246344   4.345   1.190   5.704  0.1465 -0.9140  0.6267
 8285TIP3   OH246345   1.186   4.558   0.625  0.1839  0.4503 -0.1664
 8285TIP3    H146346   1.238   4.630   0.589 -0.5671  0.6707 -0.8394
 8285TIP3    H246347   1.096   4.577   0.598  0.0838 -1.2414 -1.1970
 8286TIP3   OH246348   0.451   6.517   5.917 -0.1375  0.5627 -0.5250
 8286TIP3    H146349   0.545   6.531   5.902  0.2721 -2.0371 -0.8988
 8286TIP3    H246350   0.415   6.506   5.830 -0.5290  0.2094 -0.3198
 8287TIP3   OH246351   3.412   0.813  12.091  0.1823 -0.3590 -0.4504
 8287TIP3    H146352   3.345   0.853  12.037  0.7656  0.7418 -0.3806
 8287TIP3    H246353   3.495   0.844  12.055  0.5870  0.2469  0.9295
 8288TIP3   OH246354   3.215   2.780   2.568  0.3108  0.3187 -0.3751
 8288TIP3    H146355   3.131   2.773   2.524  0.4746 -0.5061 -0.5753
 8288TIP3    H246356   3.238   2.690   2.590 -0.8184  0.7482  3.3950
 8289TIP3   OH246357   3.504   0.334  15.315  0.6036 -0.2396  0.3365
 8289TIP3    H146358   3.539   0.387  15.243  1.2022 -3.1170 -1.6435
 8289TIP3    H246359   3.554   0.362  15.392  2.6378  0.3582 -1.1214
 8290TIP3   OH246360   5.807   6.654  12.306  0.3965  0.3376  0.4794
 8290TIP3    H146361   5.730   6.687  12.259  1.2528  3.1155  0.8793
 8290TIP3    H246362   5.842   6.586  12.248 -0.3282  1.4986 -1.4147
 8291TIP3   OH246363   4.093   0.306   3.378  0.0620  0.2626 -0.2686
 8291TIP3    H146364   4.151   0.230   3.371  1.6453  1.2421  1.3539
 8291TIP3    H246365   4.082   0.319   3.472 -4.9931 -1.3717 -0.3170
 8292TIP3   OH246366   3.402   0.836  16.268 -0.0803  0.2334 -0.2200
 8292TIP3    H146367   3.354   0.877  16.197  1.1280 -0.7364 -1.6653
 8292TIP3    H246368   3.340   0.774  16.306  0.1313 -1.4892 -2.4761
 8293TIP3   OH246369   2.637   5.771  15.935  0.2003 -0.4781  0.2843
 8293TIP3    H146370   2.648   5.682  15.967 -1.0154 -0.1177  1.8353
 8293TIP3    H246371   2.560   5.804  15.982  0.7046  1.4346 -0.1484
 8294TIP3   OH246372   3.938   3.919  12.021 -1.0087 -0.0389 -0.7347
 8294TIP3    H146373   3.987   3.846  12.059  0.0515 -0.4202 -2.6889
 8294TIP3    H246374   3.881   3.949  12.091  1.5999  0.0602  1.5450
 8295TIP3   OH246375   3.234   0.565  10.734  0.0922  0.0989  0.2675
 8295TIP3    H146376   3.180   0.578  10.812  1.8684 -1.3004  1.8205
 8295TIP3    H246377   3.183   0.504  10.680 -0.6145  0.1026  0.9167
 8296TIP3   OH246378   6.447   1.193   3.190  0.2663  0.3241  0.6785
 8296TIP3    H146379   6.359   1.175   3.222 -0.5207  2.8046  0.1666
 8296TIP3    H246380   6.493   1.230   3.266  0.9492 -1.0515  0.9722
 8297TIP3   OH246381   2.822   5.966   5.333  0.2190 -0.0288  0.0160
 8297TIP3    H146382   2.798   6.052   5.368  0.0241  1.4874 -3.4023
 8297TIP3    H246383   2.742   5.914   5.341  0.2173  0.1670  1.7538
 8298TIP3   OH246384   4.409   4.504   1.602 -0.3040  0.4199 -0.1279
 8298TIP3    H146385   4.418   4.582   1.656 -2.9890  0.2516  0.7180
 8298TIP3    H246386   4.358   4.533   1.526  0.1124 -0.1786 -0.6472
 8299TIP3   OH246387   0.753   4.947  14.524 -0.1748 -0.0192  0.1431
 8299TIP3    H146388   0.702   4.904  14.455 -0.5855 -0.8802  0.9597
 8299TIP3    H246389   0.746   5.040  14.504 -0.2721 -0.2560 -0.9850
 8300TIP3   OH246390   4.471   5.976  11.825  0.0034  0.2775 -0.3666
 8300TIP3    H146391   4.550   5.995  11.774  0.1709  0.8627  0.0973
 8300TIP3    H246392   4.447   5.887  11.799  0.7240  0.1508 -0.6360
 8301TIP3   OH246393   5.008   2.933  14.846 -0.4362  0.3187  0.0401
 8301TIP3    H146394   4.912   2.940  14.845 -0.3799  1.5292 -1.4494
 8301TIP3    H246395   5.038   3.023  14.831  0.9085 -0.2576 -0.8771
 8302TIP3   OH246396   1.300   0.549  16.324 -0.0879  0.6495 -0.3787
 8302TIP3    H146397   1.367   0.612  16.299 -1.1112  1.8233 -0.2971
 8302TIP3    H246398   1.232   0.603  16.366 -1.5269 -0.3488 -1.3499
 8303TIP3   OH246399   6.248   1.821  13.107 -0.7286 -0.4793  0.2916
 8303TIP3    H146400   6.302   1.853  13.034 -0.7909 -1.1884 -0.0789
 8303TIP3    H246401   6.197   1.897  13.135 -0.7287 -0.2069 -0.4316
 8304TIP3   OH246402   3.673   2.862  12.727 -0.1822 -0.0469  0.1869
 8304TIP3    H146403   3.591   2.878  12.681  0.4353  2.6646 -0.1623
 8304TIP3    H246404   3.723   2.805  12.668 -1.7267 -1.6396  0.3605
 8305TIP3   OH246405   4.180   3.345  11.974 -0.3561  0.2679 -0.4156
 8305TIP3    H146406   4.147   3.337  12.064  0.5801 -0.1834 -0.1052
 8305TIP3    H246407   4.131   3.279  11.925 -0.6059  0.2609 -0.1615
 8306TIP3   OH246408   4.505   2.365   5.492  0.3201  0.5750 -0.6919
 8306TIP3    H146409   4.463   2.314   5.423  0.2524  1.1251 -1.0566
 8306TIP3    H246410   4.499   2.309   5.570 -0.3553  0.3067 -0.9311
 8307TIP3   OH246411   5.296   6.763   2.408 -0.5386  0.1590  0.6168
 8307TIP3    H146412   5.354   6.783   2.482  3.1250 -1.4735 -1.4980
 8307TIP3    H246413   5.272   6.849   2.373  0.8261  0.9261  1.4607
 8308TIP3   OH246414   6.627   5.537   2.010  0.3774  0.0207  0.3305
 8308TIP3    H146415   6.613   5.619   2.056  1.5673  0.3119  0.1971
 8308TIP3    H246416   6.721   5.520   2.017  0.5462 -0.1436 -1.6001
 8309TIP3   OH246417   1.196   1.687  16.503  0.6031 -0.7218 -0.2609
 8309TIP3    H146418   1.173   1.610  16.452 -1.6108 -1.0771  1.1182
 8309TIP3    H246419   1.189   1.659  16.595 -0.1988  1.0574  0.2770
 8310TIP3   OH246420   6.634   1.484  11.443  0.1135  0.0062  0.2292
 8310TIP3    H146421   6.592   1.570  11.447  1.4321  0.6766  4.0228
 8310TIP3    H246422   6.696   1.491  11.369  0.4371  2.4801  0.6391
 8311TIP3   OH246423   1.129   1.214   1.303  0.6842 -0.2335 -0.1207
 8311TIP3    H146424   1.143   1.300   1.265 -0.6216 -0.0299 -0.2052
 8311TIP3    H246425   1.097   1.232   1.392 -0.5713 -0.5867 -0.4843
 8312TIP3   OH246426   4.148   4.052   1.402 -0.4461 -0.6040 -0.2295
 8312TIP3    H146427   4.105   4.038   1.318 -2.3805 -0.9023  0.7475
 8312TIP3    H246428   4.112   4.135   1.434 -1.4884 -1.5888  1.2822
 8313TIP3   OH246429   1.287   1.835  12.652 -0.0703  0.3517  0.4269
 8313TIP3    H146430   1.223   1.854  12.584  1.3644  3.6922 -0.1903
 8313TIP3    H246431   1.371   1.831  12.607  0.4403 -2.4677  1.4157
 8314TIP3   OH246432   6.212   1.689  16.801 -0.0029 -0.3003 -0.2909
 8314TIP3    H146433   6.117   1.678  16.807  0.0724 -1.1099 -0.4336
 8314TIP3    H246434   6.244   1.672  16.890  0.0423 -0.3795 -0.3220
 8315TIP3   OH246435   2.331   3.130   4.451 -0.0562  0.2153  0.0919
 8315TIP3    H146436   2.363   3.205   4.400  0.8005 -1.0548 -1.3282
 8315TIP3    H246437   2.235   3.138   4.447  0.0247  1.3507  0.1484
 8316TIP3   OH246438   1.793   2.792  16.038 -0.4625  0.3422 -0.2729
 8316TIP3    H146439   1.712   2.751  16.007 -0.7052  0.0512  0.7138
 8316TIP3    H246440   1.767   2.839  16.117  0.5062 -0.5076  0.5781
 8317TIP3   OH246441   2.370   4.702   1.482 -0.5071  0.3453 -0.1127
 8317TIP3    H146442   2.317   4.643   1.429 -1.1887  0.3121  0.5819
 8317TIP3    H246443   2.357   4.671   1.572 -1.0503  1.6570  0.2912
 8318TIP3   OH246444   6.506   3.162   4.152 -0.3094  0.5121  0.1408
 8318TIP3    H146445   6.572   3.180   4.085  1.2453  0.7575  1.6532
 8318TIP3    H246446   6.422   3.180   4.109  0.6772  1.8379 -1.3478
 8319TIP3   OH246447   5.126   4.774  13.885 -0.6459  0.0234 -0.1698
 8319TIP3    H146448   5.050   4.767  13.828 -0.8782 -0.4927  0.1889
 8319TIP3    H246449   5.105   4.845  13.946 -0.8061 -0.0628 -0.1248
 8320TIP3   OH246450   3.954   5.426  14.582 -0.0556  0.1502 -0.0491
 8320TIP3    H146451   4.010   5.420  14.659 -1.1846  1.3039  0.9181
 8320TIP3    H246452   4.001   5.482  14.521  0.6870 -0.4722 -0.0560
 8321TIP3   OH246453   5.911   0.677  13.594  0.0591 -0.1936  1.0960
 8321TIP3    H146454   5.868   0.646  13.514  0.0274 -2.0086  1.7545
 8321TIP3    H246455   5.942   0.764  13.573  2.8705 -1.7293 -1.9917
 8322TIP3   OH246456   2.419   3.526  13.431  0.0402 -0.0321  0.1671
 8322TIP3    H146457   2.461   3.609  13.456 -1.0005  0.0136  1.9670
 8322TIP3    H246458   2.478   3.487  13.367  1.5751  1.1762  0.7881
 8323TIP3   OH246459   3.738   0.153   2.218 -0.0224  0.3340 -0.2543
 8323TIP3    H146460   3.801   0.139   2.289 -0.5854 -0.7843  0.0450
 8323TIP3    H246461   3.675   0.216   2.253  0.7926  1.3271 -0.4930
 8324TIP3   OH246462   5.656   1.807  15.011 -0.1937 -0.2576  0.0231
 8324TIP3    H146463   5.591   1.836  14.946 -2.1815  1.7751  2.7108
 8324TIP3    H246464   5.737   1.852  14.985 -0.9503  0.5696 -1.0194
 8325TIP3   OH246465   1.346   1.340  11.986  0.3181 -0.0392  0.3393
 8325TIP3    H146466   1.372   1.395  12.060 -2.4055  0.1426  1.2628
 8325TIP3    H246467   1.297   1.398  11.928 -0.4664 -0.9011  0.0946
 8326TIP3   OH246468   1.027   0.015   1.835 -0.2360  0.0389  0.2413
 8326TIP3    H146469   0.950   0.026   1.891 -1.0610 -1.0102 -0.6278
 8326TIP3    H246470   1.100   0.002   1.895 -0.9133  0.0340  1.0749
 8327TIP3   OH246471   0.577   4.444  16.548  0.0485 -0.0960  0.4094
 8327TIP3    H146472   0.517   4.510  16.582 -0.2635 -0.5920  0.8397
 8327TIP3    H246473   0.558   4.440  16.455 -1.3373 -0.9886  0.7083
 8328TIP3   OH246474   3.565   4.544   5.891  0.2252  0.0818  0.1231
 8328TIP3    H146475   3.625   4.536   5.965 -0.3042 -1.7626  0.4019
 8328TIP3    H246476   3.479   4.527   5.928 -0.0482 -0.8424 -0.8860
 8329TIP3   OH246477   5.621   3.661  12.411  0.2572  0.3141  0.0055
 8329TIP3    H146478   5.656   3.707  12.335 -0.1377 -1.3951 -1.2678
 8329TIP3    H246479   5.698   3.638  12.463  0.6008  0.7675 -0.2974
 8330TIP3   OH246480   1.006   6.844  12.263 -0.2596 -0.5205 -0.3328
 8330TIP3    H146481   1.060   6.903  12.316  0.9391 -1.3431 -0.5848
 8330TIP3    H246482   0.923   6.839  12.310  0.0519  0.3866  0.3515
 8331TIP3   OH246483   0.075   3.756  14.827 -0.5399 -0.3565  0.4431
 8331TIP3    H146484   0.103   3.743  14.918 -0.8214 -1.7286  0.3607
 8331TIP3    H246485   0.153   3.733  14.775 -0.8576 -1.1679  0.3066
 8332TIP3   OH246486   3.819   5.742  14.408 -0.0711  0.5997 -0.2793
 8332TIP3    H146487   3.859   5.810  14.353  1.7177  0.0687  0.2970
 8332TIP3    H246488   3.872   5.664  14.391  0.2387  0.3097  1.8405
 8333TIP3   OH246489   3.502   4.868   0.427 -0.1695  0.2371  0.2026
 8333TIP3    H146490   3.507   4.791   0.483 -1.5223 -0.1725 -0.1966
 8333TIP3    H246491   3.593   4.887   0.402  0.5277  0.6304  2.7636
 8334TIP3   OH246492   1.541   5.367   5.272  0.0485 -0.0576  0.2475
 8334TIP3    H146493   1.535   5.329   5.185  0.5421 -0.9029  0.5622
 8334TIP3    H246494   1.465   5.424   5.279 -1.1421 -1.5534  0.0022
 8335TIP3   OH246495   1.558   5.343  11.079 -0.4209 -0.1179  0.2964
 8335TIP3    H146496   1.518   5.263  11.114  0.7070 -0.6407  0.4583
 8335TIP3    H246497   1.623   5.312  11.016  1.3575  0.5404  1.7139
 8336TIP3   OH246498   5.155   3.642   1.359  0.2536  0.3637 -0.9949
 8336TIP3    H146499   5.145   3.632   1.265  1.3000  1.9178 -1.3174
 8336TIP3    H246500   5.214   3.571   1.386  1.0612  0.7392 -1.7543
 8337TIP3   OH246501   1.701   0.750  16.955 -0.6378 -0.4573 -0.4236
 8337TIP3    H146502   1.640   0.680  16.932 -2.3611  1.6636 -2.8222
 8337TIP3    H246503   1.761   0.755  16.880  1.2446 -1.0865  0.9552
 8338TIP3   OH246504   1.714   3.653  14.836  0.2325 -0.2902 -0.0978
 8338TIP3    H146505   1.802   3.639  14.803 -0.2524  1.0146 -2.0810
 8338TIP3    H246506   1.682   3.731  14.790 -1.4128  0.1963  1.6977
 8339TIP3   OH246507   1.389   5.562  12.961 -0.4704  0.2156  0.5666
 8339TIP3    H146508   1.331   5.537  13.033  0.0985 -0.2961  0.8569
 8339TIP3    H246509   1.477   5.556  12.997  0.0870 -3.0432 -0.9554
 8340TIP3   OH246510   4.658   1.501   6.256  0.1647 -0.5173  0.7646
 8340TIP3    H146511   4.611   1.446   6.194 -0.7966  2.2946 -1.2255
 8340TIP3    H246512   4.738   1.527   6.209  0.5861 -0.2184  1.6289
 8341TIP3   OH246513   2.655   1.766  15.620  0.0136  0.2718  0.6522
 8341TIP3    H146514   2.685   1.761  15.711  0.7494  2.9958  0.6436
 8341TIP3    H246515   2.561   1.777  15.626 -0.1077 -0.8610  1.0045
 8342TIP3   OH246516   1.565   5.281   1.137  0.3782  0.2122  0.0795
 8342TIP3    H146517   1.486   5.227   1.144  0.5546 -0.1332 -0.5338
 8342TIP3    H246518   1.565   5.333   1.217  0.3462 -0.8932  0.8229
 8343TIP3   OH246519   6.813   3.864   0.050 -0.2414  0.0460  0.5284
 8343TIP3    H146520   6.896   3.893   0.090 -0.7032  0.0352  1.5310
 8343TIP3    H246521   6.755   3.940   0.060 -0.8173 -0.4811  1.2468
 8344TIP3   OH246522   0.406   5.857   4.760  0.2947  0.0448  0.5764
 8344TIP3    H146523   0.410   5.763   4.774  1.7129 -0.1613 -0.8931
 8344TIP3    H246524   0.313   5.879   4.770 -0.2337 -1.7004 -0.1117
 8345TIP3   OH246525   2.107   3.915  12.872 -0.0460  0.4977 -0.9216
 8345TIP3    H146526   2.128   3.842  12.929  0.3116  0.2479 -1.3717
 8345TIP3    H246527   2.183   3.973  12.877 -0.3634  0.8950 -0.4956
 8346TIP3   OH246528   2.746   3.130   4.828 -0.3330  0.4619 -0.9275
 8346TIP3    H146529   2.824   3.182   4.847 -0.4944  0.7686 -1.0915
 8346TIP3    H246530   2.678   3.167   4.884 -0.3958  0.2925 -0.8923
 8347TIP3   OH246531   1.448   1.223   1.114 -0.4034  0.3142 -0.0487
 8347TIP3    H146532   1.428   1.260   1.028 -2.3330 -0.4767  0.0228
 8347TIP3    H246533   1.414   1.286   1.176 -0.4561  0.1283  0.1125
 8348TIP3   OH246534   0.931   6.247   2.376  0.1554 -0.6805 -0.0969
 8348TIP3    H146535   1.010   6.208   2.339 -0.7808 -1.6954 -1.1407
 8348TIP3    H246536   0.909   6.319   2.316 -0.0117 -0.7601 -0.1325
 8349TIP3   OH246537   1.784   6.821  13.089 -0.1430  0.2368  0.3838
 8349TIP3    H146538   1.756   6.787  13.004 -0.1515 -0.2362  0.5743
 8349TIP3    H246539   1.716   6.885  13.112  0.6927  1.5875 -0.7033
 8350TIP3   OH246540   1.346   5.311  12.072  0.0101 -0.4498  0.2478
 8350TIP3    H146541   1.377   5.401  12.064  0.2955 -0.2429  2.7851
 8350TIP3    H246542   1.345   5.278  11.982 -2.1610  2.7057 -1.0596
 8351TIP3   OH246543   3.079   1.985   4.612  0.3790 -0.2240 -0.3516
 8351TIP3    H146544   3.034   1.905   4.588  0.5689 -0.3743 -0.2118
 8351TIP3    H246545   3.079   2.038   4.533  0.8733 -0.6531 -0.6413
 8352TIP3   OH246546   6.848   2.222  10.563 -0.1014  0.3544  0.3490
 8352TIP3    H146547   6.884   2.269  10.638 -2.0309  1.3707  0.7069
 8352TIP3    H246548   6.816   2.291  10.505 -1.7359 -0.4726  0.2184
 8353TIP3   OH246549   6.546   3.232  14.438  0.3564  0.0506 -0.1116
 8353TIP3    H146550   6.562   3.276  14.521  1.9334 -0.5495 -0.0715
 8353TIP3    H246551   6.451   3.236  14.427  0.1918  0.7957  1.3391
 8354TIP3   OH246552   3.948   5.354   4.064  0.1313  0.0047 -0.6797
 8354TIP3    H146553   3.925   5.389   4.150  1.7415  0.8077 -0.5378
 8354TIP3    H246554   3.960   5.260   4.078 -2.5147 -0.3879 -0.6904
 8355TIP3   OH246555   2.242   3.940  15.002  0.4609  0.0489  0.3437
 8355TIP3    H146556   2.279   3.976  15.083 -0.8175  1.2710  0.4266
 8355TIP3    H246557   2.256   4.009  14.937  1.3564 -0.8724 -0.4692
 8356TIP3   OH246558   1.403   4.578  10.866  0.3999  0.4616 -0.1090
 8356TIP3    H146559   1.416   4.638  10.791  1.3511 -1.8867 -1.9491
 8356TIP3    H246560   1.314   4.546  10.855  1.1359 -1.3229 -1.4785
 8357TIP3   OH246561   3.073   2.240  15.236 -0.0241  0.1067 -0.3455
 8357TIP3    H146562   3.064   2.285  15.152 -1.3661  1.0636  0.2697
 8357TIP3    H246563   3.092   2.149  15.213 -1.1897  0.1745 -1.7171
 8358TIP3   OH246564   4.728   0.511   4.993 -0.6485  0.2142  0.1693
 8358TIP3    H146565   4.738   0.556   4.909 -2.0794 -0.7600 -0.5738
 8358TIP3    H246566   4.689   0.576   5.051 -0.5114  0.6332 -0.2051
 8359TIP3   OH246567   3.980   6.099  10.486 -0.2646  0.2178  0.6169
 8359TIP3    H146568   3.912   6.081  10.421  0.3492 -2.6867  0.6609
 8359TIP3    H246569   3.932   6.103  10.569 -0.7876  1.8947  0.2720
 8360TIP3   OH246570   4.740   2.612   1.672 -0.0975 -0.1890 -0.3294
 8360TIP3    H146571   4.662   2.557   1.678  0.5657 -1.2020 -0.5868
 8360TIP3    H246572   4.762   2.632   1.763  0.0679 -0.9753 -0.1895
 8361TIP3   OH246573   0.880   3.372  14.867 -0.0653  0.0362  0.0024
 8361TIP3    H146574   0.867   3.316  14.791  0.5223  1.6424 -1.3409
 8361TIP3    H246575   0.801   3.425  14.872  1.0271  1.9009 -1.2733
 8362TIP3   OH246576   0.716   2.506  14.998 -0.1578 -0.2778 -0.2384
 8362TIP3    H146577   0.682   2.423  14.966 -0.1211  0.2964 -1.9101
 8362TIP3    H246578   0.734   2.492  15.091 -0.3504 -2.0552 -0.4465
 8363TIP3   OH246579   0.778   0.077  11.482  0.2957  0.4240 -0.0544
 8363TIP3    H146580   0.712   0.145  11.490 -0.5699 -0.3917  0.0091
 8363TIP3    H246581   0.775   0.051  11.390 -2.1278 -2.1059  0.5903
 8364TIP3   OH246582   5.256   5.191   1.821  0.0457  0.7430 -0.4087
 8364TIP3    H146583   5.251   5.144   1.738 -2.8534  0.7987 -0.3825
 8364TIP3    H246584   5.293   5.127   1.882  1.5023  0.4553 -1.5330
 8365TIP3   OH246585   2.836   4.200  14.130  0.4305 -0.2420 -0.4407
 8365TIP3    H146586   2.812   4.179  14.039  2.6336 -0.1433 -1.0982
 8365TIP3    H246587   2.927   4.172  14.138  0.8920  1.4914  1.1668
 8366TIP3   OH246588   3.520   3.006  10.816 -0.0223 -0.0322  0.3821
 8366TIP3    H146589   3.611   2.999  10.788 -0.4929 -0.4923 -1.1263
 8366TIP3    H246590   3.510   3.097  10.844  0.8872  0.0274  0.5229
 8367TIP3   OH246591   3.903   6.771  12.867 -0.3354  0.2935  0.4266
 8367TIP3    H146592   3.869   6.853  12.831 -0.2878 -0.1494 -0.6854
 8367TIP3    H246593   3.977   6.749  12.809 -0.4996 -0.6497  0.5602
 8368TIP3   OH246594   0.308   5.301   1.541 -0.3807  0.2177  0.4308
 8368TIP3    H146595   0.238   5.239   1.526 -0.1848  0.1207 -0.1224
 8368TIP3    H246596   0.288   5.374   1.483  1.6617 -1.1851 -2.2404
 8369TIP3   OH246597   1.324   1.395  13.464  0.2088  0.2741 -0.1218
 8369TIP3    H146598   1.274   1.476  13.473 -0.7539 -0.4955  2.0343
 8369TIP3    H246599   1.399   1.407  13.523  1.7751  0.7507 -2.0852
 8370TIP3   OH246600   3.366   2.579   6.251  0.5811  0.2835 -0.3683
 8370TIP3    H146601   3.349   2.485   6.253  2.0250  0.0035 -0.1148
 8370TIP3    H246602   3.320   2.614   6.327  1.0792 -0.4206  0.2737
 8371TIP3   OH246603   4.898   0.811   0.263  0.1463  0.2232  0.9804
 8371TIP3    H146604   4.848   0.862   0.200 -1.6994 -3.5900 -0.9614
 8371TIP3    H246605   4.972   0.776   0.213  1.3388  0.8510  2.2331
 8372TIP3   OH246606   6.843   4.330  16.620  0.1705 -0.0675 -0.4090
 8372TIP3    H146607   6.846   4.349  16.714 -0.4493  0.7884 -0.5435
 8372TIP3    H246608   6.883   4.244  16.611  1.1497  0.2664  0.5190
 8373TIP3   OH246609   0.296   4.204  15.281  0.0013  0.4773  0.0567
 8373TIP3    H146610   0.388   4.189  15.262 -0.3802 -1.5373 -0.4684
 8373TIP3    H246611   0.276   4.143  15.352 -0.8139  1.2753  0.5331
 8374TIP3   OH246612   4.447   1.011   2.529  0.3716  0.8674  0.4103
 8374TIP3    H146613   4.506   0.942   2.500  0.4996  0.6227  1.2367
 8374TIP3    H246614   4.360   0.969   2.527  0.0016  1.5695 -1.9643
 8375TIP3   OH246615   3.395   0.546  14.742 -0.1166  0.3415 -0.7025
 8375TIP3    H146616   3.442   0.546  14.825  0.3072 -1.1022 -0.9200
 8375TIP3    H246617   3.415   0.462  14.703 -1.1664  0.5700 -1.7951
 8376TIP3   OH246618   4.744   6.761  13.281  0.0738 -0.0534 -0.7152
 8376TIP3    H146619   4.793   6.840  13.257  0.5521 -0.5054 -1.2469
 8376TIP3    H246620   4.811   6.698  13.306 -0.3797  0.2729  1.5171
 8377TIP3   OH246621   1.204   1.273  14.799 -0.5697 -0.5020  0.1484
 8377TIP3    H146622   1.137   1.208  14.777 -0.4523 -0.9144  0.9849
 8377TIP3    H246623   1.155   1.346  14.837 -0.4860 -1.1487  1.5394
 8378TIP3   OH246624   5.418   2.767  11.167  0.2041  0.1713 -0.1615
 8378TIP3    H146625   5.361   2.754  11.091 -1.0919 -0.9275  0.9567
 8378TIP3    H246626   5.500   2.724  11.143 -0.5076 -0.9845 -0.5841
 8379TIP3   OH246627   4.084   2.454  13.008 -0.3823 -0.1284 -0.0231
 8379TIP3    H146628   4.121   2.429  13.092  0.9186 -1.1852 -0.8643
 8379TIP3    H246629   4.061   2.371  12.966 -0.4148  0.3445 -0.9634
 8380TIP3   OH246630   5.706   2.257   2.321  0.2036 -0.3131 -0.4059
 8380TIP3    H146631   5.727   2.301   2.238  3.2683 -0.0181  0.4092
 8380TIP3    H246632   5.791   2.231   2.356 -1.0909 -1.3818  2.1530
 8381TIP3   OH246633   0.933   2.783  13.165  0.1892  0.4797 -0.6877
 8381TIP3    H146634   1.007   2.804  13.108  0.3308  1.0744 -0.2886
 8381TIP3    H246635   0.869   2.852  13.148  0.5845  1.1635  0.5068
 8382TIP3   OH246636   2.275   6.216  10.279 -0.0482 -0.1508  0.0896
 8382TIP3    H146637   2.281   6.311  10.283  1.6651 -0.2590  2.5006
 8382TIP3    H246638   2.182   6.197  10.281 -0.4073  1.5000  1.5382
 8383TIP3   OH246639   4.045   1.350  12.737 -0.5321 -0.0676 -0.4444
 8383TIP3    H146640   3.977   1.390  12.683  0.0102 -0.1737 -1.2173
 8383TIP3    H246641   4.065   1.267  12.693 -2.3545 -1.7579  1.6627
 8384TIP3   OH246642   2.549   4.253  12.092  0.3668  0.6149 -0.9969
 8384TIP3    H146643   2.641   4.236  12.076 -0.2293 -1.9265 -2.2113
 8384TIP3    H246644   2.504   4.223  12.012 -1.6413  0.1729  0.2220
 8385TIP3   OH246645   6.146   6.296   4.148 -0.4632  0.1720 -0.0737
 8385TIP3    H146646   6.231   6.340   4.151 -0.4441  0.1250  2.6846
 8385TIP3    H246647   6.167   6.203   4.141 -0.0365 -0.1101  3.2445
 8386TIP3   OH246648   4.166   2.579  14.317 -0.2155 -0.7754 -0.0767
 8386TIP3    H146649   4.111   2.564  14.240  2.6345  0.1119 -2.4745
 8386TIP3    H246650   4.158   2.673  14.334 -1.2805 -1.0573  1.1768
 8387TIP3   OH246651   6.657   2.476  13.020 -0.5218 -0.8134 -0.1225
 8387TIP3    H146652   6.722   2.453  13.086  0.3514 -0.0829 -0.7204
 8387TIP3    H246653   6.674   2.568  13.000 -0.1506 -1.2641 -2.0555
 8388TIP3   OH246654   2.560   2.149   1.336 -0.3302 -0.2349  0.3172
 8388TIP3    H146655   2.473   2.189   1.341 -0.4780 -0.3863 -0.7122
 8388TIP3    H246656   2.613   2.215   1.291  0.0879 -0.1440  0.9434
 8389TIP3   OH246657   3.173   5.079  16.746 -0.1923  0.1083 -0.2682
 8389TIP3    H146658   3.233   5.027  16.800 -1.6449  0.0013  1.3544
 8389TIP3    H246659   3.217   5.163  16.735  1.2821 -0.7468 -1.1717
 8390TIP3   OH246660   3.208   1.901  13.196 -0.4307 -0.3532 -0.2660
 8390TIP3    H146661   3.161   1.823  13.166  1.1195 -1.0684 -0.9758
 8390TIP3    H246662   3.291   1.898  13.148 -1.2316  3.0534 -2.1505
 8391TIP3   OH246663   6.555   1.165  15.721  0.0216 -0.7199 -0.3054
 8391TIP3    H146664   6.612   1.162  15.644  1.2092 -0.3301  0.5401
 8391TIP3    H246665   6.479   1.216  15.693  0.8369  0.1569 -0.9665
 8392TIP3   OH246666   6.788   4.804  13.290  0.5288 -0.6689 -0.3088
 8392TIP3    H146667   6.810   4.814  13.383  0.1814 -1.6244 -0.1137
 8392TIP3    H246668   6.759   4.891  13.263 -0.6871 -0.6856  0.8374
 8393TIP3   OH246669   3.774   0.741  11.426  0.0248 -0.0649  0.3053
 8393TIP3    H146670   3.791   0.659  11.380  0.0234  0.9369 -1.6186
 8393TIP3    H246671   3.833   0.804  11.384 -0.3958  1.0447  1.3213
 8394TIP3   OH246672   3.930   0.294  14.894 -1.2184 -0.1760 -0.2798
 8394TIP3    H146673   3.994   0.291  14.822 -0.2965  0.2883  0.5005
 8394TIP3    H246674   3.873   0.367  14.871  0.2201  1.2327  0.3431
 8395TIP3   OH246675   3.246   2.648  13.346 -0.3244  0.5114 -0.0285
 8395TIP3    H146676   3.292   2.656  13.263 -1.8316  1.7552 -0.7828
 8395TIP3    H246677   3.246   2.737  13.382  2.0725 -0.3154  2.3430
 8396TIP3   OH246678   0.970   3.293  12.507 -0.0688  0.1426  0.5328
 8396TIP3    H146679   0.966   3.343  12.589 -0.4669  0.7910  0.1227
 8396TIP3    H246680   0.937   3.353  12.440 -1.4747 -0.9649  0.1715
 8397TIP3   OH246681   6.466   3.183  14.838 -0.0254  0.2636 -0.1424
 8397TIP3    H146682   6.399   3.115  14.831 -0.4143  0.6137  0.1230
 8397TIP3    H246683   6.438   3.251  14.776  0.0837  0.4124 -0.0301
 8398TIP3   OH246684   6.649   5.541   4.807 -0.0439  0.2472 -0.1141
 8398TIP3    H146685   6.722   5.561   4.865  0.6204 -0.2689 -0.7586
 8398TIP3    H246686   6.679   5.466   4.755 -0.5644  0.7941 -1.2340
 8399TIP3   OH246687   0.141   2.291  12.957 -0.7259 -0.0987 -0.0708
 8399TIP3    H146688   0.221   2.305  12.906 -0.6314 -0.5430 -0.0499
 8399TIP3    H246689   0.075   2.344  12.913 -0.3114  0.6348  0.1843
 8400TIP3   OH246690   5.293   1.556   6.036 -0.5392 -0.1304 -0.1218
 8400TIP3    H146691   5.209   1.521   6.006 -0.2862 -1.2764  0.4344
 8400TIP3    H246692   5.272   1.602   6.116 -0.8973  1.1469 -0.9239
 8401TIP3   OH246693   5.649   1.600   1.572  0.4332  0.7381  0.2068
 8401TIP3    H146694   5.582   1.532   1.565  0.2591  1.0524 -2.2254
 8401TIP3    H246695   5.731   1.551   1.580  0.0760  0.3308  1.6801
 8402TIP3   OH246696   6.075   6.007   3.253  0.3780 -0.2891  0.0527
 8402TIP3    H146697   6.057   6.015   3.346  1.6530 -0.0577  0.3013
 8402TIP3    H246698   6.106   6.093   3.226 -0.8944 -0.0731 -0.8234
 8403TIP3   OH246699   3.949   5.524  15.035 -0.0789 -0.4656 -0.0285
 8403TIP3    H146700   3.998   5.599  15.000  0.5254 -0.4785  0.7406
 8403TIP3    H246701   4.001   5.496  15.111 -2.0173  0.4461  1.7469
 8404TIP3   OH246702   0.907   1.900  13.715 -0.4043 -0.8115  0.3495
 8404TIP3    H146703   0.967   1.831  13.746  1.6354  0.3333 -0.8697
 8404TIP3    H246704   0.894   1.880  13.623 -2.0517 -1.1067  0.6289
 8405TIP3   OH246705   1.010   4.042  12.994 -0.3477  0.0650  0.6210
 8405TIP3    H146706   0.959   3.990  12.931  0.4915  0.5699 -0.5036
 8405TIP3    H246707   1.045   3.977  13.055  0.8020 -0.7380 -0.8421
 8406TIP3   OH246708   3.724   2.913  15.505  0.0693 -0.0960  0.4601
 8406TIP3    H146709   3.745   2.945  15.593 -0.8876  0.4032  0.5231
 8406TIP3    H246710   3.801   2.933  15.453 -0.1570  1.5638  0.7108
 8407TIP3   OH246711   1.141   0.778   5.780 -0.7448 -0.1285  0.3212
 8407TIP3    H146712   1.171   0.827   5.857  1.2520  0.9413 -1.0445
 8407TIP3    H246713   1.214   0.782   5.719 -2.1797 -1.1274 -1.5752
 8408TIP3   OH246714   2.905   5.341  16.155  0.2434  0.1102 -0.2767
 8408TIP3    H146715   2.860   5.382  16.229  0.5406 -0.6875  0.3618
 8408TIP3    H246716   2.848   5.269  16.128  0.4500 -0.0184 -0.3829
 8409TIP3   OH246717   1.570   3.381  15.545  0.2827 -0.2974 -0.7370
 8409TIP3    H146718   1.536   3.303  15.589 -0.4517 -0.1297 -1.0002
 8409TIP3    H246719   1.639   3.413  15.604 -0.4315 -0.2852  0.1129
 8410TIP3   OH246720   3.948   4.577  11.962 -0.1142 -0.1069  0.0226
 8410TIP3    H146721   3.946   4.603  12.054  0.7800 -2.4301  0.7883
 8410TIP3    H246722   4.041   4.580  11.938 -0.3523  0.6087 -0.8581
 8411TIP3   OH246723   3.808   5.291   0.889 -0.2945 -0.1158  0.6580
 8411TIP3    H146724   3.801   5.216   0.947 -0.7120 -0.7493 -0.1879
 8411TIP3    H246725   3.856   5.357   0.940  2.4947 -1.8816  0.4937
 8412TIP3   OH246726   0.253   3.515   1.275 -0.1326 -0.7070 -0.2142
 8412TIP3    H146727   0.320   3.450   1.253 -0.7531 -0.8370 -1.8974
 8412TIP3    H246728   0.286   3.558   1.354  2.1300 -0.5007 -1.1997
 8413TIP3   OH246729   5.630   0.079   1.445  0.1084  0.3900  0.5987
 8413TIP3    H146730   5.631   0.028   1.526  2.5075 -0.1476  0.3300
 8413TIP3    H246731   5.651   0.169   1.473  0.8912  0.2135  0.6189
 8414TIP3   OH246732   1.599   5.297  11.768 -0.3536 -0.4160  0.0182
 8414TIP3    H146733   1.511   5.260  11.776 -0.1787 -0.7002  0.7830
 8414TIP3    H246734   1.622   5.323  11.857  0.1244  0.1598 -0.2664
 8415TIP3   OH246735   6.611   4.274   5.062  0.2511 -0.2766  0.3459
 8415TIP3    H146736   6.643   4.323   5.137 -0.0521  0.1027  0.2291
 8415TIP3    H246737   6.527   4.314   5.040 -0.1362 -1.0231  0.4179
 8416TIP3   OH246738   0.905   3.705  12.856  0.1406 -0.2304 -0.1025
 8416TIP3    H146739   0.841   3.760  12.811  0.1644  0.7767  1.0741
 8416TIP3    H246740   0.908   3.737  12.946  1.1678 -1.2630  0.2726
 8417TIP3   OH246741   1.174   1.240  15.351  0.3547 -0.7410  0.4276
 8417TIP3    H146742   1.161   1.197  15.436  1.6306  1.8505  2.0628
 8417TIP3    H246743   1.217   1.174  15.298  0.9791 -1.9570  2.3274
 8418TIP3   OH246744   5.511   2.961   3.061  0.3698  0.4400  0.3682
 8418TIP3    H146745   5.484   3.024   2.994 -0.6236 -0.2932  0.0587
 8418TIP3    H246746   5.531   3.014   3.138  0.7694  1.2254 -0.2685
 8419TIP3   OH246747   5.076   0.599   1.222  0.2450 -0.1130 -0.0653
 8419TIP3    H146748   4.995   0.555   1.248  0.4407 -0.8811 -0.7021
 8419TIP3    H246749   5.072   0.685   1.263 -1.3877  0.2625 -0.9492
 8420TIP3   OH246750   5.055   2.884   5.131  0.1691 -0.1056  0.4472
 8420TIP3    H146751   5.033   2.935   5.052 -0.2734  0.4479  0.9199
 8420TIP3    H246752   5.111   2.814   5.099  1.1560  0.9250 -0.1772
 8421TIP3   OH246753   5.210   2.624  15.650  0.2152 -0.1677  0.2631
 8421TIP3    H146754   5.300   2.652  15.632  0.3692 -0.1499  1.0485
 8421TIP3    H246755   5.191   2.560  15.581  0.2606  0.9993 -0.8707
 8422TIP3   OH246756   1.214   2.536   4.449  0.6304 -0.3348 -0.0920
 8422TIP3    H146757   1.285   2.471   4.451  0.8941 -0.0419  0.3099
 8422TIP3    H246758   1.174   2.525   4.363  0.2066 -1.5255  0.2406
 8423TIP3   OH246759   1.807   6.219   2.719 -0.9939  0.2723  0.5244
 8423TIP3    H146760   1.735   6.226   2.782 -0.8492 -0.4871  0.7760
 8423TIP3    H246761   1.764   6.217   2.633 -1.2125  0.9042  0.6146
 8424TIP3   OH246762   0.282   2.046   1.193 -0.1444 -0.3444 -0.6457
 8424TIP3    H146763   0.214   2.027   1.257  0.8901  2.1573  1.3687
 8424TIP3    H246764   0.349   1.980   1.207 -1.0064 -1.3125 -0.9323
 8425TIP3   OH246765   4.249   6.632   4.990 -0.0245  0.5324  0.7978
 8425TIP3    H146766   4.157   6.610   5.006  0.4770 -0.4606  2.6252
 8425TIP3    H246767   4.267   6.601   4.902 -0.6275 -2.2222  1.5545
 8426TIP3   OH246768   0.418   1.111  12.143 -0.3205  0.3057  0.1978
 8426TIP3    H146769   0.458   1.090  12.227  0.4448  0.5220 -0.1050
 8426TIP3    H246770   0.476   1.176  12.104 -1.7149  1.6990  0.3520
 8427TIP3   OH246771   3.188   4.339   3.728  0.1628  0.4410 -0.5468
 8427TIP3    H146772   3.188   4.282   3.804 -0.2412 -0.8209 -1.4693
 8427TIP3    H246773   3.142   4.290   3.660 -1.1662  2.2989 -1.0622
 8428TIP3   OH246774   4.714   4.253   0.458  0.4360  0.0477  0.2841
 8428TIP3    H146775   4.761   4.179   0.497  0.5632  0.0254  0.0875
 8428TIP3    H246776   4.626   4.248   0.496  1.1822  1.3454  2.3659
 8429TIP3   OH246777   5.889   2.642  13.238  0.3759  0.2962  0.1898
 8429TIP3    H146778   5.877   2.697  13.161  0.9174  0.1670  0.0079
 8429TIP3    H246779   5.846   2.690  13.309 -0.1745  0.3894 -0.2000
 8430TIP3   OH246780   0.080   0.208   6.454 -0.3256  0.3554  0.3462
 8430TIP3    H146781   0.008   0.240   6.400 -0.5219  0.8618  0.8991
 8430TIP3    H246782   0.158   0.216   6.398 -0.4051  1.5791  0.3817
 8431TIP3   OH246783   4.648   5.867  13.704 -0.0060  0.3186  0.1230
 8431TIP3    H146784   4.679   5.837  13.789 -0.0773 -0.6484 -0.1727
 8431TIP3    H246785   4.553   5.854  13.707 -0.2227  1.8653  0.4891
 8432TIP3   OH246786   1.293   2.445   4.102  0.1265  0.3984  0.1500
 8432TIP3    H146787   1.347   2.519   4.129  0.3821 -0.2415  1.4747
 8432TIP3    H246788   1.317   2.430   4.010  0.5386  1.5320  0.0571
 8433TIP3   OH246789   4.055   3.902   6.049 -0.0551 -0.0069 -0.4027
 8433TIP3    H146790   4.109   3.958   5.992 -1.1552  0.7246 -0.7521
 8433TIP3    H246791   4.019   3.962   6.114 -0.9320 -0.3740 -0.5410
 8434TIP3   OH246792   5.276   1.408  13.431  0.1077 -0.2931  0.2802
 8434TIP3    H146793   5.183   1.406  13.452 -0.1588  1.2236 -0.6219
 8434TIP3    H246794   5.290   1.329  13.378 -1.1113  0.4237 -1.1840
 8435TIP3   OH246795   6.265   6.525   0.006  0.3893  0.2433 -0.3493
 8435TIP3    H146796   6.269   6.611  -0.034 -1.1190 -0.2432 -1.6385
 8435TIP3    H246797   6.226   6.469  -0.061  1.4700 -1.4809  0.4050
 8436TIP3   OH246798   1.025   3.659  16.345 -0.2499  0.3369 -0.2802
 8436TIP3    H146799   1.071   3.743  16.343 -2.2981  1.6288  1.5235
 8436TIP3    H246800   0.992   3.648  16.255  2.8806 -0.3772 -1.4779
 8437TIP3   OH246801   3.629   5.314   1.660  0.7740  0.3566 -0.2710
 8437TIP3    H146802   3.723   5.331   1.655  0.6867  0.7906 -0.4928
 8437TIP3    H246803   3.622   5.234   1.712  1.3566 -0.4598 -1.3902
 8438TIP3   OH246804   1.678   1.417   2.674  0.1522  0.1339  0.3990
 8438TIP3    H146805   1.750   1.354   2.673 -0.2033 -0.3058 -1.3544
 8438TIP3    H246806   1.601   1.364   2.694  0.0601  0.2749  0.4136
 8439TIP3   OH246807   6.273   4.505   6.354  0.4604 -0.9933  0.4035
 8439TIP3    H146808   6.367   4.518   6.367  0.2460  0.6526  0.4118
 8439TIP3    H246809   6.233   4.589   6.375 -0.8936 -1.2812 -0.8240
 8440TIP3   OH246810   0.536   1.000  13.373 -0.7524  0.1086  0.2135
 8440TIP3    H146811   0.461   1.056  13.356 -1.1669 -0.4809  0.0731
 8440TIP3    H246812   0.601   1.026  13.308 -0.8806  0.5272  0.2505
 8441TIP3   OH246813   4.709   2.905  13.440 -0.2174 -0.1856  0.4917
 8441TIP3    H146814   4.615   2.887  13.436 -0.3533  0.3901  0.8985
 8441TIP3    H246815   4.747   2.854  13.368 -0.9283  0.1068 -0.0994
 8442TIP3   OH246816   6.434   2.746  16.952  0.6174  0.1831  0.2352
 8442TIP3    H146817   6.481   2.815  16.905 -0.8450  1.2905  0.3166
 8442TIP3    H246818   6.354   2.734  16.901  0.1431 -0.3594  1.0967
 8443TIP3   OH246819   1.310   1.065  12.395 -0.0226  0.1851 -0.4732
 8443TIP3    H146820   1.321   1.063  12.490  0.0995 -0.1522 -0.4913
 8443TIP3    H246821   1.335   1.153  12.370  0.8442  0.0043 -0.2929
 8444TIP3   OH246822   3.903   5.800  10.561  0.9577 -0.2505 -0.0545
 8444TIP3    H146823   3.937   5.790  10.472  1.0327 -1.1312  0.0617
 8444TIP3    H246824   3.808   5.796  10.552  0.9867 -1.5895  0.0237
 8445TIP3   OH246825   0.051   4.593   3.844  0.1217 -0.4831 -0.0379
 8445TIP3    H146826  -0.026   4.641   3.876  0.4584 -0.2663  0.4563
 8445TIP3    H246827   0.026   4.564   3.756 -0.5926 -0.5733  0.1872
 8446TIP3   OH246828   4.124   5.153  16.020  0.1024 -0.3013  0.0905
 8446TIP3    H146829   4.103   5.219  16.085  1.6682  0.5079 -0.1862
 8446TIP3    H246830   4.043   5.142  15.970  0.0258  2.0836 -0.4274
 8447TIP3   OH246831   1.658   1.812   4.068  0.2040  0.0900 -1.1407
 8447TIP3    H146832   1.723   1.751   4.033  0.5035  0.2864 -0.9245
 8447TIP3    H246833   1.582   1.800   4.011 -0.4331 -1.8673  0.0125
 8448TIP3   OH246834   3.565   1.023  12.786 -0.2180  0.2757  0.3762
 8448TIP3    H146835   3.471   1.018  12.800 -0.2077  0.3785  0.4838
 8448TIP3    H246836   3.599   0.941  12.822 -0.5196 -0.9022 -1.8336
 8449TIP3   OH246837   0.885   3.325  15.970  0.4089  0.4967  0.2057
 8449TIP3    H146838   0.818   3.373  16.019  0.5455 -0.7409  1.6779
 8449TIP3    H246839   0.926   3.392  15.915 -2.1174  1.2798 -0.9179
 8450TIP3   OH246840   2.589   0.964  11.000  0.7222  0.9203 -0.0929
 8450TIP3    H146841   2.525   0.938  10.934  1.9602  0.9790 -1.3651
 8450TIP3    H246842   2.563   1.052  11.026 -0.6684  0.3140  0.6566
 8451TIP3   OH246843   0.428   0.359  10.989 -0.1828  0.4210 -0.1570
 8451TIP3    H146844   0.420   0.264  11.003 -1.2617  0.4316 -0.5996
 8451TIP3    H246845   0.489   0.367  10.915  0.1633  0.0852  0.0899
 8452TIP3   OH246846   1.583   3.262   4.934 -0.4287 -0.1455 -0.0775
 8452TIP3    H146847   1.612   3.244   4.845  0.3952  1.8697 -0.2834
 8452TIP3    H246848   1.491   3.288   4.925 -1.0741 -2.2390  0.0072
 8453TIP3   OH246849   5.390   5.039   0.467 -0.0228 -0.5934 -0.3070
 8453TIP3    H146850   5.312   4.987   0.449  0.2042 -0.2689 -2.3908
 8453TIP3    H246851   5.459   4.974   0.478 -0.5535 -0.8963  1.7925
 8454TIP3   OH246852   2.085   1.606  15.894  0.3346 -0.0844 -0.3863
 8454TIP3    H146853   1.991   1.588  15.885  0.5025 -0.8018 -0.7588
 8454TIP3    H246854   2.107   1.660  15.818 -0.1161  1.5511  0.5973
 8455TIP3   OH246855   6.418   5.003  12.894 -0.3130  1.2220  0.2562
 8455TIP3    H146856   6.507   5.037  12.878 -0.1860  0.7531 -0.0361
 8455TIP3    H246857   6.383   5.061  12.962  0.6001  0.7590  1.1510
 8456TIP3   OH246858   6.296   2.912   5.249 -0.0869 -0.1411  0.7190
 8456TIP3    H146859   6.378   2.955   5.226  1.0792 -1.9884  1.1640
 8456TIP3    H246860   6.241   2.982   5.283  1.6100  1.0327  1.1836
 8457TIP3   OH246861   3.506   0.297   3.354 -0.2946 -0.0341 -0.6172
 8457TIP3    H146862   3.501   0.391   3.371  0.1925 -0.0554 -0.3126
 8457TIP3    H246863   3.459   0.284   3.272 -0.4435  0.4625 -0.6121
 8458TIP3   OH246864   3.698   6.465  14.721  0.5048 -0.1707  1.2504
 8458TIP3    H146865   3.758   6.439  14.650  0.4998  0.5500  0.9803
 8458TIP3    H246866   3.714   6.400  14.790  0.1145 -1.2103  0.3850
 8459TIP3   OH246867   3.531   6.692   2.701 -0.0531  0.2234 -0.5175
 8459TIP3    H146868   3.464   6.673   2.766  1.0137  0.2750  0.6326
 8459TIP3    H246869   3.568   6.776   2.728  1.0518 -0.2153 -0.6099
 8460TIP3   OH246870   6.514   6.042   2.229 -0.2168 -0.4405 -0.6006
 8460TIP3    H146871   6.449   6.103   2.193 -0.5398  1.5178  2.8125
 8460TIP3    H246872   6.596   6.091   2.227  0.1225 -0.9986 -0.4290
 8461TIP3   OH246873   1.593   4.940  16.979  0.4733 -0.1986  0.4557
 8461TIP3    H146874   1.576   4.941  17.073  0.4492 -2.1824  0.5074
 8461TIP3    H246875   1.631   4.854  16.962  0.9417  0.3140 -1.2820
 8462TIP3   OH246876   3.929   0.679   4.680  1.1701 -0.3950 -0.6024
 8462TIP3    H146877   3.988   0.711   4.748  0.5111  0.2259 -0.3135
 8462TIP3    H246878   3.862   0.629   4.728  2.0093 -1.9952 -1.0142
 8463TIP3   OH246879   1.203   3.730   5.825 -0.0463 -0.1427  0.1238
 8463TIP3    H146880   1.224   3.773   5.742 -0.4480 -0.7018 -0.2793
 8463TIP3    H246881   1.240   3.787   5.892 -2.2130  1.8622 -0.2593
 8464TIP3   OH246882   3.714   1.923  15.118 -0.1023 -0.0757  0.0325
 8464TIP3    H146883   3.662   1.999  15.144 -0.6189 -0.5633  0.4481
 8464TIP3    H246884   3.673   1.850  15.163  0.8351 -0.5020  0.2049
 8465TIP3   OH246885   1.131   6.213   2.694  0.4663 -0.1194  0.1118
 8465TIP3    H146886   1.069   6.150   2.655  0.9554 -0.6435  0.1639
 8465TIP3    H246887   1.203   6.218   2.631  0.7923 -0.2041  0.4765
 8466TIP3   OH246888   6.123   6.362  14.754  0.1445 -0.3568 -0.2246
 8466TIP3    H146889   6.166   6.291  14.706  1.2750  1.4819 -2.1336
 8466TIP3    H246890   6.176   6.373  14.832 -0.1361 -1.6813  0.1756
 8467TIP3   OH246891   0.027   1.351  13.528  0.1332 -0.0032 -0.1695
 8467TIP3    H146892   0.055   1.435  13.564 -0.8505  0.5241 -0.5990
 8467TIP3    H246893   0.097   1.290  13.553  0.2336  0.6547  1.2680
 8468TIP3   OH246894   0.821   5.861   4.901  0.5650  0.1259  0.8556
 8468TIP3    H146895   0.830   5.780   4.951  0.6855  0.3379  1.1803
 8468TIP3    H246896   0.910   5.896   4.895  0.5617  0.0755  0.4425
 8469TIP3   OH246897   2.866   4.292   1.756 -0.5180 -0.3360 -0.2478
 8469TIP3    H146898   2.911   4.288   1.671 -0.2723 -0.6823 -0.1027
 8469TIP3    H246899   2.787   4.239   1.743 -0.2138 -0.8310 -0.1027
 8470TIP3   OH246900   1.664   2.740   2.155 -0.7745  0.4160  0.3709
 8470TIP3    H146901   1.595   2.733   2.221  0.9996  1.1548  2.3821
 8470TIP3    H246902   1.628   2.694   2.079 -1.9267 -2.7926  2.6236
 8471TIP3   OH246903   1.454   3.837  10.433  0.3614 -0.1183  0.0605
 8471TIP3    H146904   1.426   3.871  10.518  0.1138 -1.2597  0.4578
 8471TIP3    H246905   1.506   3.907  10.395 -0.2336  0.7411  0.7866
 8472TIP3   OH246906   5.761   3.870   2.768  0.3216  0.1823 -0.1368
 8472TIP3    H146907   5.804   3.842   2.687 -1.6184 -1.2113 -0.7504
 8472TIP3    H246908   5.748   3.789   2.817 -0.8254  0.6746  0.3964
 8473TIP3   OH246909   2.015   3.179  16.847 -0.3614 -0.5094  0.8587
 8473TIP3    H146910   2.052   3.264  16.822 -1.4721 -0.2309  0.0360
 8473TIP3    H246911   1.934   3.201  16.894 -1.0866 -1.0826 -0.0671
 8474TIP3   OH246912   1.640   6.136  15.416  0.4691  0.0044 -0.0082
 8474TIP3    H146913   1.732   6.111  15.419  0.8524  1.3855  0.5108
 8474TIP3    H246914   1.638   6.217  15.365 -0.4503  0.0196  0.0245
 8475TIP3   OH246915   0.274   4.170  12.285 -0.6739  0.1158  0.5825
 8475TIP3    H146916   0.236   4.153  12.371 -1.0498  0.0463  0.4035
 8475TIP3    H246917   0.301   4.262  12.288 -5.2667  1.7872 -0.9026
 8476TIP3   OH246918   4.710   4.201   4.997  0.0297 -0.7089 -0.2611
 8476TIP3    H146919   4.650   4.195   5.071 -0.6261 -1.1218 -0.8174
 8476TIP3    H246920   4.706   4.293   4.970 -0.0102 -0.6403 -0.0193
 8477TIP3   OH246921   4.370   2.829   3.679 -0.3665 -0.2105  0.5485
 8477TIP3    H146922   4.289   2.836   3.729 -1.1603  0.0757 -0.7176
 8477TIP3    H246923   4.352   2.762   3.613  0.1552  0.3861 -0.2258
 8478TIP3   OH246924   3.872   0.000  14.995 -0.2083  0.0500 -0.4538
 8478TIP3    H146925   3.883   0.076  14.937 -0.3881  0.8794  0.5751
 8478TIP3    H246926   3.825   0.035  15.071 -0.3591 -1.1186  0.0027
 8479TIP3   OH246927   5.449   1.070  12.541 -0.3018  0.2299  0.2562
 8479TIP3    H146928   5.417   0.980  12.552 -0.9692  0.3210 -0.8294
 8479TIP3    H246929   5.505   1.066  12.464  1.7471  0.2452  1.6723
 8480TIP3   OH246930   4.509   4.997  15.973  0.4363 -0.4978 -0.0801
 8480TIP3    H146931   4.431   4.943  15.963  0.9410 -1.4076  0.7040
 8480TIP3    H246932   4.486   5.081  15.932 -1.8675  0.1965  2.3083
 8481TIP3   OH246933   6.413   4.108  14.800 -0.2114  0.2561  0.5211
 8481TIP3    H146934   6.413   4.013  14.794  0.3437  0.1789  1.4837
 8481TIP3    H246935   6.503   4.131  14.822 -0.9900  0.7136  3.7049
 8482TIP3   OH246936   1.599   5.295  13.403 -0.2393 -0.5737 -0.1549
 8482TIP3    H146937   1.562   5.383  13.410 -0.7121 -0.5975 -1.8977
 8482TIP3    H246938   1.579   5.268  13.314 -0.3376 -2.5681  0.4306
 8483TIP3   OH246939   3.369   4.566  11.567  0.0191 -0.4375 -0.1528
 8483TIP3    H146940   3.348   4.475  11.547 -1.2787 -0.4634  1.1739
 8483TIP3    H246941   3.455   4.562  11.608  0.7526 -0.8400 -1.6489
 8484TIP3   OH246942   0.315   2.020   3.430  0.2814 -0.4050  0.1090
 8484TIP3    H146943   0.349   1.946   3.381  1.4753  0.3558 -0.2634
 8484TIP3    H246944   0.368   2.023   3.510  0.0424 -0.1326  0.2625
 8485TIP3   OH246945   3.864   6.331  11.871  0.0629 -0.4262  0.4677
 8485TIP3    H146946   3.885   6.292  11.786  0.7392  0.7048  0.0920
 8485TIP3    H246947   3.949   6.360  11.905 -0.2446 -0.5662  1.3780
 8486TIP3   OH246948   1.854   4.572   4.485  0.0668  0.2380  0.1662
 8486TIP3    H146949   1.793   4.622   4.431  0.4190 -0.2465 -0.7070
 8486TIP3    H246950   1.821   4.482   4.480  0.0315  0.2090  0.8727
 8487TIP3   OH246951   3.669   6.618  14.227 -0.0224  0.2000  0.8550
 8487TIP3    H146952   3.575   6.605  14.219  0.1896 -2.3120  1.3442
 8487TIP3    H246953   3.702   6.610  14.138 -0.3797  3.1792  0.3586
 8488TIP3   OH246954   5.445   1.339  13.626  0.0678 -0.1159  0.1211
 8488TIP3    H146955   5.394   1.287  13.688 -0.5643  0.2980 -0.0507
 8488TIP3    H246956   5.381   1.375  13.565  0.4558  1.1649  0.4386
 8489TIP3   OH246957   1.455   0.684  11.982 -0.2005 -0.2237 -0.1647
 8489TIP3    H146958   1.492   0.596  11.994  0.1768 -0.9543 -4.8208
 8489TIP3    H246959   1.524   0.732  11.936 -0.5747  2.4946  1.9041
 8490TIP3   OH246960   1.805   1.986  14.922 -0.1648  0.4125  0.3384
 8490TIP3    H146961   1.723   2.030  14.943 -1.3137 -1.5090  0.1391
 8490TIP3    H246962   1.808   1.912  14.983  1.9965  1.0386  1.0942
 8491TIP3   OH246963   6.594   2.904   2.465  0.2623 -0.1809  0.0449
 8491TIP3    H146964   6.557   2.818   2.484  1.4523 -0.6096  0.5024
 8491TIP3    H246965   6.526   2.949   2.415 -0.2056 -1.5581 -0.6113
 8492TIP3   OH246966   1.793   4.904  15.635 -0.1994 -0.4569  0.1531
 8492TIP3    H146967   1.778   4.887  15.542 -1.8449  1.1571  0.0796
 8492TIP3    H246968   1.711   4.943  15.666  1.4992  2.3973  1.4493
 8493TIP3   OH246969   5.666   4.518   5.357  0.0336  0.2676  0.3238
 8493TIP3    H146970   5.718   4.443   5.384 -0.3301 -0.0010  0.2860
 8493TIP3    H246971   5.701   4.592   5.408  0.0644 -0.0213  0.7224
 8494TIP3   OH246972   4.160   0.105  12.125 -0.1591 -0.2373 -0.2986
 8494TIP3    H146973   4.158   0.020  12.168 -0.6367 -0.7039 -1.2118
 8494TIP3    H246974   4.220   0.093  12.051 -1.0619 -0.1142 -1.0705
 8495TIP3   OH246975   5.301   1.042   3.228  0.1968  0.8158  0.3213
 8495TIP3    H146976   5.349   1.016   3.307  1.1140  1.1551 -0.1062
 8495TIP3    H246977   5.257   0.963   3.199  0.3914  0.5256  0.8018
 8496TIP3   OH246978   6.552   2.191  14.569  0.2625 -0.4870  0.4290
 8496TIP3    H146979   6.622   2.213  14.631  2.5796  0.9031 -2.4214
 8496TIP3    H246980   6.473   2.227  14.609  1.6885  0.6747  2.4039
 8497TIP3   OH246981   4.513   3.845  16.400 -0.5309 -0.3701  0.8800
 8497TIP3    H146982   4.540   3.912  16.464  2.0427 -0.1612 -0.3199
 8497TIP3    H246983   4.476   3.895  16.328 -2.3303 -0.5439  1.6270
 8498TIP3   OH246984   1.891   4.276  12.575 -0.2380  0.5741 -0.3728
 8498TIP3    H146985   1.816   4.283  12.635  1.3940 -0.5539  1.9725
 8498TIP3    H246986   1.903   4.364  12.541 -0.7114  1.4985  1.6853
 8499TIP3   OH246987   3.457   4.707   4.866 -0.1158 -0.4418 -0.3192
 8499TIP3    H146988   3.370   4.676   4.891  0.4610 -0.7839  1.3568
 8499TIP3    H246989   3.459   4.798   4.896 -0.1951 -0.1568 -1.1551
 8500TIP3   OH246990   1.031   1.226   1.557  0.0021  0.4912 -0.0008
 8500TIP3    H146991   0.947   1.182   1.541  0.1138 -0.3608  1.5819
 8500TIP3    H246992   1.010   1.319   1.552 -1.0515  0.2892  0.3239
 8501TIP3   OH246993   6.633   0.997   0.408 -0.0114 -0.0926 -0.2261
 8501TIP3    H146994   6.542   1.026   0.412  0.3982  1.3364 -0.8439
 8501TIP3    H246995   6.680   1.056   0.466  0.7483  0.0738 -0.9974
 8502TIP3   OH246996   5.308   1.629  11.503 -0.1885 -0.0688 -0.1334
 8502TIP3    H146997   5.366   1.616  11.428 -1.7928 -1.3920 -1.2043
 8502TIP3    H246998   5.280   1.720  11.496  1.4414  0.4775  0.1878
 8503TIP3   OH246999   6.485   1.111  12.886  0.1274 -0.2006 -0.3781
 8503TIP3    H147000   6.550   1.040  12.887  0.7405  0.3166 -1.5074
 8503TIP3    H247001   6.521   1.177  12.944  0.2515 -0.2221 -0.4300
 8504TIP3   OH247002   5.745   2.143  12.206  0.0579  0.5431 -0.7962
 8504TIP3    H147003   5.795   2.097  12.274 -0.2643  0.7947 -0.3891
 8504TIP3    H247004   5.812   2.174  12.144  0.2029 -1.7778 -1.9081
 8505TIP3   OH247005   1.845   2.078  13.875  0.2872 -0.0635 -0.2415
 8505TIP3    H147006   1.883   2.037  13.953 -0.5953  0.4477  0.4736
 8505TIP3    H247007   1.917   2.131  13.839  1.1957 -1.5836 -0.7377
 8506TIP3   OH247008   2.365   1.166  12.183 -0.8314  0.0238  0.0083
 8506TIP3    H147009   2.439   1.226  12.186 -0.6653 -0.1562 -0.3473
 8506TIP3    H247010   2.393   1.090  12.235 -0.4336 -0.3995 -0.8029
 8507TIP3   OH247011   5.997   2.422  14.668 -1.1076 -0.0449  0.5510
 8507TIP3    H147012   6.031   2.403  14.755  0.9316  0.1711 -0.1479
 8507TIP3    H247013   6.021   2.345  14.616 -0.2023  0.8213 -0.3505
 8508TIP3   OH247014   1.537   5.668   1.981  0.2316 -0.0111  0.3240
 8508TIP3    H147015   1.603   5.690   1.915 -0.1851 -1.1847 -0.5293
 8508TIP3    H247016   1.462   5.637   1.929 -1.0171  1.3179  1.2553
 8509TIP3   OH247017   1.971   6.518  15.613  0.7289  0.4028 -0.6654
 8509TIP3    H147018   2.003   6.489  15.528  1.8556 -0.4208 -0.0009
 8509TIP3    H247019   1.880   6.487  15.617  1.1068 -0.8271 -1.0181
 8510TIP3   OH247020   5.191   3.989   4.097 -0.6161  0.0688 -0.0207
 8510TIP3    H147021   5.206   4.068   4.148  1.4336  0.9245 -1.7690
 8510TIP3    H247022   5.142   4.018   4.020  1.3201  0.0416 -1.3721
 8511TIP3   OH247023   3.135   1.324   3.464 -0.0403 -0.4077 -0.2928
 8511TIP3    H147024   3.201   1.293   3.525  1.4512  1.2124 -0.9791
 8511TIP3    H247025   3.070   1.369   3.519  0.2417 -0.6782  0.2629
 8512TIP3   OH247026   0.246   3.346   4.092 -0.8933  0.3718  0.0872
 8512TIP3    H147027   0.300   3.425   4.091 -0.6768  0.2274  0.2129
 8512TIP3    H247028   0.209   3.344   4.181 -0.7496  0.2322  0.1436
 8513TIP3   OH247029   0.936   6.831   0.512  0.3486  0.0655 -0.4682
 8513TIP3    H147030   0.873   6.803   0.578  0.8927 -0.2879 -0.0852
 8513TIP3    H247031   0.921   6.772   0.437 -0.0999  0.3045 -0.5685
 8514TIP3   OH247032   5.303   5.234   1.041 -0.0219  0.4984 -0.2241
 8514TIP3    H147033   5.259   5.315   1.016 -0.9240 -0.4289 -1.7786
 8514TIP3    H247034   5.374   5.224   0.977 -0.3274 -0.2648 -0.4578
 8515TIP3   OH247035   5.726   3.899  13.206  0.0496 -0.3644 -0.2727
 8515TIP3    H147036   5.808   3.900  13.158  0.7512 -0.2569  0.8949
 8515TIP3    H247037   5.738   3.833  13.274 -0.8716 -0.4437 -0.1689
 8516TIP3   OH247038   0.763   5.863   0.092  0.2370 -0.3620 -0.1126
 8516TIP3    H147039   0.715   5.843   0.012 -0.5200 -0.2415  0.2969
 8516TIP3    H247040   0.850   5.889   0.062 -0.1705  0.1158 -0.9281
 8517TIP3   OH247041   5.989   5.359   3.825  0.0221  0.3584 -0.1951
 8517TIP3    H147042   5.984   5.348   3.730 -1.0694 -0.6621 -0.0381
 8517TIP3    H247043   6.072   5.318   3.850  1.0811  1.9885 -0.8555
 8518TIP3   OH247044   1.403   1.253  13.864  0.8366 -0.2787  0.0356
 8518TIP3    H147045   1.422   1.333  13.815  1.5330 -0.9354 -0.7900
 8518TIP3    H247046   1.341   1.281  13.932  1.7132  1.1134  0.2905
 8519TIP3   OH247047   4.185   2.763   2.641 -0.6617 -0.1112 -1.0339
 8519TIP3    H147048   4.127   2.792   2.571  0.7497 -0.4746 -2.4078
 8519TIP3    H247049   4.193   2.669   2.628  1.4692  0.1314 -1.9094
 8520TIP3   OH247050   5.796   5.576  11.517  0.4113  0.1454  0.0087
 8520TIP3    H147051   5.765   5.490  11.545  1.5605 -0.4571 -0.5364
 8520TIP3    H247052   5.876   5.591  11.567 -0.4016  1.4627  1.0092
 8521TIP3   OH247053   4.459   5.965  12.126 -0.1588  0.2398  0.1225
 8521TIP3    H147054   4.394   6.033  12.144  1.2816  1.4025  1.0985
 8521TIP3    H247055   4.467   5.965  12.030  0.1277  1.7724  0.1219
 8522TIP3   OH247056   2.134   6.799  15.594  0.1266  0.0924 -0.3761
 8522TIP3    H147057   2.082   6.738  15.542 -0.8278  0.3902  0.1902
 8522TIP3    H247058   2.071   6.866  15.622  0.8923  0.6531  0.0482
 8523TIP3   OH247059   5.969   2.598   0.947  0.7765 -0.1659  0.3583
 8523TIP3    H147060   6.055   2.559   0.963  0.9655  0.9846  2.5546
 8523TIP3    H247061   5.917   2.527   0.909  2.3834 -1.1721 -0.0630
 8524TIP3   OH247062   4.000   2.598  14.806  0.3369  0.6774  0.4454
 8524TIP3    H147063   3.951   2.527  14.765  0.5965  0.7341  0.0329
 8524TIP3    H247064   4.047   2.640  14.734 -0.1219  1.5174  0.6319
 8525TIP3   OH247065   0.118   0.867  15.457 -0.0732  0.0130  0.0284
 8525TIP3    H147066   0.164   0.783  15.446  1.4424  0.7676  0.3080
 8525TIP3    H247067   0.086   0.888  15.369  0.7332 -0.2043 -0.3294
 8526TIP3   OH247068   1.760   1.320   5.944  0.3184 -0.4919  0.5461
 8526TIP3    H147069   1.713   1.287   6.021 -0.2218  2.2977  1.5280
 8526TIP3    H247070   1.848   1.340   5.976  0.1347  0.5501  0.4595
 8527TIP3   OH247071   1.529   1.502   1.815  0.2451  0.2790  0.1611
 8527TIP3    H147072   1.570   1.539   1.737 -1.1679  0.0863 -0.7028
 8527TIP3    H247073   1.495   1.417   1.787 -1.1563  0.6383  0.7027
 8528TIP3   OH247074   2.250   0.712   2.375 -0.4061  0.6266 -0.4030
 8528TIP3    H147075   2.177   0.700   2.314 -0.0463 -4.3520 -0.2878
 8528TIP3    H247076   2.209   0.726   2.460 -1.1481  0.3272 -0.7062
 8529TIP3   OH247077   5.978   4.463  16.472 -0.9850 -0.2253  0.5220
 8529TIP3    H147078   6.051   4.451  16.411 -1.3315 -0.6160  0.1673
 8529TIP3    H247079   6.008   4.423  16.554 -1.1968 -1.3891  0.0617
 8530TIP3   OH247080   5.700   2.298   5.889 -0.1825  0.4269 -0.7436
 8530TIP3    H147081   5.755   2.376   5.896  0.8923 -0.2817 -1.0419
 8530TIP3    H247082   5.748   2.239   5.831  1.5050 -2.4135  3.0386
 8531TIP3   OH247083   3.379   6.287  14.942 -0.3818 -0.1306 -0.1777
 8531TIP3    H147084   3.330   6.288  15.025 -0.4531 -1.7747 -0.1761
 8531TIP3    H247085   3.317   6.255  14.877  0.1412 -0.4215 -0.5458
 8532TIP3   OH247086   3.838   1.083  10.932  0.6736 -0.5314  0.5085
 8532TIP3    H147087   3.841   1.056  10.840 -0.6584  0.9182  0.0102
 8532TIP3    H247088   3.758   1.043  10.966 -0.2209  1.0100  0.3070
 8533TIP3   OH247089   5.673   0.609  11.206  0.2085  0.0854 -0.9363
 8533TIP3    H147090   5.667   0.635  11.114 -1.1007  0.1457 -0.8529
 8533TIP3    H247091   5.628   0.525  11.211  2.0085 -0.8956 -0.6922
 8534TIP3   OH247092   4.647   6.279   1.340 -0.0157 -0.2709  0.7165
 8534TIP3    H147093   4.630   6.332   1.418 -2.0535  0.5720 -0.2364
 8534TIP3    H247094   4.731   6.310   1.307 -0.4367  1.3196  1.0453
 8535TIP3   OH247095   5.059   0.794   5.679  0.1192  0.0012  0.4494
 8535TIP3    H147096   5.033   0.744   5.756  0.0384  1.7160  1.5845
 8535TIP3    H247097   5.154   0.805   5.688  0.5319 -1.8391 -0.9999
 8536TIP3   OH247098   3.163   6.240  15.132  0.1288  0.0997 -0.4543
 8536TIP3    H147099   3.177   6.208  15.221  0.4838  0.0615 -0.5254
 8536TIP3    H247100   3.146   6.161  15.081  0.4108  0.0778 -0.5143
 8537TIP3   OH247101   5.828   2.845   0.852 -0.4433  0.0500  0.0980
 8537TIP3    H147102   5.882   2.766   0.856 -0.7287 -0.1268  0.6127
 8537TIP3    H247103   5.868   2.898   0.783 -0.7686 -0.9280 -0.8625
 8538TIP3   OH247104   4.905   5.528  15.870  0.2249 -0.2762  0.1842
 8538TIP3    H147105   4.866   5.503  15.954 -0.8294  0.8303  0.0605
 8538TIP3    H247106   4.840   5.503  15.805  0.2233  0.5084 -0.1331
 8539TIP3   OH247107   0.230   5.958   2.507 -0.3918  0.7191 -0.1032
 8539TIP3    H147108   0.154   5.923   2.553 -1.5418  0.4983 -2.0423
 8539TIP3    H247109   0.286   5.881   2.493 -1.2797  0.2495 -1.3056
 8540TIP3   OH247110   1.779   1.891   4.870  0.1098 -0.5586  0.3341
 8540TIP3    H147111   1.769   1.897   4.965 -0.4034  0.7795  0.2116
 8540TIP3    H247112   1.723   1.960   4.836 -0.0295 -1.2891 -0.9724
 8541TIP3   OH247113   2.916   1.635  17.076  0.4518  0.2205  0.0481
 8541TIP3    H147114   3.006   1.648  17.046  0.3722  1.1523  0.2115
 8541TIP3    H247115   2.880   1.723  17.086  0.1495 -0.0816  1.9098
 8542TIP3   OH247116   0.056   1.686  11.345 -0.1439 -0.2937 -0.3176
 8542TIP3    H147117  -0.031   1.718  11.366 -0.1749 -0.2359 -0.5294
 8542TIP3    H247118   0.089   1.650  11.427 -0.3796 -0.3447 -0.2441
 8543TIP3   OH247119   3.784   5.617  15.976  0.1411  0.0483  0.1996
 8543TIP3    H147120   3.869   5.660  15.978  0.1330  0.1156 -0.6007
 8543TIP3    H247121   3.781   5.567  16.057  0.5801  0.7286  0.6443
 8544TIP3   OH247122   2.674   2.983  12.457  0.5389 -0.4709  0.0058
 8544TIP3    H147123   2.661   2.968  12.364 -0.4898  3.9243 -0.7609
 8544TIP3    H247124   2.587   3.001  12.491  1.2370  1.1958  1.0563
 8545TIP3   OH247125   6.534   6.272  14.499 -0.8586  0.0995  0.0182
 8545TIP3    H147126   6.609   6.266  14.440 -0.7542 -0.7805  0.2368
 8545TIP3    H247127   6.543   6.358  14.541 -0.4374  0.3475 -0.5669
 8546TIP3   OH247128   1.519   2.871   2.987  0.2538 -0.0527 -0.0096
 8546TIP3    H147129   1.463   2.862   2.910  1.1450  0.7962 -0.7888
 8546TIP3    H247130   1.527   2.782   3.021  0.1373 -0.5012 -1.1187
 8547TIP3   OH247131   1.503   6.286  16.248  0.3185  0.5530 -0.2846
 8547TIP3    H147132   1.415   6.319  16.266  0.4991  0.4203  0.8903
 8547TIP3    H247133   1.512   6.293  16.153 -1.7194 -1.3099 -0.7117
 8548TIP3   OH247134   3.919   5.522   4.303 -0.2655 -0.3238 -0.0434
 8548TIP3    H147135   3.926   5.480   4.389  1.7976 -0.1858 -0.0848
 8548TIP3    H247136   4.008   5.516   4.266 -0.4546  1.9680 -1.0296
 8549TIP3   OH247137   3.096   5.631   0.518  0.1606 -0.6161 -1.0147
 8549TIP3    H147138   3.089   5.688   0.441  0.1238  0.7860 -0.0170
 8549TIP3    H247139   3.186   5.642   0.548 -0.6310  1.2780  0.8906
 8550TIP3   OH247140   0.138   2.111  16.622  0.5246  0.7689 -0.4810
 8550TIP3    H147141   0.138   2.206  16.630 -0.1711  0.7497 -0.1431
 8550TIP3    H247142   0.048   2.089  16.598  0.6862  0.1997 -0.5743
 8551TIP3   OH247143   5.088   6.195  11.072  0.0467 -0.7601 -0.2259
 8551TIP3    H147144   5.172   6.209  11.029  1.1250 -0.6604  1.8144
 8551TIP3    H247145   5.082   6.099  11.081  0.2081 -0.7364  0.1341
 8552TIP3   OH247146   5.900   3.585  11.673  0.0378 -0.0576  0.5819
 8552TIP3    H147147   5.946   3.508  11.704 -1.1722 -0.7493  0.7356
 8552TIP3    H247148   5.963   3.631  11.618  0.7824 -1.1473  0.5075
 8553TIP3   OH247149   2.365   5.921  13.597 -0.3269  0.2687 -0.2179
 8553TIP3    H147150   2.277   5.948  13.568 -1.2865 -0.6536  1.6355
 8553TIP3    H247151   2.352   5.832  13.631  1.3659  0.0618 -0.0544
 8554TIP3   OH247152   5.377   0.593   0.296  0.0095 -0.5110 -0.0837
 8554TIP3    H147153   5.463   0.553   0.291  0.3252 -0.1362  1.6088
 8554TIP3    H247154   5.365   0.637   0.212  0.4554 -2.5184 -1.2425
 8555TIP3   OH247155   3.630   0.707  10.242  0.2000 -0.2718  0.5156
 8555TIP3    H147156   3.588   0.775  10.190 -1.8745 -1.7229  0.1583
 8555TIP3    H247157   3.703   0.751  10.285 -0.4402  1.9070 -0.4797
 8556TIP3   OH247158   5.127   5.468  12.404 -0.3959 -0.1302  0.0778
 8556TIP3    H147159   5.179   5.496  12.328  0.8211  0.9435  1.2383
 8556TIP3    H247160   5.110   5.549  12.452  1.1191 -1.0260  2.2941
 8557TIP3   OH247161   5.214   1.837  13.204 -0.1862  0.3134  0.4691
 8557TIP3    H147162   5.274   1.767  13.231  0.5449 -0.1997 -2.1929
 8557TIP3    H247163   5.176   1.805  13.122 -0.6831  2.5738 -0.2480
 8558TIP3   OH247164   0.665   0.555  11.670  0.5061  0.4460  0.0441
 8558TIP3    H147165   0.760   0.553  11.683  0.3180  0.3109  1.6987
 8558TIP3    H247166   0.633   0.479  11.719 -0.3232 -0.6349 -2.0682
 8559TIP3   OH247167   4.878   1.058  13.389  0.2058  0.2196  0.1133
 8559TIP3    H147168   4.924   0.980  13.357  0.2192  0.5801 -0.7728
 8559TIP3    H247169   4.844   1.100  13.310 -0.3852  0.7548  0.6369
 8560TIP3   OH247170   5.999   1.678  14.959 -0.1921 -1.0008 -0.2342
 8560TIP3    H147171   5.956   1.727  15.029 -0.0975  0.4364 -1.1189
 8560TIP3    H247172   6.077   1.641  15.000  0.1674  0.2942  0.3170
 8561TIP3   OH247173   1.441   4.797   4.773 -0.2207  0.1899  0.5647
 8561TIP3    H147174   1.385   4.801   4.850 -1.3695 -2.6629 -0.0087
 8561TIP3    H247175   1.492   4.717   4.784  0.2279  0.1813 -1.1905
 8562TIP3   OH247176   4.267   2.017  13.330  0.0798  0.2911  0.2509
 8562TIP3    H147177   4.191   2.020  13.388  0.4670  0.8556  0.7527
 8562TIP3    H247178   4.280   1.924  13.311 -1.0844  0.2318 -0.3323
 8563TIP3   OH247179   0.765   5.978  14.746 -0.1025  0.4750 -0.1334
 8563TIP3    H147180   0.696   5.948  14.686 -0.2523  0.5397  0.0086
 8563TIP3    H247181   0.747   5.932  14.828  0.4753 -0.1038 -0.3211
 8564TIP3   OH247182   6.445   6.211   1.200 -0.6681 -0.0786 -0.0656
 8564TIP3    H147183   6.350   6.227   1.193 -0.6144 -0.5158 -2.8100
 8564TIP3    H247184   6.453   6.117   1.213 -0.5964 -0.1855 -0.8629
 8565TIP3   OH247185   2.613   2.236  10.861  0.1905  0.2432 -0.1343
 8565TIP3    H147186   2.638   2.147  10.836 -0.6779  0.3651 -1.5586
 8565TIP3    H247187   2.629   2.288  10.782 -0.0137  1.2179  0.4463
 8566TIP3   OH247188   4.276   0.538   4.508 -0.0555  0.0371 -0.0627
 8566TIP3    H147189   4.294   0.464   4.565  2.7081 -1.7271 -2.8834
 8566TIP3    H247190   4.354   0.594   4.515 -2.1498  2.9858  2.1494
 8567TIP3   OH247191   1.471   1.687  15.628 -0.0593 -0.3622  0.1473
 8567TIP3    H147192   1.489   1.661  15.718  1.0497  0.6875  0.2562
 8567TIP3    H247193   1.469   1.783  15.630  2.5399 -0.1689 -1.3231
 8568TIP3   OH247194   4.592   2.147   2.119  0.4426  0.1545 -0.5257
 8568TIP3    H147195   4.524   2.185   2.064 -1.2274  0.6436  1.7470
 8568TIP3    H247196   4.645   2.222   2.146  0.0062  0.2259  0.1571
 8569TIP3   OH247197   5.189   3.245  11.876 -0.3696  0.0964 -0.5675
 8569TIP3    H147198   5.164   3.309  11.810 -2.9201 -1.6943 -1.4845
 8569TIP3    H247199   5.181   3.291  11.959  1.5020  1.9674 -1.3293
 8570TIP3   OH247200   2.837   6.628  16.094 -0.1968 -0.0682 -0.3489
 8570TIP3    H147201   2.823   6.674  16.177  1.2512  0.8878 -0.6101
 8570TIP3    H247202   2.798   6.542  16.108  1.2897 -0.4672  1.8571
 8571TIP3   OH247203   4.207   1.751   3.381 -0.7194 -0.0034  0.1334
 8571TIP3    H147204   4.151   1.699   3.324 -0.6108  0.4628 -0.4073
 8571TIP3    H247205   4.253   1.687   3.434 -0.3109 -0.4870 -0.7801
 8572TIP3   OH247206   3.650   3.733   4.785  0.2947  0.3118 -0.3408
 8572TIP3    H147207   3.600   3.717   4.865  1.0118  0.3050  0.1116
 8572TIP3    H247208   3.658   3.646   4.745  0.5179  0.2065 -0.0718
 8573TIP3   OH247209   0.339   5.375  15.963  0.4318 -0.0644 -0.4456
 8573TIP3    H147210   0.374   5.288  15.982  0.4186 -0.4379 -1.9828
 8573TIP3    H247211   0.254   5.358  15.921 -1.1403  0.7912  2.1645
 8574TIP3   OH247212   5.698   3.597   2.612  0.2221 -0.3506  0.2999
 8574TIP3    H147213   5.708   3.672   2.554 -0.9820 -0.9758 -0.7664
 8574TIP3    H247214   5.665   3.527   2.556  1.8298 -1.8563  1.1555
 8575TIP3   OH247215   0.847   4.837  14.760  0.2506 -0.3255  0.3123
 8575TIP3    H147216   0.772   4.781  14.779 -0.6291 -0.4143 -2.8239
 8575TIP3    H247217   0.834   4.864  14.669  1.6791  3.3790  1.0228
 8576TIP3   OH247218   4.136   4.286  13.278 -0.0292  0.0618  0.1796
 8576TIP3    H147219   4.122   4.378  13.298  0.7495 -0.0191  1.2326
 8576TIP3    H247220   4.059   4.260  13.228 -1.0705  0.8704  1.2888
 8577TIP3   OH247221   6.375   4.154   0.490  0.2472 -0.0650 -0.3659
 8577TIP3    H147222   6.393   4.080   0.548 -0.2392  0.1580  0.0752
 8577TIP3    H247223   6.284   4.141   0.462  0.3792 -0.0030 -0.8402
 8578TIP3   OH247224   1.455   1.713  13.444  0.3551 -0.7793 -0.3376
 8578TIP3    H147225   1.534   1.752  13.479  0.2010 -0.5044 -0.2967
 8578TIP3    H247226   1.483   1.668  13.364  0.3487  0.2925 -0.9549
 8579TIP3   OH247227   6.737   4.356   3.681  0.2486  0.0002 -0.1749
 8579TIP3    H147228   6.665   4.406   3.720  2.4339  3.0436  0.3278
 8579TIP3    H247229   6.751   4.284   3.742  0.9863  2.3786  2.7233
 8580TIP3   OH247230   2.706   6.483   0.872  0.4163  0.0447 -0.0844
 8580TIP3    H147231   2.786   6.450   0.831  0.6878 -0.2384  0.6611
 8580TIP3    H247232   2.730   6.499   0.963 -0.3171  0.1650  0.0981
 8581TIP3   OH247233   5.937   1.315   3.554 -0.5102  0.3562  0.8523
 8581TIP3    H147234   5.937   1.294   3.461  0.2134 -1.1672  1.1538
 8581TIP3    H247235   5.850   1.290   3.584  0.1938 -2.1231  1.1177
 8582TIP3   OH247236   3.704   4.524  11.858 -0.1071 -0.7215 -0.1755
 8582TIP3    H147237   3.712   4.431  11.877 -1.7681 -0.8564  0.0067
 8582TIP3    H247238   3.784   4.563  11.894  0.3039 -1.9853  0.3237
 8583TIP3   OH247239   1.042   3.921   5.019 -0.6013  0.4941 -0.3725
 8583TIP3    H147240   1.023   3.953   5.107  1.4809 -1.0173  0.7022
 8583TIP3    H247241   1.093   3.991   4.978 -0.9757  0.9087 -0.1328
 8584TIP3   OH247242   4.814   0.694   3.545 -0.1327  0.5210 -0.2774
 8584TIP3    H147243   4.721   0.685   3.567 -0.3660 -0.3272 -1.5384
 8584TIP3    H247244   4.840   0.777   3.586 -1.1660  0.2672  0.9659
 8585TIP3   OH247245   0.753   4.112  11.703 -0.0284 -0.0330 -0.0599
 8585TIP3    H147246   0.702   4.180  11.745 -1.6555 -0.4370 -1.3032
 8585TIP3    H247247   0.809   4.077  11.773  1.1201  2.7293  0.5394
 8586TIP3   OH247248   2.809   5.039   2.747 -0.7208  0.0831  0.1665
 8586TIP3    H147249   2.809   4.974   2.676 -1.2287 -1.0594  1.1802
 8586TIP3    H247250   2.891   5.086   2.736 -1.4747  1.0354 -2.1334
 8587TIP3   OH247251   5.619   1.303   5.359  0.5350  0.0543  0.0234
 8587TIP3    H147252   5.657   1.384   5.325  0.5962  0.9247  2.0331
 8587TIP3    H247253   5.679   1.235   5.330  0.0803  0.5703 -2.3693
 8588TIP3   OH247254   0.035   0.444   2.831 -0.7993 -0.0923  0.2623
 8588TIP3    H147255   0.083   0.525   2.850  0.0811 -0.7485  0.9131
 8588TIP3    H247256   0.022   0.402   2.916 -1.8009 -0.3468 -0.0006
 8589TIP3   OH247257   5.086   5.288   3.000 -0.1789 -0.0468 -0.2643
 8589TIP3    H147258   5.076   5.262   3.091 -0.9234  0.4834 -0.1909
 8589TIP3    H247259   5.173   5.254   2.975 -0.1319 -0.5232  0.5156
 8590TIP3   OH247260   4.108   1.563   5.044  0.0049 -0.4101 -0.0506
 8590TIP3    H147261   4.191   1.556   5.090 -0.6136 -0.0952  1.1461
 8590TIP3    H247262   4.090   1.474   5.013  0.6383 -0.5382 -0.0601
 8591TIP3   OH247263   0.426   3.414   0.541 -0.6255 -0.1471 -0.2845
 8591TIP3    H147264   0.372   3.358   0.485  0.8619 -0.2874 -1.6530
 8591TIP3    H247265   0.499   3.357   0.567  1.3876  1.2919 -2.4070
 8592TIP3   OH247266   3.267   6.592  16.582  0.1041  0.4525  0.6604
 8592TIP3    H147267   3.315   6.673  16.560  2.0678 -0.9916 -0.7756
 8592TIP3    H247268   3.181   6.605  16.542  1.1627  0.9533 -1.6652
 8593TIP3   OH247269   2.952   3.781   5.988  0.2106  0.5528 -0.6068
 8593TIP3    H147270   2.961   3.863   6.037 -1.3484  1.1541 -1.2910
 8593TIP3    H247271   3.019   3.787   5.920  1.0799  0.5771  0.2134
 8594TIP3   OH247272   0.514   6.699  15.318  0.2662  0.4290 -0.2900
 8594TIP3    H147273   0.551   6.784  15.341 -0.3092  1.3520 -2.5146
 8594TIP3    H247274   0.421   6.706  15.340  0.4552 -0.1000  0.7068
 8595TIP3   OH247275   5.194   2.825  14.401  0.7637  0.4120  0.0074
 8595TIP3    H147276   5.241   2.780  14.331  1.6970  0.0271  0.8449
 8595TIP3    H247277   5.174   2.911  14.365  0.6885  0.0109 -0.9342
 8596TIP3   OH247278   5.230   6.450   1.614 -0.0787 -0.3743 -0.0712
 8596TIP3    H147279   5.279   6.517   1.568  0.4388  0.1859  1.2412
 8596TIP3    H247280   5.171   6.414   1.548  0.0763  0.9245 -0.9596
 8597TIP3   OH247281   3.359   1.197  16.633 -0.3384 -0.4686 -0.3057
 8597TIP3    H147282   3.401   1.283  16.632  0.9582 -1.0841  0.0231
 8597TIP3    H247283   3.380   1.160  16.548  0.0921 -0.9181 -0.0059
 8598TIP3   OH247284   3.062   5.788  11.257 -0.4263  0.0560  0.7884
 8598TIP3    H147285   3.074   5.720  11.192  0.3570  1.3537 -0.4740
 8598TIP3    H247286   3.043   5.741  11.338 -2.3049 -1.5899 -0.5212
 8599TIP3   OH247287   4.680   2.456   5.257 -0.6831 -0.0829  0.0217
 8599TIP3    H147288   4.689   2.412   5.341 -0.2729 -0.7541 -0.3617
 8599TIP3    H247289   4.678   2.549   5.278 -2.7083 -0.2740  0.9578
 8600TIP3   OH247290   3.279   4.031   1.918  0.4249  0.3255 -0.8531
 8600TIP3    H147291   3.361   4.070   1.886  0.7550 -0.7217 -1.3322
 8600TIP3    H247292   3.246   4.094   1.982  0.8582  1.4545 -1.7091
 8601TIP3   OH247293   1.181   5.383  12.463 -0.8251 -0.3888  0.0355
 8601TIP3    H147294   1.247   5.351  12.524  1.0734 -0.5201 -1.9477
 8601TIP3    H247295   1.114   5.314  12.461  0.8205 -2.0606 -0.6015
 8602TIP3   OH247296   4.634   0.181  15.894 -0.3141  0.3455 -0.2758
 8602TIP3    H147297   4.562   0.230  15.934 -1.2662 -0.0670 -1.4369
 8602TIP3    H247298   4.616   0.183  15.800  1.3665  0.4871 -0.6303
 8603TIP3   OH247299   1.540   3.185  13.743 -0.0756  0.2214 -0.6495
 8603TIP3    H147300   1.626   3.189  13.787 -1.2701  1.2833  1.7922
 8603TIP3    H247301   1.551   3.240  13.665  0.4216  3.8978  1.7652
 8604TIP3   OH247302   0.725   6.781  13.550  0.4046  0.5698 -0.2757
 8604TIP3    H147303   0.751   6.857  13.498  0.7205  0.6741  0.0281
 8604TIP3    H247304   0.710   6.712  13.487 -0.0487  0.9304 -0.5723
 8605TIP3   OH247305   6.726   0.020   3.052  0.0964 -0.3518  0.2982
 8605TIP3    H147306   6.646   0.061   3.019  1.0684  0.2975 -1.3943
 8605TIP3    H247307   6.697  -0.033   3.126 -1.9009 -0.1190 -0.2518
 8606TIP3   OH247308   3.928   4.578  14.915 -0.2832  0.1285  0.0993
 8606TIP3    H147309   3.911   4.609  15.004  1.2269  1.0233  0.1154
 8606TIP3    H247310   3.878   4.637  14.859 -1.3520 -0.5270  0.3531
 8607TIP3   OH247311   1.841   5.830   1.197 -0.9030 -0.6654  0.3094
 8607TIP3    H147312   1.799   5.899   1.145 -0.5389 -1.9448 -1.8146
 8607TIP3    H247313   1.784   5.820   1.274 -1.6979  1.0432 -0.0101
 8608TIP3   OH247314   3.431   0.046  15.354  0.1357 -0.5571 -0.5264
 8608TIP3    H147315   3.474   0.118  15.401 -2.3821 -0.5797  2.0867
 8608TIP3    H247316   3.367   0.090  15.297 -0.0837 -0.6525 -0.3560
 8609TIP3   OH247317   6.736   2.371  11.648  0.4016 -0.3189  0.4210
 8609TIP3    H147318   6.651   2.393  11.611  0.4786 -0.4394  0.1676
 8609TIP3    H247319   6.788   2.342  11.573  0.3048 -1.3437  0.7278
 8610TIP3   OH247320   6.615   5.011  14.333 -1.2155 -0.4055  0.5556
 8610TIP3    H147321   6.672   4.941  14.365 -1.7334 -1.8046 -1.3570
 8610TIP3    H247322   6.558   4.968  14.268 -1.1579  1.8884 -1.1615
 8611TIP3   OH247323   3.033   3.582   4.864 -0.0759 -0.4753 -0.0780
 8611TIP3    H147324   3.049   3.608   4.955  0.0421  1.2136 -0.5483
 8611TIP3    H247325   2.942   3.606   4.848 -0.2638 -1.2817 -0.2509
 8612TIP3   OH247326   1.349   0.866   6.071  0.8802 -0.4968  0.4679
 8612TIP3    H147327   1.370   0.809   6.145  1.4311  0.6228  1.2012
 8612TIP3    H247328   1.404   0.833   6.000  0.9506 -1.0771  0.7803
 8613TIP3   OH247329   6.092   0.258  16.090 -0.2387 -0.6006  0.7266
 8613TIP3    H147330   6.082   0.167  16.061 -0.4823 -0.0933 -0.8989
 8613TIP3    H247331   6.183   0.279  16.068 -1.0298  0.4775 -1.9132
 8614TIP3   OH247332   6.685   6.267   2.218  0.3740  1.0363 -0.2696
 8614TIP3    H147333   6.757   6.315   2.258  0.9568 -0.7433  0.9236
 8614TIP3    H247334   6.655   6.324   2.147 -0.6468  4.3415  2.5263
 8615TIP3   OH247335   0.629   0.753  14.571 -0.4400  0.3090 -0.2305
 8615TIP3    H147336   0.717   0.724  14.595  0.5946  1.5390 -2.2478
 8615TIP3    H247337   0.583   0.762  14.654  0.3380 -3.2248  0.7560
 8616TIP3   OH247338   2.211   2.546   2.785 -0.3869  0.6687  0.2206
 8616TIP3    H147339   2.211   2.628   2.834 -2.3624 -0.0847  1.5747
 8616TIP3    H247340   2.152   2.561   2.711 -0.7593  0.4628  0.4757
 8617TIP3   OH247341   6.082   1.954   4.525  0.2360 -0.1130  0.2157
 8617TIP3    H147342   6.054   1.902   4.601 -3.1760 -0.7468 -1.2947
 8617TIP3    H247343   6.034   2.036   4.533 -0.3291 -0.2657 -1.2946
 8618TIP3   OH247344   0.741   4.837   0.166  0.6045  0.0992  0.1114
 8618TIP3    H147345   0.661   4.877   0.132  0.6388  0.5151  0.5071
 8618TIP3    H247346   0.736   4.851   0.261  0.5867 -0.9012  0.2622
 8619TIP3   OH247347   4.460   2.794  14.895  0.3095 -0.2331 -0.1549
 8619TIP3    H147348   4.533   2.849  14.867 -1.1768  1.0338 -1.7736
 8619TIP3    H247349   4.442   2.737  14.821  0.5239 -1.5383  0.7566
 8620TIP3   OH247350   0.258   6.623   4.130  0.0059  0.4385  0.3078
 8620TIP3    H147351   0.344   6.609   4.092 -0.7983 -2.4443 -0.7221
 8620TIP3    H247352   0.202   6.558   4.088 -2.0890  0.4616  2.7700
 8621TIP3   OH247353   3.224   1.279  11.920  0.3769 -0.2368  0.1096
 8621TIP3    H147354   3.281   1.335  11.973 -0.6448  0.6529  0.3048
 8621TIP3    H247355   3.136   1.301  11.950 -0.1361 -0.7023 -1.0325
 8622TIP3   OH247356   6.272   4.648   0.804 -0.0532  0.0577  0.4715
 8622TIP3    H147357   6.207   4.578   0.813 -0.3500  0.2975  0.2021
 8622TIP3    H247358   6.356   4.604   0.813 -0.2371 -0.3417  0.2483
 8623TIP3   OH247359   3.682   3.565  12.705 -0.5292  0.0118  0.6340
 8623TIP3    H147360   3.759   3.622  12.710  0.4049 -1.0478 -0.8597
 8623TIP3    H247361   3.608   3.624  12.718  0.5038  1.0704  2.0467
 8624TIP3   OH247362   2.969   1.272   4.911 -0.1318 -0.2088 -1.2122
 8624TIP3    H147363   2.880   1.305   4.917  0.3811  1.1504 -0.6326
 8624TIP3    H247364   2.975   1.231   4.825 -1.4046 -0.6363 -1.1108
 8625TIP3   OH247365   2.041   6.628  11.312  0.5870 -0.3533 -0.0098
 8625TIP3    H147366   1.957   6.593  11.281 -0.0582  0.0668  1.2036
 8625TIP3    H247367   2.074   6.679  11.238 -1.2078  1.1295  0.1462
 8626TIP3   OH247368   3.151   1.748   4.061 -0.5913 -0.5682  0.1757
 8626TIP3    H147369   3.099   1.724   3.985  1.2172 -2.2248 -0.6227
 8626TIP3    H247370   3.165   1.842   4.052 -1.9216 -0.4116 -0.5156
 8627TIP3   OH247371   0.152   6.248   2.763 -0.3265  0.2170  0.2217
 8627TIP3    H147372   0.189   6.166   2.731 -0.0872 -0.1900  1.4986
 8627TIP3    H247373   0.227   6.299   2.795 -0.5843  0.4849  0.4129
 8628TIP3   OH247374   3.337   3.856  17.067 -0.4532 -0.4239 -0.4526
 8628TIP3    H147375   3.319   3.916  16.995  0.2332 -1.4275 -1.5027
 8628TIP3    H247376   3.251   3.828  17.097 -0.7944  1.2932  0.2664
 8629TIP3   OH247377   1.120   3.620   1.400 -0.1446  0.0437  0.2678
 8629TIP3    H147378   1.080   3.538   1.370 -1.7911  1.1269 -0.6606
 8629TIP3    H247379   1.112   3.617   1.495 -0.1196 -0.8853  0.2529
 8630TIP3   OH247380   4.153   0.639  16.848 -0.5258 -0.3445 -0.1789
 8630TIP3    H147381   4.207   0.562  16.827 -0.7968 -0.3405 -0.9167
 8630TIP3    H247382   4.143   0.684  16.765 -0.9477  0.1232  0.1228
 8631TIP3   OH247383   4.710   5.463  14.240 -0.5764  0.5007  0.2701
 8631TIP3    H147384   4.618   5.475  14.265 -1.0353  2.1833 -1.8847
 8631TIP3    H247385   4.708   5.393  14.175 -0.3336  0.5121  0.2500
 8632TIP3   OH247386   2.724   0.564  14.465 -0.4649  0.4614  0.3785
 8632TIP3    H147387   2.675   0.642  14.440 -1.3701  0.0366  0.7945
 8632TIP3    H247388   2.787   0.596  14.529  1.7366  1.5248 -2.1142
 8633TIP3   OH247389   0.790   4.056  14.183  0.6996 -0.8734  0.1360
 8633TIP3    H147390   0.803   3.999  14.108  0.9765 -2.1514  1.1301
 8633TIP3    H247391   0.707   4.029  14.221  0.7543 -0.5122  0.5320
 8634TIP3   OH247392   0.907   6.086   4.134  0.0000  0.1513  0.2140
 8634TIP3    H147393   0.863   6.004   4.156  0.5572 -0.5917 -1.3255
 8634TIP3    H247394   0.920   6.130   4.218  0.5526 -1.7788  1.1868
 8635TIP3   OH247395   5.020   2.709   4.031  0.0613 -0.8224  0.5232
 8635TIP3    H147396   4.927   2.687   4.033 -0.2294  0.3379  0.6613
 8635TIP3    H247397   5.051   2.693   4.120 -0.5471  0.8632  1.0866
 8636TIP3   OH247398   4.747   6.850   6.138  0.2456  0.2546 -0.0834
 8636TIP3    H147399   4.714   6.815   6.055  1.8356  0.1562 -0.7153
 8636TIP3    H247400   4.784   6.935   6.114  0.9465  0.1124  0.4765
 8637TIP3   OH247401   4.152   4.314  12.979 -0.2542 -0.5631 -0.2257
 8637TIP3    H147402   4.188   4.247  12.920  2.3178  0.2517  0.2975
 8637TIP3    H247403   4.129   4.266  13.058 -0.2615 -1.1130 -0.5546
 8638TIP3   OH247404   2.812   6.611   4.429  0.1064 -0.6182  0.1421
 8638TIP3    H147405   2.772   6.677   4.373 -1.7167 -2.3798 -0.7388
 8638TIP3    H247406   2.817   6.533   4.375  0.5545 -1.7135  1.6877
 8639TIP3   OH247407   0.097   1.432   0.256 -0.1419 -0.5364 -0.5333
 8639TIP3    H147408   0.139   1.420   0.170 -1.3912  0.1277 -1.2745
 8639TIP3    H247409   0.145   1.375   0.315  2.7702  1.2580 -0.9763
 8640TIP3   OH247410   4.567   4.435  14.441 -0.0150 -0.3335  0.2501
 8640TIP3    H147411   4.476   4.411  14.454 -0.1453  0.8039  1.7998
 8640TIP3    H247412   4.573   4.460  14.348 -0.9806 -1.5234 -0.1483
 8641TIP3   OH247413   4.273   1.794  15.919  0.2309  0.3252  0.1632
 8641TIP3    H147414   4.256   1.873  15.970 -1.1763 -1.1858  2.1628
 8641TIP3    H247415   4.191   1.777  15.873 -0.4543 -1.4394  1.9271
 8642TIP3   OH247416   0.003   1.993  13.075  0.4877 -0.1296 -0.3739
 8642TIP3    H147417  -0.076   1.942  13.088  0.3372  0.0305 -0.6466
 8642TIP3    H247418  -0.027   2.072  13.030  0.7382  0.1288 -0.0922
 8643TIP3   OH247419   3.234   4.190  17.084  0.5107 -0.2448  0.3099
 8643TIP3    H147420   3.291   4.182  17.007 -2.5592 -0.4347 -2.1655
 8643TIP3    H247421   3.237   4.283  17.107  0.0663  0.2161 -1.3368
 8644TIP3   OH247422   5.938   2.456   3.578  0.1526 -0.1133 -0.5144
 8644TIP3    H147423   6.029   2.431   3.563 -0.2913 -1.0320 -1.8629
 8644TIP3    H247424   5.939   2.551   3.579  1.0404 -0.1033 -1.1037
 8645TIP3   OH247425   6.563   4.692   2.392 -0.2220  0.2692 -0.5107
 8645TIP3    H147426   6.473   4.694   2.359  0.0202 -0.3190 -1.2380
 8645TIP3    H247427   6.553   4.669   2.485 -0.9423  2.5159  0.0169
 8646TIP3   OH247428   3.462   2.316   2.507 -0.1609 -0.6927  0.1815
 8646TIP3    H147429   3.482   2.225   2.527 -1.2618 -0.8059  0.8679
 8646TIP3    H247430   3.545   2.354   2.481  0.5630 -1.5852  1.1214
 8647TIP3   OH247431   1.248   1.663   5.321 -0.0192 -0.0853 -0.3115
 8647TIP3    H147432   1.271   1.598   5.387 -0.2536  0.2210  0.0780
 8647TIP3    H247433   1.156   1.684   5.339  0.1287  0.5457 -0.2618
 8648TIP3   OH247434   4.064   1.166   4.164 -0.2693  0.3845  0.4666
 8648TIP3    H147435   4.082   1.120   4.246 -1.9021 -0.5468  0.3631
 8648TIP3    H247436   4.108   1.114   4.097 -0.7449 -0.1119  0.5316
 8649TIP3   OH247437   0.433   0.393  13.864 -0.0908 -0.3778 -0.1128
 8649TIP3    H147438   0.360   0.343  13.901 -1.0398  0.8573 -0.2202
 8649TIP3    H247439   0.396   0.481  13.850  1.3219  0.1745 -0.5158
 8650TIP3   OH247440   6.589   6.364   4.737  0.2342 -0.6877  0.6911
 8650TIP3    H147441   6.558   6.400   4.654 -0.5264  1.7054  1.9069
 8650TIP3    H247442   6.682   6.345   4.723 -0.0116 -0.8661 -0.8318
 8651TIP3   OH247443   0.702   2.926   0.031  0.2144 -0.1187 -0.0411
 8651TIP3    H147444   0.705   3.020   0.047  2.7101 -0.3026  0.9866
 8651TIP3    H247445   0.710   2.917  -0.064 -0.6073  0.7058 -0.1954
 8652TIP3   OH247446   2.102   6.795  12.914 -0.0280 -0.1486 -0.5826
 8652TIP3    H147447   2.133   6.853  12.984  0.0454 -0.6144 -0.2270
 8652TIP3    H247448   2.052   6.852  12.857 -2.5200 -0.2260  1.3369
 8653TIP3   OH247449   0.537   5.937  10.381 -0.0152 -0.0748 -0.9691
 8653TIP3    H147450   0.488   6.003  10.431  0.0123 -1.2502  0.6752
 8653TIP3    H247451   0.612   5.985  10.345  1.1739  0.4335  1.9471
 8654TIP3   OH247452   3.523   0.711   5.420 -0.7330  0.1364  0.8169
 8654TIP3    H147453   3.523   0.807   5.418 -0.0771  0.1294  0.0312
 8654TIP3    H247454   3.443   0.688   5.468 -1.2189  1.0638  0.4818
 8655TIP3   OH247455   1.510   3.949   4.074 -0.5571 -0.1819 -0.6123
 8655TIP3    H147456   1.483   3.867   4.116 -1.8878 -0.2596 -1.5471
 8655TIP3    H247457   1.604   3.939   4.060 -0.9075 -2.1903 -1.9947
 8656TIP3   OH247458   2.520   5.618   4.062  0.0514 -0.0433 -0.5940
 8656TIP3    H147459   2.449   5.583   4.009  0.5608 -1.0568 -0.6288
 8656TIP3    H247460   2.596   5.620   4.003  0.2817  0.1427 -0.2979
 8657TIP3   OH247461   5.543   3.206  14.750 -0.6379 -0.0240  0.0164
 8657TIP3    H147462   5.494   3.139  14.702 -1.2892 -0.4269  1.1784
 8657TIP3    H247463   5.521   3.189  14.842  2.6068 -0.9974  0.7429
 8658TIP3   OH247464   4.386   3.459   5.231  0.1375 -0.2743 -0.0389
 8658TIP3    H147465   4.474   3.475   5.197 -0.2199  1.2799 -0.3315
 8658TIP3    H247466   4.332   3.527   5.190 -1.4212 -1.8070 -0.6907
 8659TIP3   OH247467   6.043   1.867   2.133  0.3197  0.0401 -0.1228
 8659TIP3    H147468   5.959   1.895   2.095  0.0947  1.7090  1.4965
 8659TIP3    H247469   6.108   1.922   2.091  0.6426 -1.2280 -1.3487
 8660TIP3   OH247470   6.093   2.196   5.865 -0.2621  0.3160  0.0174
 8660TIP3    H147471   6.010   2.183   5.819 -0.1410 -0.7225  0.0577
 8660TIP3    H247472   6.092   2.129   5.933 -0.2612  1.5744  1.2937
 8661TIP3   OH247473   0.255   2.060   1.984 -0.0924 -0.1352 -0.2886
 8661TIP3    H147474   0.342   2.051   2.024  1.5351  1.7047 -3.0076
 8661TIP3    H247475   0.227   2.148   2.009  0.4804  0.6257 -2.0763
 8662TIP3   OH247476   5.324   6.149  13.211 -0.0585 -0.0060  0.2952
 8662TIP3    H147477   5.261   6.181  13.275  2.7451  3.0148  1.9039
 8662TIP3    H247478   5.352   6.064  13.244 -1.7139 -0.4294  0.6675
 8663TIP3   OH247479   2.772   6.337  14.254 -0.0646 -0.4627 -0.5381
 8663TIP3    H147480   2.825   6.277  14.307  0.8985 -0.1930 -1.1662
 8663TIP3    H247481   2.729   6.393  14.319  0.4064 -0.7004 -0.0053
 8664TIP3   OH247482   2.845   0.533   5.066  0.0054 -0.3719  0.6446
 8664TIP3    H147483   2.869   0.442   5.050  1.3912  0.0459  0.1528
 8664TIP3    H247484   2.868   0.548   5.157  0.7145 -0.2534  0.4525
 8665TIP3   OH247485   1.977   0.865  15.463 -0.3362  0.1824 -0.2907
 8665TIP3    H147486   1.993   0.912  15.545 -0.2209 -0.7738  0.2580
 8665TIP3    H247487   2.062   0.864  15.419 -0.5796  1.4054 -0.8249
 8666TIP3   OH247488   2.814   1.930  12.154 -0.0884  0.0934 -0.0624
 8666TIP3    H147489   2.814   1.843  12.115  2.1361  0.5748 -1.2581
 8666TIP3    H247490   2.737   1.973  12.117 -0.5329 -0.9552 -0.3766
 8667TIP3   OH247491   4.905   4.955  12.734 -0.4613  0.0906 -0.0758
 8667TIP3    H147492   4.956   4.948  12.654 -0.9240 -1.4255 -0.2676
 8667TIP3    H247493   4.894   4.865  12.765  0.8827  0.6883  2.4732
 8668TIP3   OH247494   3.677   1.630   5.079  0.1504 -0.2447 -0.5648
 8668TIP3    H147495   3.733   1.708   5.079 -0.5125  0.2556 -1.8470
 8668TIP3    H247496   3.663   1.610   4.986 -1.4884 -0.5700 -0.2725
 8669TIP3   OH247497   4.514   6.601  11.319 -0.0280 -0.1153  0.1559
 8669TIP3    H147498   4.469   6.541  11.378 -0.5824  0.7983  0.7008
 8669TIP3    H247499   4.603   6.607  11.354 -0.2269  0.0718  0.6427
 8670TIP3   OH247500   4.266   6.350   3.869  0.0028 -0.0413  0.0624
 8670TIP3    H147501   4.302   6.271   3.829  1.6286 -0.6921  2.5428
 8670TIP3    H247502   4.201   6.318   3.931 -1.7070  0.8632 -1.1661
 8671TIP3   OH247503   6.365   4.961   1.926 -0.9066 -0.2493 -0.3432
 8671TIP3    H147504   6.311   4.903   1.873  0.1383 -2.1436  0.5743
 8671TIP3    H247505   6.321   4.963   2.011 -2.3035  2.3790 -1.0216
 8672TIP3   OH247506   4.643   6.569   3.826  0.8742  0.0750 -0.8273
 8672TIP3    H147507   4.664   6.513   3.751  0.1626 -1.2651 -0.0561
 8672TIP3    H247508   4.713   6.552   3.889 -0.5838 -1.8776  0.3962
 8673TIP3   OH247509   2.730   6.012   4.290  0.6199 -0.0423 -0.4645
 8673TIP3    H147510   2.806   6.038   4.238  0.3701  1.1407 -0.2548
 8673TIP3    H247511   2.694   6.094   4.323  0.2546 -0.7099  0.8512
 8674TIP3   OH247512   5.806   3.514   2.835 -0.0523 -0.5946  0.6456
 8674TIP3    H147513   5.743   3.443   2.825 -1.2258  0.3889  0.8916
 8674TIP3    H247514   5.782   3.578   2.769  1.0400 -0.4314  0.3819
 8675TIP3   OH247515   0.480   6.484  12.305 -0.9175 -0.5156 -0.4153
 8675TIP3    H147516   0.490   6.391  12.323 -0.4934 -0.3835  0.0643
 8675TIP3    H247517   0.485   6.526  12.391 -0.6343 -0.0150 -0.6687
 8676TIP3   OH247518   1.288   3.706   2.949  0.2870  0.2184 -0.3588
 8676TIP3    H147519   1.245   3.647   2.887 -0.4683  0.9209 -0.5372
 8676TIP3    H247520   1.289   3.658   3.032 -1.5101  0.4194 -0.1753
 8677TIP3   OH247521   2.236   0.702   2.983 -0.6780 -0.5211  0.4496
 8677TIP3    H147522   2.302   0.633   2.987  0.9650  0.9846  0.7426
 8677TIP3    H247523   2.221   0.726   3.075 -2.1425 -1.2624  0.4325
 8678TIP3   OH247524   2.902   0.691   2.290  0.1215  0.3841 -1.0485
 8678TIP3    H147525   2.879   0.599   2.300 -1.0078  0.4788 -2.5015
 8678TIP3    H247526   2.871   0.715   2.203  0.0310  2.2407 -0.5555
 8679TIP3   OH247527   3.413   0.886  14.676  0.8081 -0.3736 -0.2020
 8679TIP3    H147528   3.405   0.840  14.592  1.8195  0.5355 -0.8374
 8679TIP3    H247529   3.421   0.978  14.651  0.1691  0.0103  0.9599
 8680TIP3   OH247530   5.584   4.246  16.584 -0.0235 -0.3051  0.2528
 8680TIP3    H147531   5.679   4.239  16.578  0.1498  0.0140  2.1046
 8680TIP3    H247532   5.568   4.330  16.627 -1.1876 -0.0414 -0.6343
 8681TIP3   OH247533   1.295   3.134   5.290  0.3498 -0.1005  0.1360
 8681TIP3    H147534   1.370   3.158   5.344  0.3880  0.1230 -0.0159
 8681TIP3    H247535   1.219   3.159   5.343  0.3853  1.0468 -0.3127
 8682TIP3   OH247536   5.105   6.372  13.668 -0.2508 -0.5120 -0.3709
 8682TIP3    H147537   5.171   6.322  13.716  0.4245  0.5544 -0.1470
 8682TIP3    H247538   5.048   6.409  13.735 -0.8757 -1.1352 -0.5469
 8683TIP3   OH247539   3.452   3.831   3.848 -0.3711 -0.0478  0.3586
 8683TIP3    H147540   3.403   3.798   3.773  2.0560  0.0356 -1.3847
 8683TIP3    H247541   3.457   3.926   3.834  0.2384 -0.0513  0.5083
 8684TIP3   OH247542   4.034   1.439  11.358  0.0475 -0.1710 -0.1971
 8684TIP3    H147543   4.070   1.356  11.391  1.4216 -0.2894 -1.8419
 8684TIP3    H247544   4.009   1.487  11.437 -0.3576 -1.9580  0.8178
 8685TIP3   OH247545   1.357   6.728  12.160 -0.8594  0.7509  0.1695
 8685TIP3    H147546   1.352   6.811  12.207  0.9248  1.6225 -1.0495
 8685TIP3    H247547   1.324   6.747  12.073 -2.0219 -0.2776  0.3615
 8686TIP3   OH247548   1.119   3.405  11.536 -0.1736  0.3918 -0.2931
 8686TIP3    H147549   1.133   3.495  11.566 -1.2731  1.1625 -1.9438
 8686TIP3    H247550   1.047   3.372  11.590 -0.5457  0.9167 -0.4680
 8687TIP3   OH247551   3.813   1.724  13.145  0.2373  0.1601  1.2934
 8687TIP3    H147552   3.893   1.728  13.198  1.4337  0.3936 -0.4195
 8687TIP3    H247553   3.841   1.756  13.059 -1.1303 -1.9622 -0.0283
 8688TIP3   OH247554   1.237   0.212   5.728  0.2091 -0.2288  0.4614
 8688TIP3    H147555   1.229   0.194   5.822 -0.7508 -2.5894  0.0053
 8688TIP3    H247556   1.194   0.137   5.686  0.2721  0.9657 -1.8651
 8689TIP3   OH247557   6.012   0.052  11.460 -0.4777 -0.1536 -0.3149
 8689TIP3    H147558   6.066  -0.027  11.448 -0.5580 -0.1680 -0.5871
 8689TIP3    H247559   5.973   0.041  11.547 -0.4269 -0.3765 -0.3185
 8690TIP3   OH247560   5.036   1.618  14.783  0.5203  0.0012  0.4745
 8690TIP3    H147561   4.987   1.687  14.738  0.1141  1.4973  3.0010
 8690TIP3    H247562   4.976   1.543  14.782  1.3141 -0.7626 -3.0838
 8691TIP3   OH247563   6.350   2.980   3.751  0.3723 -0.2909 -0.1271
 8691TIP3    H147564   6.302   2.936   3.680  0.0484  1.4091 -1.0030
 8691TIP3    H247565   6.364   2.911   3.816 -2.0753 -1.1582 -0.4332
 8692TIP3   OH247566   1.742   5.932  14.824 -0.7210  0.3321  0.6988
 8692TIP3    H147567   1.710   6.003  14.768 -0.0052 -0.7256 -1.1643
 8692TIP3    H247568   1.807   5.973  14.881 -1.5726  1.4772  0.8757
 8693TIP3   OH247569   0.280   5.246  10.466  0.6829 -0.2317 -0.1949
 8693TIP3    H147570   0.186   5.234  10.452  0.8258 -2.9428  0.4927
 8693TIP3    H247571   0.293   5.340  10.465 -1.7363  0.2057 -2.1982
 8694TIP3   OH247572   5.680   0.543  14.163  0.3116 -0.0538 -0.7522
 8694TIP3    H147573   5.733   0.621  14.149  0.7286 -0.3676 -0.9562
 8694TIP3    H247574   5.702   0.485  14.090  1.2902 -1.0486  0.2886
 8695TIP3   OH247575   4.386   4.820   2.490 -0.2566 -0.0431  0.1929
 8695TIP3    H147576   4.302   4.803   2.447 -0.5970  0.3520  0.6890
 8695TIP3    H247577   4.373   4.792   2.581  0.3738 -0.6325  0.1116
 8696TIP3   OH247578   4.971   3.896   4.672  0.3946 -0.6354 -0.6073
 8696TIP3    H147579   4.945   3.825   4.613  2.6165 -1.6163 -0.4755
 8696TIP3    H247580   4.890   3.946   4.685 -0.5334 -1.2930 -3.1889
 8697TIP3   OH247581   3.873   1.168   5.484  0.0683  0.1973 -0.2472
 8697TIP3    H147582   3.849   1.082   5.518 -0.0526 -0.1261 -1.1274
 8697TIP3    H247583   3.929   1.148   5.409 -1.1565  0.8520 -1.3648
 8698TIP3   OH247584   0.441   4.215  11.187  0.5466 -0.7356 -0.0276
 8698TIP3    H147585   0.517   4.269  11.210  0.8456 -1.1022 -0.1395
 8698TIP3    H247586   0.472   4.161  11.114  0.0139 -0.5066 -0.4331
 8699TIP3   OH247587   0.690   2.189  11.548  0.3213  0.1241  0.5515
 8699TIP3    H147588   0.691   2.165  11.455 -1.1310 -1.2605  0.8575
 8699TIP3    H247589   0.778   2.169  11.579  0.4398 -0.6214 -0.2387
 8700TIP3   OH247590   4.021   1.804  17.042 -0.1055  0.2988  0.4612
 8700TIP3    H147591   4.071   1.884  17.057  0.0100  0.4859 -0.8154
 8700TIP3    H247592   4.059   1.765  16.963 -0.1086 -1.0746  1.0981
 8701TIP3   OH247593   2.509   5.042  14.728 -0.4417 -0.2856  0.7535
 8701TIP3    H147594   2.593   4.999  14.708 -0.8123 -0.2797 -0.9798
 8701TIP3    H247595   2.527   5.135  14.716 -0.7840 -0.3131  0.0197
 8702TIP3   OH247596   4.713   3.480   0.260  0.5325 -0.5153 -0.6536
 8702TIP3    H147597   4.687   3.486   0.351  0.5091  1.8529 -0.7321
 8702TIP3    H247598   4.694   3.390   0.234 -0.9876 -0.7795  1.2075
 8703TIP3   OH247599   4.121   0.153   3.848  0.3950  0.5010 -0.0248
 8703TIP3    H147600   4.110   0.229   3.790 -0.2634  1.1788  0.9472
 8703TIP3    H247601   4.032   0.134   3.879  0.5700 -0.6205 -0.1784
 8704TIP3   OH247602   3.751   6.430  11.531  0.0194  0.3551 -0.3034
 8704TIP3    H147603   3.749   6.513  11.482 -0.6733  0.5908  0.1175
 8704TIP3    H247604   3.843   6.404  11.529  0.4672  1.7739  0.6014
 8705TIP3   OH247605   0.193   0.930   5.495  0.0984  0.3031  0.3296
 8705TIP3    H147606   0.271   0.966   5.538  0.5343  0.0990 -0.2806
 8705TIP3    H247607   0.147   0.884   5.565 -0.1349  1.4869  0.9737
 8706TIP3   OH247608   5.088   6.522   4.021 -0.4754 -0.2774  0.1513
 8706TIP3    H147609   5.161   6.572   3.984 -0.1101 -0.6473  0.3615
 8706TIP3    H247610   5.129   6.462   4.083 -0.9868 -0.3237  0.4487
 8707TIP3   OH247611   1.656   0.308   0.805 -0.6635  0.3343 -0.1104
 8707TIP3    H147612   1.572   0.352   0.792 -0.5484  1.4693  2.4531
 8707TIP3    H247613   1.634   0.228   0.853 -0.5793 -1.2819 -2.5565
 8708TIP3   OH247614   2.009   4.257   3.663  0.1338  0.0134  0.6233
 8708TIP3    H147615   2.074   4.192   3.690  0.0187 -0.2441  0.2945
 8708TIP3    H247616   2.061   4.334   3.637  0.3608 -0.4468 -0.3441
 8709TIP3   OH247617   5.399   0.185   5.474  0.3607 -0.0759 -0.3865
 8709TIP3    H147618   5.347   0.105   5.464 -0.5560  0.4831 -0.2598
 8709TIP3    H247619   5.472   0.173   5.414 -0.5572 -0.3885 -1.4900
 8710TIP3   OH247620   4.534   4.088   0.964 -0.1585 -0.0711 -0.1644
 8710TIP3    H147621   4.573   4.073   0.878 -0.9861 -0.0879 -0.5475
 8710TIP3    H247622   4.511   4.181   0.964  1.1685  0.2799  0.6111
 8711TIP3   OH247623   3.897   3.373  15.932 -0.0273  0.3215  0.3377
 8711TIP3    H147624   3.821   3.314  15.928  0.6035 -0.5183  0.5339
 8711TIP3    H247625   3.932   3.360  16.020 -0.6345  1.9694  0.8616
 8712TIP3   OH247626   0.003   5.164  15.236  0.1182  0.2828  0.0157
 8712TIP3    H147627  -0.015   5.244  15.188  0.4591  0.3172 -0.0572
 8712TIP3    H247628  -0.067   5.159  15.301  1.1710  1.6784  1.3325
 8713TIP3   OH247629   4.363   0.524  14.868 -0.6943 -0.0765  0.1205
 8713TIP3    H147630   4.409   0.510  14.784  1.3590 -0.3380  1.2092
 8713TIP3    H247631   4.283   0.570  14.844  0.1947  0.5487 -1.9399
 8714TIP3   OH247632   4.933   3.763   1.592  0.5642 -0.2538 -0.1661
 8714TIP3    H147633   4.883   3.735   1.515  0.4417  1.6260 -0.8189
 8714TIP3    H247634   4.984   3.686   1.617 -2.1735 -2.0940  0.1856
 8715TIP3   OH247635   5.638   4.923   1.149 -0.4263 -0.6158  0.1225
 8715TIP3    H147636   5.633   4.828   1.159  0.0932 -0.4608  2.3122
 8715TIP3    H247637   5.707   4.950   1.210 -0.1834  1.1234 -0.8571
 8716TIP3   OH247638   4.149   1.697  14.025 -0.6378 -0.2295  0.1983
 8716TIP3    H147639   4.115   1.770  13.973 -0.0324 -0.2904 -0.3066
 8716TIP3    H247640   4.100   1.700  14.107 -0.9132  0.4847  0.0144
 8717TIP3   OH247641   6.198   6.383  11.333 -0.2890 -0.1232  0.5876
 8717TIP3    H147642   6.230   6.337  11.255  1.1885  0.6419  0.7071
 8717TIP3    H247643   6.103   6.384  11.323 -0.1772 -0.8313 -0.7563
 8718TIP3   OH247644   3.537   4.059  12.729  0.5178  0.1796  0.1079
 8718TIP3    H147645   3.624   4.068  12.768  0.1304  0.1344  1.0202
 8718TIP3    H247646   3.527   4.137  12.674  1.3909 -0.1504 -0.5373
 8719TIP3   OH247647   5.493   5.332  16.941 -0.1186 -0.9812  0.0162
 8719TIP3    H147648   5.561   5.385  16.982  0.8124 -2.4882  0.5089
 8719TIP3    H247649   5.485   5.256  16.998 -1.9863 -1.0077 -0.2374
 8720TIP3   OH247650   3.469   2.135  15.912 -0.1327 -0.1617 -0.0730
 8720TIP3    H147651   3.458   2.041  15.924  0.1384 -0.3421 -1.0992
 8720TIP3    H247652   3.558   2.152  15.941 -1.0750  0.3094  2.8336
 8721TIP3   OH247653   3.261   1.722  15.290  0.0470  0.4415 -0.6042
 8721TIP3    H147654   3.190   1.775  15.251 -0.1533  0.2969 -0.4365
 8721TIP3    H247655   3.296   1.672  15.217  0.5511  1.1490 -0.8625
 8722TIP3   OH247656   1.585   3.304  16.245 -0.3001  0.3843 -0.3157
 8722TIP3    H147657   1.528   3.267  16.313  0.7094 -0.5379  0.0666
 8722TIP3    H247658   1.590   3.397  16.267 -0.1058  0.1298  0.8119
 8723TIP3   OH247659   0.887   1.878   3.378  0.0978  0.2760 -0.5870
 8723TIP3    H147660   0.795   1.864   3.355 -0.2357  0.8900  0.3145
 8723TIP3    H247661   0.894   1.973   3.390  0.4674  0.0739  0.9228
 8724TIP3   OH247662   2.031   5.368  15.060 -0.2336 -0.1643  0.3335
 8724TIP3    H147663   2.073   5.429  14.999  1.9302 -1.0830  0.8207
 8724TIP3    H247664   1.975   5.424  15.115 -2.3115  0.6835 -2.4370
 8725TIP3   OH247665   6.028   2.375  11.749  0.3362 -0.6550 -0.2803
 8725TIP3    H147666   6.034   2.456  11.800 -0.8438 -1.4410  1.1825
 8725TIP3    H247667   5.943   2.380  11.705  1.3607  0.0442 -2.3360
 8726TIP3   OH247668   4.051   6.547  15.713  0.3027  0.3379  0.6320
 8726TIP3    H147669   3.982   6.528  15.777  0.8310 -1.6869  0.6647
 8726TIP3    H247670   4.129   6.505  15.750  1.5042  2.2863  0.4231
 8727TIP3   OH247671   6.703   5.372  15.089 -0.3319  0.1515 -0.6300
 8727TIP3    H147672   6.739   5.455  15.057  1.0119  0.2182  0.9132
 8727TIP3    H247673   6.616   5.395  15.122  0.2804  1.1218  0.3892
 8728TIP3   OH247674   1.360   0.142   2.158  0.8538  0.4054 -0.2403
 8728TIP3    H147675   1.335   0.234   2.151  1.3150  0.5294 -0.3034
 8728TIP3    H247676   1.416   0.138   2.236 -1.1896 -0.2825  1.2807
 8729TIP3   OH247677   4.275   5.406  16.673 -0.1918  0.3565  0.0731
 8729TIP3    H147678   4.291   5.385  16.581  0.6883  1.2972 -0.0210
 8729TIP3    H247679   4.357   5.382  16.717 -1.2121 -1.7515  0.9511
 8730TIP3   OH247680   1.148   5.884   4.450 -0.2776  0.1045  0.0993
 8730TIP3    H147681   1.152   5.790   4.472 -0.3469 -0.2957 -1.4476
 8730TIP3    H247682   1.176   5.888   4.358 -0.6122  1.5648  0.0358
 8731TIP3   OH247683   0.830   6.622   3.197  0.1023 -0.3793  0.2907
 8731TIP3    H147684   0.736   6.610   3.207 -0.1208  1.1332  0.2690
 8731TIP3    H247685   0.866   6.607   3.284 -0.6086  2.4568  1.1710
 8732TIP3   OH247686   0.125   3.214   2.001 -0.1020  0.4055 -0.4408
 8732TIP3    H147687   0.182   3.159   1.948 -0.0344 -0.0389  0.0938
 8732TIP3    H247688   0.178   3.292   2.019 -1.0056  1.8051 -3.2251
 8733TIP3   OH247689   1.922   2.122   1.598  0.2787  0.1770  0.1187
 8733TIP3    H147690   2.010   2.135   1.633  0.5119 -0.2294 -0.3110
 8733TIP3    H247691   1.873   2.198   1.629  1.2248  1.3107 -1.0707
 8734TIP3   OH247692   4.517   0.745  11.454  0.5598 -0.4006 -0.2660
 8734TIP3    H147693   4.578   0.806  11.496  0.0636 -1.6531  2.5224
 8734TIP3    H247694   4.573   0.686  11.403  1.4855 -0.1598  0.4448
 8735TIP3   OH247695   1.990   2.124   0.238 -0.1220 -0.2948  0.6416
 8735TIP3    H147696   2.000   2.135   0.333  1.1956 -0.0159  0.4803
 8735TIP3    H247697   2.072   2.084   0.209  0.2263  1.2615 -0.6456
 8736TIP3   OH247698   5.621   3.296  15.857  0.0434  0.5777 -0.2416
 8736TIP3    H147699   5.617   3.293  15.762  0.2257  1.2703 -0.2767
 8736TIP3    H247700   5.713   3.279  15.878 -0.1226 -0.2461 -0.1515
 8737TIP3   OH247701   6.720   5.682  15.276 -0.0027  0.1595 -0.5448
 8737TIP3    H147702   6.726   5.777  15.283  1.7568 -0.0080  0.9852
 8737TIP3    H247703   6.727   5.664  15.183 -1.8978  1.5764 -1.0157
 8738TIP3   OH247704   3.562   0.452   4.972  0.3302 -0.6594  0.2374
 8738TIP3    H147705   3.469   0.471   4.962  0.4566  0.2886  0.7737
 8738TIP3    H247706   3.585   0.487   5.058  1.3141 -0.3788 -0.1200
 8739TIP3   OH247707   4.514   0.111   0.963 -0.3990 -0.2220 -0.4238
 8739TIP3    H147708   4.539   0.193   0.920 -0.5473  0.1937  0.2633
 8739TIP3    H247709   4.419   0.104   0.948 -0.8995  1.0926  1.7036
 8740TIP3   OH247710   4.944   2.743   2.573 -0.3002  0.1782 -0.1417
 8740TIP3    H147711   4.935   2.715   2.482  0.6705 -0.2995 -0.1019
 8740TIP3    H247712   4.933   2.838   2.570 -0.8081  0.1039 -0.6840
 8741TIP3   OH247713   6.175   2.602   5.570  0.4766 -0.1410  0.3373
 8741TIP3    H147714   6.157   2.508   5.576  0.2325 -0.0798  0.6080
 8741TIP3    H247715   6.265   2.611   5.604  0.6206 -0.3141  0.0076
 8742TIP3   OH247716   5.778   5.321  15.871  0.2670  0.4314 -0.5551
 8742TIP3    H147717   5.764   5.356  15.783 -0.7738  0.6958 -0.3092
 8742TIP3    H247718   5.695   5.337  15.916  0.5695 -0.2616  0.2855
 8743TIP3   OH247719   4.926   4.343   4.613 -0.3829 -0.2123 -0.3055
 8743TIP3    H147720   4.987   4.398   4.663 -0.8944 -0.8409  1.0662
 8743TIP3    H247721   4.905   4.271   4.672 -2.3706 -0.0750 -0.7787
 8744TIP3   OH247722   5.315   1.147  13.317  0.7078 -0.2088  0.5737
 8744TIP3    H147723   5.235   1.104  13.288  0.8223 -0.1427  0.1606
 8744TIP3    H247724   5.364   1.078  13.363  0.4294 -0.2561  0.8007
 8745TIP3   OH247725   0.680   2.473  16.416 -0.3879 -0.4142 -0.6040
 8745TIP3    H147726   0.588   2.459  16.394 -0.8394 -0.7585  1.2800
 8745TIP3    H247727   0.700   2.560  16.382 -1.4893 -0.2414 -0.8538
 8746TIP3   OH247728   1.557   6.612  12.909  0.4002 -0.6429 -0.7660
 8746TIP3    H147729   1.635   6.584  12.860  1.6307  2.1286 -0.5768
 8746TIP3    H247730   1.578   6.594  13.000  0.3633 -0.8679 -0.8007
 8747TIP3   OH247731   2.379   4.022   3.467 -0.1815 -0.4822  0.0294
 8747TIP3    H147732   2.287   3.998   3.464 -0.2161 -1.0585  3.0983
 8747TIP3    H247733   2.422   3.949   3.512  1.1893  1.1895  1.5877
 8748TIP3   OH247734   6.496   5.494   5.042  0.1812 -0.5359  0.1724
 8748TIP3    H147735   6.446   5.572   5.067 -1.3558 -1.6314  0.7013
 8748TIP3    H247736   6.529   5.512   4.954 -0.7075  0.4418  0.0303
 8749TIP3   OH247737   0.925   5.764  15.283 -0.7124 -0.1619  0.0551
 8749TIP3    H147738   0.868   5.703  15.235 -0.0209 -2.0827  1.5216
 8749TIP3    H247739   0.916   5.737  15.375  2.2975 -0.3666  0.3881
 8750TIP3   OH247740   2.521   1.309  12.989  0.5355 -0.2775 -0.0060
 8750TIP3    H147741   2.492   1.283  13.076 -0.1518  0.1145 -0.1140
 8750TIP3    H247742   2.576   1.386  13.005  0.2065 -0.0539  0.0663
 8751TIP3   OH247743   1.983   3.454   4.334 -0.3591  0.1510 -0.0399
 8751TIP3    H147744   2.019   3.543   4.337 -1.8060  0.8093 -1.1449
 8751TIP3    H247745   2.035   3.409   4.267 -2.3022  1.4926 -2.6045
 8752TIP3   OH247746   1.746   3.125  13.970 -0.2723  0.2060  0.4276
 8752TIP3    H147747   1.703   3.210  13.958 -0.2524  0.1456 -0.1139
 8752TIP3    H247748   1.763   3.119  14.064 -2.7384 -0.3732  0.9182
 8753TIP3   OH247749   3.372   1.819  13.021 -1.0448 -0.0338 -0.0397
 8753TIP3    H147750   3.305   1.782  12.964 -0.7283  0.5958 -0.8380
 8753TIP3    H247751   3.444   1.842  12.963 -1.3031  2.0280  0.3539
 8754TIP3   OH247752   1.689   4.336  15.453  0.5717 -0.0601  0.1313
 8754TIP3    H147753   1.657   4.253  15.418 -1.4206  0.6576  0.1450
 8754TIP3    H247754   1.669   4.332  15.546 -0.1863  0.7214  0.0069
 8755TIP3   OH247755   2.008   1.463   3.404  0.4130 -0.0373 -0.0792
 8755TIP3    H147756   2.028   1.371   3.423 -2.4389 -0.3157  2.2105
 8755TIP3    H247757   1.968   1.461   3.318  0.0689 -1.0353  0.0811
 8756TIP3   OH247758   0.269   2.927   5.579  0.1371  0.1972 -0.1651
 8756TIP3    H147759   0.265   2.833   5.595  1.3030  0.1249 -0.1691
 8756TIP3    H247760   0.269   2.966   5.667  1.0066  0.1004 -0.1064
 8757TIP3   OH247761   3.507   4.587  14.125 -0.3998  0.1033 -0.1987
 8757TIP3    H147762   3.481   4.561  14.037 -1.7724  1.3717 -0.2041
 8757TIP3    H247763   3.444   4.544  14.183  0.5115 -0.7495  0.1916
 8758TIP3   OH247764   3.719   4.674   3.358  0.4427 -0.4286 -0.1341
 8758TIP3    H147765   3.810   4.695   3.381  0.0301  0.7016  0.5237
 8758TIP3    H247766   3.666   4.725   3.419 -0.6919  1.1182 -2.3018
 8759TIP3   OH247767   3.669   2.033  10.919  0.4087 -0.0674 -0.2004
 8759TIP3    H147768   3.626   2.081  10.849 -1.0817  0.7784  1.2337
 8759TIP3    H247769   3.656   1.941  10.897  0.5332  0.1757 -1.3491
 8760TIP3   OH247770   1.973   5.909  13.876  0.0698 -0.2134  0.3411
 8760TIP3    H147771   2.030   5.837  13.904 -1.3002 -1.2034  0.6925
 8760TIP3    H247772   2.010   5.987  13.918  1.9600 -0.5727 -0.5630
 8761TIP3   OH247773   5.800   1.844   2.488 -0.4178 -0.3334  0.3958
 8761TIP3    H147774   5.766   1.862   2.401 -1.5162 -1.2196  0.6147
 8761TIP3    H247775   5.855   1.920   2.509  2.1862 -1.3181 -2.1609
 8762TIP3   OH247776   1.151   6.079  13.749  0.1441 -0.7396  0.7361
 8762TIP3    H147777   1.179   6.064  13.659 -0.4318 -1.7602  0.7170
 8762TIP3    H247778   1.057   6.060  13.749 -0.4875  1.9540  0.9507
 8763TIP3   OH247779   0.265   5.957  14.097 -0.1575  0.1846 -0.0173
 8763TIP3    H147780   0.340   5.936  14.041  1.4793 -0.1385  2.1231
 8763TIP3    H247781   0.202   5.887  14.079 -0.2926  0.8278 -2.3479
 8764TIP3   OH247782   1.506   0.655   0.909  0.3672 -0.5288  0.2130
 8764TIP3    H147783   1.589   0.643   0.954  0.4264 -0.2515  0.1842
 8764TIP3    H247784   1.530   0.701   0.828  0.3483 -1.6181 -0.4262
 8765TIP3   OH247785   4.733   2.688   4.085  0.4016 -0.2907  0.5216
 8765TIP3    H147786   4.703   2.658   3.999  0.2516 -0.4090  0.6163
 8765TIP3    H247787   4.699   2.777   4.092 -1.2209 -0.9266  1.2598
 8766TIP3   OH247788   1.804   3.700  14.071  0.1562 -0.0957  0.3036
 8766TIP3    H147789   1.859   3.776  14.089  0.6188 -0.4459  0.3749
 8766TIP3    H247790   1.717   3.736  14.057  0.7972  0.7336 -2.1378
 8767TIP3   OH247791   0.563   3.426  14.323  0.0997 -0.2996 -0.6613
 8767TIP3    H147792   0.640   3.373  14.342  0.5283  0.5768  0.1598
 8767TIP3    H247793   0.576   3.458  14.234 -0.0719 -1.3936 -1.0923
 8768TIP3   OH247794   1.595   1.095   2.669 -0.1202  0.3776  0.2327
 8768TIP3    H147795   1.667   1.137   2.622  0.1944 -0.4259 -0.0145
 8768TIP3    H247796   1.521   1.100   2.610  0.2631 -0.5883 -0.3548
 8769TIP3   OH247797   6.006   6.330  15.148  0.0175  0.3384  0.2793
 8769TIP3    H147798   5.939   6.326  15.080 -1.3727 -1.0330  1.6428
 8769TIP3    H247799   6.086   6.301  15.104 -0.5367  0.7510 -1.0702
 8770TIP3   OH247800   5.359   5.911  11.560  0.1557 -0.5819  0.2142
 8770TIP3    H147801   5.444   5.868  11.574  0.1839 -0.5435  0.1638
 8770TIP3    H247802   5.355   5.925  11.465 -0.8972 -2.6425 -0.1031
 8771TIP3   OH247803   4.453   0.696   1.289 -0.0041  0.1210 -0.0838
 8771TIP3    H147804   4.376   0.749   1.313 -0.1483 -0.1970  0.1596
 8771TIP3    H247805   4.525   0.735   1.338 -0.0271  0.3601 -0.2382
 8772TIP3   OH247806   6.542   2.760   4.662 -0.1494 -0.6680 -0.3352
 8772TIP3    H147807   6.555   2.677   4.617  1.3778  0.5473 -2.3464
 8772TIP3    H247808   6.599   2.755   4.739  2.3690 -0.4754 -2.0291
 8773TIP3   OH247809   0.569   0.774   0.324 -0.0311 -0.3586  0.1283
 8773TIP3    H147810   0.519   0.693   0.311 -0.4352 -0.2304  0.8058
 8773TIP3    H247811   0.660   0.747   0.316 -0.1858 -0.3322 -2.6301
 8774TIP3   OH247812   3.573   3.462  14.996 -0.5469 -0.5112 -0.4814
 8774TIP3    H147813   3.627   3.384  15.009  1.7076  1.0087 -0.0894
 8774TIP3    H247814   3.578   3.509  15.079 -1.9271  0.0476 -0.6869
 8775TIP3   OH247815   6.100   2.012   0.700  0.0099  0.4014 -0.0172
 8775TIP3    H147816   6.163   2.084   0.702  1.8713 -1.1477  0.2363
 8775TIP3    H247817   6.145   1.939   0.744 -1.8479 -0.8904 -0.1252
 8776TIP3   OH247818   1.357   3.480  15.810  0.9894  0.1702  0.5287
 8776TIP3    H147819   1.443   3.522  15.814  1.5544 -0.7828 -0.7257
 8776TIP3    H247820   1.357   3.420  15.885  0.7409  1.3246  1.4881
 8777TIP3   OH247821   5.164   2.189   3.150 -0.2941 -0.1159  0.8562
 8777TIP3    H147822   5.226   2.225   3.213 -1.0001 -2.7880  3.2922
 8777TIP3    H247823   5.078   2.212   3.185 -0.7079 -0.5411  0.1457
 8778TIP3   OH247824   2.367   2.215  11.911 -0.3709  0.1313 -0.1300
 8778TIP3    H147825   2.293   2.171  11.954  0.9054 -0.0925  1.9361
 8778TIP3    H247826   2.350   2.308  11.922 -0.6304  0.0930 -0.1968
 8779TIP3   OH247827   1.784   3.559   4.071  0.4403 -0.2221 -0.0273
 8779TIP3    H147828   1.726   3.566   4.147  2.8515 -0.9997  2.0122
 8779TIP3    H247829   1.763   3.636   4.018 -1.4115  0.2907  1.3520
 8780TIP3   OH247830   4.302   1.701  12.969  0.2230 -0.3016  0.4614
 8780TIP3    H147831   4.287   1.634  12.902 -1.7304 -0.6638  1.1877
 8780TIP3    H247832   4.236   1.768  12.951  0.1785 -0.0314  1.5436
 8781TIP3   OH247833   6.357   1.492   2.681  0.2484  0.1963 -0.1880
 8781TIP3    H147834   6.309   1.498   2.598  0.4237  1.5355 -0.2084
 8781TIP3    H247835   6.310   1.550   2.740 -0.2256 -1.1946  0.8533
 8782TIP3   OH247836   3.673   6.215   3.856  0.3134 -0.3748  0.0674
 8782TIP3    H147837   3.716   6.296   3.884 -2.1819  0.7693  0.9285
 8782TIP3    H247838   3.579   6.233   3.866 -0.3498 -3.3424  0.1732
 8783TIP3   OH247839   3.533   1.542  15.459  0.1387 -0.3973  0.2914
 8783TIP3    H147840   3.495   1.470  15.408 -1.6268  1.1984 -0.7962
 8783TIP3    H247841   3.461   1.603  15.471  0.8620 -0.0192  3.6019
 8784TIP3   OH247842   2.805   0.994  15.750 -0.3825  0.4779 -0.2848
 8784TIP3    H147843   2.897   0.967  15.756 -0.7712 -1.6868 -2.4826
 8784TIP3    H247844   2.759   0.931  15.805 -0.5687  1.8492  1.1951
 8785TIP3   OH247845   1.993   4.029  16.610  0.1560 -0.8719  0.4716
 8785TIP3    H147846   1.978   3.939  16.583 -1.1748 -0.3991 -0.5009
 8785TIP3    H247847   1.924   4.047  16.674 -1.7243  0.3955 -1.7441
 8786TIP3   OH247848   2.001   1.117  14.840 -0.6042 -0.0264  0.0315
 8786TIP3    H147849   1.938   1.095  14.908  0.1727  2.1265  1.5383
 8786TIP3    H247850   1.951   1.167  14.775 -0.3343  3.0519  1.9744
 8787TIP3   OH247851   3.376   2.767   3.015  0.2489  0.0669  0.6430
 8787TIP3    H147852   3.386   2.674   2.991  1.7737  0.3714 -0.0606
 8787TIP3    H247853   3.334   2.807   2.939  0.6592  0.1515  0.4563
 8788TIP3   OH247854   6.166   1.863  15.363 -0.2286  0.3158 -0.7280
 8788TIP3    H147855   6.155   1.936  15.423 -0.9515 -1.3400  1.2836
 8788TIP3    H247856   6.256   1.832  15.378 -0.4937 -0.2580 -0.2809
 8789TIP3   OH247857   5.667   0.180   5.311 -0.2044 -0.2495 -0.0758
 8789TIP3    H147858   5.668   0.108   5.374  1.6878 -0.4950 -0.3274
 8789TIP3    H247859   5.759   0.204   5.301 -0.7769  2.2159 -0.0103
 8790TIP3   OH247860   0.664   2.883  16.497  0.0153 -0.6843 -0.0281
 8790TIP3    H147861   0.615   2.820  16.549  0.1780 -1.6147 -0.9808
 8790TIP3    H247862   0.712   2.830  16.433 -2.8953  0.5364 -3.5131
 8791TIP3   OH247863   2.769   6.601  12.430 -0.1311  0.0037  0.0628
 8791TIP3    H147864   2.780   6.665  12.360 -1.2833 -0.5987 -0.6899
 8791TIP3    H247865   2.711   6.643  12.493  0.9492  0.5667  0.7186
 8792TIP3   OH247866   5.342   0.731   1.528 -0.0711  0.1945 -1.0012
 8792TIP3    H147867   5.292   0.713   1.448  0.0486 -0.5403 -0.9195
 8792TIP3    H247868   5.281   0.779   1.584 -0.6729 -0.6205 -0.9338
 8793TIP3   OH247869   3.810   4.096  12.404 -0.0247  0.0294 -0.7334
 8793TIP3    H147870   3.901   4.077  12.382 -0.1418  0.1209 -1.3107
 8793TIP3    H247871   3.814   4.174  12.459  0.3448 -0.7628  0.4192
 8794TIP3   OH247872   4.588   0.161  15.634  0.2984 -0.3021  0.6310
 8794TIP3    H147873   4.628   0.183  15.550  2.4612 -0.9002  1.4570
 8794TIP3    H247874   4.556   0.071  15.623 -0.7292  0.1075  0.0401
 8795TIP3   OH247875   3.407   4.977  13.566 -0.1520  0.0595  0.1422
 8795TIP3    H147876   3.451   5.062  13.557 -0.8134  0.3928 -0.0171
 8795TIP3    H247877   3.475   4.912  13.546  0.2555  0.5650 -0.1417
 8796TIP3   OH247878   3.195   1.671   1.681 -0.1359  0.1089 -0.5855
 8796TIP3    H147879   3.193   1.682   1.586 -1.0585  0.5182 -0.5316
 8796TIP3    H247880   3.276   1.624   1.698 -0.7617 -1.4646 -1.7389
 8797TIP3   OH247881   5.599   6.507   3.231 -0.4150 -0.6659  0.2486
 8797TIP3    H147882   5.672   6.462   3.189  0.3830 -1.4072  2.3230
 8797TIP3    H247883   5.535   6.520   3.160  0.9346 -1.6473 -1.2119
 8798TIP3   OH247884   0.077   5.282  13.839  0.3536 -0.0502  0.4947
 8798TIP3    H147885   0.096   5.344  13.768 -0.2366  0.2262  0.5644
 8798TIP3    H247886   0.037   5.336  13.907  1.1086 -0.2796  1.1309
 8799TIP3   OH247887   0.881   2.614   1.845 -0.1830 -0.5169  1.1815
 8799TIP3    H147888   0.833   2.603   1.927 -0.8276 -1.8525  0.6667
 8799TIP3    H247889   0.917   2.702   1.849 -1.7188  0.0999  2.1021
 8800TIP3   OH247890   5.377   0.123   0.187 -0.0464  0.1076 -0.2491
 8800TIP3    H147891   5.416   0.180   0.120  0.7202  0.2695  0.3143
 8800TIP3    H247892   5.451   0.071   0.219 -0.8165 -1.5943 -1.1019
 8801TIP3   OH247893   1.149   0.863   5.457  0.1417  0.3494  0.3214
 8801TIP3    H147894   1.174   0.951   5.429  1.0397  0.1317  0.3911
 8801TIP3    H247895   1.221   0.834   5.514  0.0912 -0.5980 -0.0651
 8802TIP3   OH247896   6.665   5.650  14.055  0.0804 -0.2177 -0.0918
 8802TIP3    H147897   6.581   5.617  14.087 -1.1986  0.3060 -2.6676
 8802TIP3    H247898   6.653   5.745  14.048  1.0714 -0.0707  0.0030
 8803TIP3   OH247899   5.877   0.517   6.444  0.7916 -0.0431 -0.1645
 8803TIP3    H147900   5.940   0.557   6.385  0.3543  0.7816 -0.0949
 8803TIP3    H247901   5.828   0.591   6.480  0.5392 -0.5867  0.6413
 8804TIP3   OH247902   0.077   3.377  14.774  0.1822 -0.3544 -0.0898
 8804TIP3    H147903   0.017   3.430  14.826 -1.0607  0.4750 -2.2675
 8804TIP3    H247904   0.163   3.416  14.789 -0.6825  2.3007 -1.5209
 8805TIP3   OH247905   5.373   3.195   0.926  0.2583  0.0379 -0.2748
 8805TIP3    H147906   5.316   3.119   0.917 -0.3245  0.2466  1.2832
 8805TIP3    H247907   5.461   3.162   0.910 -0.1613 -0.5527 -1.4542
 8806TIP3   OH247908   1.313   3.282  11.828  0.5286 -0.1561 -0.3015
 8806TIP3    H147909   1.281   3.365  11.793  0.5762 -0.3526 -0.8125
 8806TIP3    H247910   1.359   3.306  11.909  1.2320  0.4116 -0.8601
 8807TIP3   OH247911   3.018   1.481  12.377 -0.2928  0.3349  0.0554
 8807TIP3    H147912   3.084   1.431  12.329  0.5126  0.9308  0.5178
 8807TIP3    H247913   2.939   1.473  12.324  0.1189 -0.4747 -0.4593
 8808TIP3   OH247914   3.357   3.587  11.832  0.5245  0.1632 -0.7988
 8808TIP3    H147915   3.415   3.662  11.825 -0.2576  0.9895  0.9159
 8808TIP3    H247916   3.412   3.517  11.865  0.8531  0.5219 -0.5780
 8809TIP3   OH247917   5.873   5.893   2.671 -0.7768 -0.1635  0.1669
 8809TIP3    H147918   5.938   5.962   2.658 -0.3460 -0.3589  1.1577
 8809TIP3    H247919   5.800   5.938   2.715 -1.9277  0.3491 -2.1234
 8810TIP3   OH247920   3.710   6.446  15.550  0.0759 -0.0008  0.2198
 8810TIP3    H147921   3.669   6.377  15.602 -1.0259 -0.2350 -0.9186
 8810TIP3    H247922   3.637   6.491  15.507  0.9169  0.5269 -0.7099
 8811TIP3   OH247923   3.009   3.429   2.820 -0.0474  0.2131 -0.0265
 8811TIP3    H147924   2.968   3.385   2.894 -0.4968 -0.6029 -0.7312
 8811TIP3    H247925   2.935   3.465   2.770  0.2961  1.4909  0.3594
 8812TIP3   OH247926   0.831   1.966  15.423 -0.2232 -0.7512  0.9271
 8812TIP3    H147927   0.827   1.974  15.328  0.0949 -1.9822  0.7883
 8812TIP3    H247928   0.797   2.049  15.456 -0.2166 -0.2601 -0.2580
 8813TIP3   OH247929   4.791   2.331   2.206  0.7537  0.4729  0.0940
 8813TIP3    H147930   4.845   2.410   2.196 -0.7638  1.8742  2.1540
 8813TIP3    H247931   4.853   2.264   2.236  1.5053  1.9183  1.9904
 8814TIP3   OH247932   3.114   6.273  14.264 -0.2509 -0.4754  0.7699
 8814TIP3    H147933   3.187   6.259  14.324  1.8221 -0.0331 -1.4877
 8814TIP3    H247934   3.082   6.361  14.284  1.3333  0.2298  0.3576
 8815TIP3   OH247935   6.093   6.103   2.580 -0.7840  0.4893  0.1292
 8815TIP3    H147936   6.078   6.069   2.492 -1.1137  1.5875 -0.2566
 8815TIP3    H247937   6.170   6.159   2.571  0.1376 -0.6071  0.8869
 8816TIP3   OH247938   0.982   0.449  13.194 -0.1053 -0.3730 -0.1647
 8816TIP3    H147939   1.008   0.510  13.125 -0.4090  0.8403  0.7644
 8816TIP3    H247940   0.892   0.424  13.171 -0.0040 -0.4348 -0.5098
 8817TIP3   OH247941   4.941   3.744  12.208 -0.2396 -0.3096 -0.1060
 8817TIP3    H147942   5.009   3.796  12.165  0.3963  0.4211  1.7020
 8817TIP3    H247943   4.881   3.720  12.137  0.8354  0.7120 -1.4129
 8818TIP3   OH247944   1.077   1.904   4.608  0.0230 -0.1261 -0.4941
 8818TIP3    H147945   1.108   1.932   4.522  0.0153 -0.6989 -0.6905
 8818TIP3    H247946   1.108   1.971   4.668  2.3180 -1.0520 -0.5709
 8819TIP3   OH247947   4.732   5.001   3.910  0.1344 -0.0169 -0.0436
 8819TIP3    H147948   4.655   5.031   3.957 -0.2509 -0.8084 -0.1511
 8819TIP3    H247949   4.761   5.078   3.860 -1.3073 -0.0222 -0.9487
 8820TIP3   OH247950   2.412   2.851   1.165 -0.1578 -0.2880 -0.7298
 8820TIP3    H147951   2.412   2.785   1.094 -1.5961 -0.2854 -0.7615
 8820TIP3    H247952   2.502   2.885   1.165 -0.1107 -0.2699 -2.5789
 8821TIP3   OH247953   3.077   4.742   5.795  0.3043 -0.1361 -0.4186
 8821TIP3    H147954   3.127   4.808   5.747  1.1586 -0.4831 -0.0264
 8821TIP3    H247955   3.051   4.786   5.876 -0.7350  0.2977 -0.9610
 8822TIP3   OH247956   5.329   4.047  12.289 -0.3950 -0.0367 -0.0278
 8822TIP3    H147957   5.318   4.142  12.291  0.5469  0.1010 -0.5224
 8822TIP3    H247958   5.360   4.023  12.376  0.2429  0.2408 -0.1736
 8823TIP3   OH247959   5.559   6.583  11.398  0.5067 -0.3872  0.2241
 8823TIP3    H147960   5.515   6.586  11.314  0.3753 -0.5192  0.2889
 8823TIP3    H247961   5.644   6.625  11.382  0.8731 -1.2754 -0.2045
 8824TIP3   OH247962   4.442   1.512   1.534 -0.3074  0.1343 -0.4051
 8824TIP3    H147963   4.362   1.536   1.581  0.1269  0.1215  0.3687
 8824TIP3    H247964   4.513   1.544   1.590  0.3062 -2.6377  0.5967
 8825TIP3   OH247965   3.085   5.994   4.706 -0.1271  0.6339 -0.6356
 8825TIP3    H147966   3.171   5.976   4.667 -0.2971 -0.4138 -0.5537
 8825TIP3    H247967   3.103   6.004   4.800 -0.1483 -0.0919 -0.5454
 8826TIP3   OH247968   3.351   2.730   1.448  0.6018 -0.0816 -0.0364
 8826TIP3    H147969   3.317   2.664   1.509 -1.7940 -1.0361 -2.2153
 8826TIP3    H247970   3.409   2.681   1.390 -0.1603 -0.0582 -0.8474
 8827TIP3   OH247971   6.573   5.172  14.993  0.0643 -0.0599 -0.3643
 8827TIP3    H147972   6.627   5.246  15.024  0.1828  1.0496 -2.9362
 8827TIP3    H247973   6.511   5.156  15.064  1.4579  1.0473  1.1860
 8828TIP3   OH247974   4.045   2.103  16.666 -0.2645 -0.1312  0.3035
 8828TIP3    H147975   4.045   2.197  16.648 -0.9624 -0.2991 -0.6090
 8828TIP3    H247976   3.981   2.092  16.737 -0.7270 -0.0108 -0.0939
 8829TIP3   OH247977   6.188   6.503  12.960  0.3629 -0.3293  0.3636
 8829TIP3    H147978   6.166   6.535  13.047 -0.9071  1.5174 -0.5647
 8829TIP3    H247979   6.111   6.452  12.934  0.1432  0.2580 -0.1739
 8830TIP3   OH247980   2.820   2.277  14.349  0.0638  0.0559 -0.0223
 8830TIP3    H147981   2.843   2.287  14.441  1.0925 -0.9035 -0.1584
 8830TIP3    H247982   2.878   2.336  14.302  0.8122 -0.7817 -0.1851
 8831TIP3   OH247983   6.033   1.974  16.731  0.0538  0.3604 -0.4435
 8831TIP3    H147984   6.044   2.064  16.700  0.8103  0.2925 -0.3942
 8831TIP3    H247985   6.116   1.931  16.709 -0.2082 -0.2576 -0.2380
 8832TIP3   OH247986   3.050   0.825   3.839  0.0927  0.0334 -0.3573
 8832TIP3    H147987   3.001   0.773   3.903  2.2279 -0.5906  0.8526
 8832TIP3    H247988   3.086   0.898   3.889 -0.3635  1.0389 -1.4331
 8833TIP3   OH247989   0.981   5.713   3.269  0.1662 -0.0396 -0.1114
 8833TIP3    H147990   0.895   5.674   3.251  0.2000 -0.2305  0.1312
 8833TIP3    H247991   0.976   5.741   3.361  0.0018  0.9019 -0.3907
 8834TIP3   OH247992   2.764   3.863  16.926 -0.4152 -0.3133  0.2811
 8834TIP3    H147993   2.807   3.909  16.854 -2.1141  0.0326 -0.5534
 8834TIP3    H247994   2.769   3.923  17.001  0.9417 -0.4816  0.3466
 8835TIP3   OH247995   6.485   0.300   2.363 -0.1066  0.0990 -0.4343
 8835TIP3    H147996   6.495   0.238   2.292  1.4229 -0.1387 -0.0643
 8835TIP3    H247997   6.541   0.374   2.338  0.8355 -0.1902  0.6897
 8836TIP3   OH247998   1.918   3.448   6.618 -0.6131 -0.1755 -0.8855
 8836TIP3    H147999   1.977   3.377   6.593 -1.8750 -1.0413 -1.4521
 8836TIP3    H248000   1.969   3.528   6.599  1.1245 -0.8670  0.5084
 8837TIP3   OH248001   6.426   4.007   2.990  0.3924  0.1245  0.5293
 8837TIP3    H148002   6.381   4.065   3.052  1.7261 -1.6252  3.3545
 8837TIP3    H248003   6.380   3.923   2.999  0.6616 -0.1910 -0.8622
 8838TIP3   OH248004   4.551   1.622   6.483 -1.1238 -0.2611  0.2381
 8838TIP3    H148005   4.607   1.575   6.421  0.6741  1.1341  0.6756
 8838TIP3    H248006   4.533   1.706   6.439 -0.9203  0.2124  1.0356
 8839TIP3   OH248007   1.334   5.382  12.732  0.1212 -0.2651  0.6468
 8839TIP3    H148008   1.313   5.448  12.799  0.2343 -0.5454  0.9608
 8839TIP3    H248009   1.406   5.421  12.682 -0.7883  0.4820 -0.1175
 8840TIP3   OH248010   0.110   4.585   0.464 -0.1887 -0.2366  0.2140
 8840TIP3    H148011   0.133   4.677   0.450 -0.4300 -0.4737 -1.9669
 8840TIP3    H248012   0.015   4.582   0.455 -0.0876 -0.8440 -0.7706
 8841TIP3   OH248013   6.593   0.374   3.543 -0.1706 -0.0061 -0.1938
 8841TIP3    H148014   6.632   0.444   3.595 -2.4553  0.1931  1.4267
 8841TIP3    H248015   6.501   0.399   3.536 -0.1000 -0.2754 -4.0673
 8842TIP3   OH248016   2.611   4.875   0.023 -0.4774 -0.3505 -0.2655
 8842TIP3    H148017   2.516   4.872   0.029 -0.4661  1.1094  1.1344
 8842TIP3    H248018   2.629   4.932  -0.052 -0.6592 -1.8996 -1.5436
 8843TIP3   OH248019   6.818   3.344  15.864 -0.3801  0.3489  0.6913
 8843TIP3    H148020   6.738   3.396  15.860 -1.9201 -1.8605  0.9170
 8843TIP3    H248021   6.802   3.271  15.805  1.6750  0.0526  0.4335
 8844TIP3   OH248022   4.994   0.930   2.286 -0.9743 -0.0557 -0.2992
 8844TIP3    H148023   5.082   0.924   2.250 -1.3116 -0.3985 -1.0772
 8844TIP3    H248024   5.003   0.991   2.360 -0.1233  0.0306 -0.4628
 8845TIP3   OH248025   1.164   1.158  11.502  0.2194 -0.0570  0.2129
 8845TIP3    H148026   1.152   1.097  11.575  1.0642  1.4159  1.6599
 8845TIP3    H248027   1.258   1.177  11.501 -0.0134  1.1796 -0.2148
 8846TIP3   OH248028   1.782   6.482  14.614 -0.3166 -0.6596  0.1199
 8846TIP3    H148029   1.768   6.575  14.625  0.7191 -0.6011  1.2181
 8846TIP3    H248030   1.695   6.445  14.604 -0.8698  0.2516  1.2702
 8847TIP3   OH248031   6.477   5.821   2.859 -0.0724 -0.3406 -0.5488
 8847TIP3    H148032   6.459   5.727   2.858 -0.0106 -0.3525 -0.5907
 8847TIP3    H248033   6.436   5.852   2.939  0.5752 -0.5399 -0.1254
 8848TIP3   OH248034   6.430   2.120  15.279 -0.0307 -0.3096  0.0063
 8848TIP3    H148035   6.407   2.164  15.198 -0.0457 -1.8772 -0.8889
 8848TIP3    H248036   6.435   2.027  15.255  0.4916 -0.7509  1.6794
 8849TIP3   OH248037   4.166   6.440  13.063  0.0595  0.2383 -0.2875
 8849TIP3    H148038   4.203   6.407  12.981 -1.5957 -0.3694 -0.8158
 8849TIP3    H248039   4.075   6.411  13.062  0.5854 -2.1353  2.9865
 8850TIP3   OH248040   0.638   0.238   0.691  0.1859  0.4951  0.2997
 8850TIP3    H148041   0.576   0.166   0.688 -0.4200  1.0254 -0.7799
 8850TIP3    H248042   0.620   0.283   0.773  0.8230 -0.7825  1.1602
 8851TIP3   OH248043   6.393   1.913   3.020 -0.3609  0.0027  0.9651
 8851TIP3    H148044   6.461   1.869   2.968  1.0116  1.4518  1.4769
 8851TIP3    H248045   6.384   1.999   2.979 -2.1734 -0.2723  0.6996
 8852TIP3   OH248046   4.103   3.207   0.537 -0.1734  0.0035  0.4920
 8852TIP3    H148047   4.018   3.249   0.542  0.1814  0.8112  0.0120
 8852TIP3    H248048   4.166   3.277   0.557  0.4759 -0.0750 -1.0977
 8853TIP3   OH248049   2.965   2.777  12.093 -0.2626 -0.3227  0.1868
 8853TIP3    H148050   2.930   2.860  12.060  1.0755 -0.1008 -0.7917
 8853TIP3    H248051   2.948   2.715  12.022  2.7939  0.1920 -1.1737
 8854TIP3   OH248052   4.958   6.395   3.441 -0.3704 -0.1252  0.1359
 8854TIP3    H148053   4.969   6.301   3.423  1.3882 -0.0121  0.4087
 8854TIP3    H248054   4.995   6.438   3.364  0.7891  0.3205  0.9044
 8855TIP3   OH248055   2.938   3.071  12.489 -0.5070  0.1925 -0.3474
 8855TIP3    H148056   2.952   3.145  12.430  0.1433 -0.0775 -0.5341
 8855TIP3    H248057   2.849   3.041  12.467 -0.0833 -0.2272 -1.5583
 8856TIP3   OH248058   6.607   5.020  11.611  0.1296  0.5997  0.3350
 8856TIP3    H148059   6.658   4.961  11.556 -0.2496  0.1395  0.4716
 8856TIP3    H248060   6.635   5.108  11.584 -1.0460  0.4324 -1.5562
 8857TIP3   OH248061   0.513   2.282  14.930  0.2824  0.0381 -0.3407
 8857TIP3    H148062   0.514   2.186  14.926 -0.1559 -0.0567  1.2255
 8857TIP3    H248063   0.552   2.309  14.847 -0.1664 -1.4828 -1.0941
 8858TIP3   OH248064   2.514   5.371   2.258 -0.4476 -0.2210 -0.3281
 8858TIP3    H148065   2.600   5.377   2.217 -0.1375  0.1801  0.3453
 8858TIP3    H248066   2.462   5.316   2.200 -0.1629  0.6711 -1.4676
 8859TIP3   OH248067   2.883   4.647   1.191  0.4853  0.2210  0.7116
 8859TIP3    H148068   2.908   4.700   1.116  0.7333  1.6236  1.7346
 8859TIP3    H248069   2.965   4.616   1.228  0.3589 -0.5640  0.3538
 8860TIP3   OH248070   5.291   1.286  16.301 -0.3578  0.2712 -0.6654
 8860TIP3    H148071   5.381   1.263  16.276 -0.1552  0.8558 -0.4949
 8860TIP3    H248072   5.293   1.382  16.311 -0.5174  0.1118  1.2119
 8861TIP3   OH248073   4.237   0.042   0.029  0.5251 -0.2104  0.6859
 8861TIP3    H148074   4.280   0.126   0.042  0.2818 -0.1442  1.0884
 8861TIP3    H248075   4.300  -0.010  -0.022  1.4145 -0.3910  1.9315
 8862TIP3   OH248076   0.802   6.520   5.200  0.0994  0.1513 -0.4677
 8862TIP3    H148077   0.726   6.572   5.174 -1.2233 -0.4694  1.8916
 8862TIP3    H248078   0.776   6.430   5.180  0.4520 -0.0159 -0.1699
 8863TIP3   OH248079   5.586   1.028  12.324 -0.6450  0.4335  0.1082
 8863TIP3    H148080   5.560   0.989  12.240  0.8897 -1.5927  0.5013
 8863TIP3    H248081   5.564   1.121  12.315 -0.7428  0.2336 -2.4289
 8864TIP3   OH248082   5.951   0.130   1.646 -0.2455  0.8514 -0.5721
 8864TIP3    H148083   5.932   0.056   1.704  2.0426  0.4683 -0.2346
 8864TIP3    H248084   5.988   0.197   1.703  0.3408  1.1779 -1.3177
 8865TIP3   OH248085   0.360   1.194   1.910 -0.2095  0.3716  0.0478
 8865TIP3    H148086   0.373   1.223   1.820 -0.5501 -1.0953 -0.5032
 8865TIP3    H248087   0.447   1.164   1.939  0.2012  2.0865  0.7084
 8866TIP3   OH248088   5.025   2.547   0.241  0.0279 -0.6079 -0.0737
 8866TIP3    H148089   4.959   2.479   0.229  0.7715 -1.4500  0.4891
 8866TIP3    H248090   5.011   2.607   0.168 -0.3409 -1.6125 -0.8488
 8867TIP3   OH248091   3.657   3.680  16.193  0.1814 -0.2333  0.4670
 8867TIP3    H148092   3.627   3.594  16.162  1.9781 -1.1163  1.0243
 8867TIP3    H248093   3.634   3.741  16.124 -1.3969 -1.1076  0.1861
 8868TIP3   OH248094   4.903   5.464  14.455  0.1125  0.7019 -0.0418
 8868TIP3    H148095   4.832   5.467  14.391  0.3718  0.0583 -0.3628
 8868TIP3    H248096   4.931   5.373  14.456 -0.8001  0.3894  2.0177
 8869TIP3   OH248097   2.912   0.657   4.409 -0.2989 -0.1855  0.2183
 8869TIP3    H148098   2.865   0.585   4.367 -0.2225  0.0078 -0.2012
 8869TIP3    H248099   2.889   0.734   4.358 -0.5905  0.1374  0.8265
 8870TIP3   OH248100   4.639   4.480   5.009  0.0510  0.4678 -0.1525
 8870TIP3    H148101   4.587   4.441   5.080 -0.9423  1.6668 -0.1856
 8870TIP3    H248102   4.695   4.544   5.053  1.5503 -0.8077 -0.1202
 8871TIP3   OH248103   5.302   4.335  13.227  0.1620  0.0897  0.7611
 8871TIP3    H148104   5.315   4.293  13.312 -0.0812  1.0407  1.2834
 8871TIP3    H248105   5.390   4.366  13.203  0.4053 -0.9814  0.2164
 8872TIP3   OH248106   3.004   5.367  12.373  0.7504 -0.1737 -0.4148
 8872TIP3    H148107   3.066   5.410  12.314  1.0930  0.2222  0.2112
 8872TIP3    H248108   3.038   5.386  12.461  0.2170 -0.6868 -0.0863
 8873TIP3   OH248109   6.186   1.323  12.400 -0.2875 -0.3009 -0.4229
 8873TIP3    H148110   6.090   1.322  12.402 -0.2993 -0.7922 -0.9095
 8873TIP3    H248111   6.208   1.369  12.319 -0.0715  1.7540  0.7292
 8874TIP3   OH248112   1.319   0.548   5.987  0.1797 -0.1267  0.0382
 8874TIP3    H148113   1.402   0.595   5.998  0.7554 -1.2177  0.5107
 8874TIP3    H248114   1.271   0.599   5.922  0.8085  1.0672  0.4844
 8875TIP3   OH248115   0.444   1.014   0.196  0.5506  0.3183 -0.6763
 8875TIP3    H148116   0.473   0.924   0.214  0.1194  0.3806  0.4846
 8875TIP3    H248117   0.348   1.007   0.193  0.4797  0.8167  0.0318
 8876TIP3   OH248118   2.169   3.888   4.838 -0.4975 -0.4390  0.5022
 8876TIP3    H148119   2.138   3.831   4.908 -0.9059 -0.7613  0.0652
 8876TIP3    H248120   2.262   3.900   4.857 -0.6392 -0.3778  1.1967
 8877TIP3   OH248121   5.526   6.534  12.308  0.2536  0.0417  0.0220
 8877TIP3    H148122   5.460   6.592  12.271 -0.2021 -1.3038 -1.3209
 8877TIP3    H248123   5.493   6.446  12.292  2.4553 -0.6748 -0.8659
 8878TIP3   OH248124   2.328   6.315  14.507 -0.2402 -0.1291 -0.6134
 8878TIP3    H148125   2.238   6.318  14.475 -0.6596 -1.2023  0.4105
 8878TIP3    H248126   2.377   6.368  14.444 -1.1642 -1.4657 -2.5984
 8879TIP3   OH248127   2.614   1.228   3.307  0.0642 -0.2856 -0.4538
 8879TIP3    H148128   2.680   1.160   3.302  1.3449  0.7478  1.2530
 8879TIP3    H248129   2.603   1.257   3.216 -0.8391 -2.9600 -1.2877
 8880TIP3   OH248130   0.475   0.430   6.335 -0.0559 -0.1368  0.1250
 8880TIP3    H148131   0.511   0.389   6.256 -1.2724 -1.4300  0.2174
 8880TIP3    H248132   0.512   0.380   6.407 -1.6166 -1.2132  0.2343
 8881TIP3   OH248133   0.152   3.266  16.109 -0.0921 -0.2288 -0.4950
 8881TIP3    H148134   0.077   3.208  16.097  0.0996 -0.9006  1.2054
 8881TIP3    H248135   0.154   3.320  16.031 -1.3438 -1.3316 -1.3266
 8882TIP3   OH248136   5.367   4.041  10.837 -0.1898  0.5560  0.1568
 8882TIP3    H148137   5.321   4.101  10.778  0.4655  0.7241 -0.1877
 8882TIP3    H248138   5.429   4.097  10.884  0.8809  0.0602 -0.6320
 8883TIP3   OH248139   0.495   5.770   1.151 -0.1919 -0.6308 -0.0502
 8883TIP3    H148140   0.587   5.784   1.173  0.0412  1.1414 -1.8616
 8883TIP3    H248141   0.477   5.681   1.180  1.3871 -0.2142  2.5124
 8884TIP3   OH248142   1.847   5.880  17.029 -0.0137 -0.4124  0.3625
 8884TIP3    H148143   1.803   5.871  17.114 -2.1863  2.9702 -0.2175
 8884TIP3    H248144   1.876   5.971  17.026 -0.2382 -0.3360 -2.6120
 8885TIP3   OH248145   0.552   3.224   2.915 -0.4555 -0.6308 -0.1486
 8885TIP3    H148146   0.502   3.174   2.851 -0.8403 -1.6997  0.9251
 8885TIP3    H248147   0.486   3.274   2.963 -0.7566 -2.8284  1.9579
 8886TIP3   OH248148   5.217   3.910   3.510  0.2651 -0.1307  0.4117
 8886TIP3    H148149   5.240   3.834   3.456  1.4154 -0.8358  1.8057
 8886TIP3    H248150   5.286   3.974   3.491  1.9294 -1.1672  2.4761
 8887TIP3   OH248151   4.782   5.004   1.100  0.0430  0.7554 -0.0064
 8887TIP3    H148152   4.791   4.963   1.186 -1.4481  0.1245 -0.1166
 8887TIP3    H248153   4.864   5.050   1.087  0.3497  0.7748  1.7104
 8888TIP3   OH248154   2.726   2.839  14.269 -0.3717 -0.7150  0.4223
 8888TIP3    H148155   2.766   2.925  14.285 -0.3485  0.0085 -2.8692
 8888TIP3    H248156   2.722   2.798  14.356  3.9110  0.7029  1.5235
 8889TIP3   OH248157   2.794   1.364  14.524 -0.5981  0.2299  0.0888
 8889TIP3    H148158   2.884   1.335  14.509 -0.9251 -0.4830 -0.5102
 8889TIP3    H248159   2.742   1.318  14.458 -1.3038  1.2069 -0.0560
 8890TIP3   OH248160   3.009   3.165  14.633 -0.4154 -0.3312  0.1735
 8890TIP3    H148161   3.052   3.198  14.712  0.4574  1.2243 -0.8965
 8890TIP3    H248162   3.081   3.134  14.578 -0.8974 -0.2509 -0.5083
 8891TIP3   OH248163   1.740   2.476   0.770 -0.2328  0.7772  0.1063
 8891TIP3    H148164   1.676   2.406   0.757  0.5817  0.0243  0.0705
 8891TIP3    H248165   1.757   2.476   0.864  0.0864  0.6449  0.0482
 8892TIP3   OH248166   0.982   0.207   5.436 -0.1462 -0.0444 -0.3286
 8892TIP3    H148167   0.889   0.227   5.428 -0.0300  1.3645  1.2700
 8892TIP3    H248168   1.026   0.283   5.397  0.2988  1.2444  2.4741
 8893TIP3   OH248169   3.804   0.769   0.716  0.3704  0.2325 -0.2819
 8893TIP3    H148170   3.894   0.738   0.709  0.2233 -0.0132 -1.2538
 8893TIP3    H248171   3.780   0.792   0.626 -0.4862  0.4314 -0.0077
 8894TIP3   OH248172   5.525   6.546  13.934 -0.9678 -0.4895  0.1063
 8894TIP3    H148173   5.612   6.578  13.911 -1.4866 -0.7769 -2.7374
 8894TIP3    H248174   5.488   6.615  13.989  0.1920  0.8340 -0.7022
 8895TIP3   OH248175   2.114   5.298   4.441  0.1383 -0.0282 -0.0244
 8895TIP3    H148176   2.197   5.314   4.486  0.2226 -0.0912 -0.1552
 8895TIP3    H248177   2.080   5.218   4.481  0.2821 -0.1631 -0.1675
 8896TIP3   OH248178   4.184   3.896   3.281  0.1527  0.2297 -0.0089
 8896TIP3    H148179   4.213   3.987   3.278 -1.7296  0.8499 -0.8835
 8896TIP3    H248180   4.133   3.885   3.201 -0.5984 -1.2636  0.6480
 8897TIP3   OH248181   0.870   5.981  13.722  0.2884 -0.5576  0.3190
 8897TIP3    H148182   0.836   5.958  13.635  0.4288 -0.0727  0.1356
 8897TIP3    H248183   0.812   5.935  13.783 -0.2001 -0.3839 -0.0125
 8898TIP3   OH248184   2.168   5.212   1.975  0.2886  0.3587 -0.4385
 8898TIP3    H148185   2.083   5.253   1.956  1.2616  1.6444 -2.3661
 8898TIP3    H248186   2.166   5.130   1.926 -0.0999  0.0674  0.0658
 8899TIP3   OH248187   1.653   5.837  12.883  0.1747  0.4330  0.3431
 8899TIP3    H148188   1.698   5.757  12.909  0.0538  0.6270  1.1801
 8899TIP3    H248189   1.694   5.905  12.937  1.1984  1.1703 -1.2667
 8900TIP3   OH248190   6.250   1.062  13.623 -0.5786 -0.5195 -0.2014
 8900TIP3    H148191   6.294   1.141  13.594  0.6747 -0.9262  0.5265
 8900TIP3    H248192   6.172   1.055  13.567  0.6119 -0.1337 -1.9606
 8901TIP3   OH248193   0.264   0.605  13.075 -0.3896  0.1470  0.1338
 8901TIP3    H148194   0.347   0.626  13.033 -0.4879  0.0783 -0.0928
 8901TIP3    H248195   0.254   0.672  13.143 -0.2836  0.3217 -0.0214
 8902TIP3   OH248196   0.084   4.382   0.649  0.2602 -0.3877 -0.0217
 8902TIP3    H148197  -0.003   4.354   0.622  0.1352  0.9289 -1.0922
 8902TIP3    H248198   0.112   4.443   0.581  2.5755 -1.7554 -0.4187
 8903TIP3   OH248199   4.167   3.746   0.209 -0.5359  0.2476  0.4963
 8903TIP3    H148200   4.246   3.704   0.244  0.2608 -0.5896 -2.0751
 8903TIP3    H248201   4.196   3.834   0.185 -0.3874 -0.0059 -0.2955
 8904TIP3   OH248202   6.668   6.489   4.981 -0.1855  0.1515 -0.5314
 8904TIP3    H148203   6.644   6.470   4.891  0.8423 -2.0311 -0.3945
 8904TIP3    H248204   6.722   6.415   5.008  0.4962  1.3147  1.5142
 8905TIP3   OH248205   6.751   6.614   0.444 -0.1626 -0.7346 -0.2210
 8905TIP3    H148206   6.781   6.533   0.403  3.1575  0.5824 -0.7454
 8905TIP3    H248207   6.749   6.595   0.538  0.3147 -1.4949 -0.3601
 8906TIP3   OH248208   1.944   6.325  12.279 -0.3722 -0.6367  0.1675
 8906TIP3    H148209   1.906   6.276  12.352 -2.5020  1.0366  0.2644
 8906TIP3    H248210   1.872   6.376  12.244  1.7696  2.8530  0.3793
 8907TIP3   OH248211   3.242   3.724  14.287 -0.3501  0.2098  0.0607
 8907TIP3    H148212   3.227   3.763  14.202 -1.1074  1.0263  0.5520
 8907TIP3    H248213   3.333   3.693  14.285 -0.4953 -0.1702 -1.1760
 8908TIP3   OH248214   5.323   5.941   1.493 -0.0410  0.6011 -0.2948
 8908TIP3    H148215   5.403   5.979   1.529 -0.5003 -0.2400  1.7607
 8908TIP3    H248216   5.252   5.993   1.532 -0.5620 -0.4336  0.1865
 8909TIP3   OH248217   3.981   5.214  12.769 -0.2953 -0.3899  0.3180
 8909TIP3    H148218   3.898   5.249  12.736 -0.1928 -1.5641 -1.3141
 8909TIP3    H248219   3.956   5.136  12.818 -0.2289 -0.1778  0.6912
 8910TIP3   OH248220   0.866   0.267  14.192 -0.1929  0.4649  0.0266
 8910TIP3    H148221   0.772   0.281  14.181 -0.2441 -0.0213 -0.1971
 8910TIP3    H248222   0.900   0.351  14.222 -0.6133  0.8015 -0.4286
 8911TIP3   OH248223   3.644   0.077  10.956  0.5699  0.3641 -0.3360
 8911TIP3    H148224   3.626   0.152  10.900 -0.3451  0.1829 -0.2986
 8911TIP3    H248225   3.569   0.019  10.944  0.3559  0.3100  1.0486
 8912TIP3   OH248226   5.140   1.827  15.951 -0.7952  0.0561  0.7465
 8912TIP3    H148227   5.162   1.920  15.952 -0.1256 -0.0611 -0.5178
 8912TIP3    H248228   5.215   1.784  15.993 -0.3550 -0.0264 -0.0989
 8913TIP3   OH248229   0.718   4.569  13.708  0.2817  0.0878  0.1251
 8913TIP3    H148230   0.781   4.628  13.748  0.4468  0.1812 -0.2602
 8913TIP3    H248231   0.647   4.625  13.678 -0.0916 -0.0442  0.7568
 8914TIP3   OH248232   4.243   6.718   4.181  0.5483 -0.3068  0.4390
 8914TIP3    H148233   4.313   6.757   4.233  0.2453  1.4356 -0.3900
 8914TIP3    H248234   4.270   6.626   4.170  1.6942 -0.1658  1.7874
 8915TIP3   OH248235   4.900   2.983  14.553  0.0320 -1.3603  0.3544
 8915TIP3    H148236   4.994   2.991  14.541  0.1897  2.4685  2.3460
 8915TIP3    H248237   4.888   2.982  14.648 -1.9392 -2.9790  0.1647
 8916TIP3   OH248238   6.003   5.860   2.048 -0.6377  0.1778 -0.4948
 8916TIP3    H148239   6.072   5.904   2.000 -2.2424  0.8570 -2.3103
 8916TIP3    H248240   6.008   5.768   2.020  0.1899 -0.0083  0.2293
 8917TIP3   OH248241   5.641   0.810   6.221 -0.4417 -0.3693 -0.0587
 8917TIP3    H148242   5.692   0.764   6.288 -0.7840  0.3646  0.7296
 8917TIP3    H248243   5.550   0.795   6.247 -0.6038 -0.7772 -0.8477
 8918TIP3   OH248244   4.409   3.855  10.650  0.0431 -0.1863 -0.0955
 8918TIP3    H148245   4.333   3.863  10.593  1.1034 -0.4900 -1.6137
 8918TIP3    H248246   4.481   3.894  10.600  0.7593  0.8107  1.6166
 8919TIP3   OH248247   1.019   0.505   4.354  0.9791 -0.1588  0.1109
 8919TIP3    H148248   0.970   0.492   4.273 -0.1447 -0.2654  0.7821
 8919TIP3    H248249   0.989   0.589   4.387  0.2456 -0.8176  1.1935
 8920TIP3   OH248250   4.075   3.389  12.581  0.2429 -0.3164 -0.1940
 8920TIP3    H148251   3.981   3.387  12.563 -0.5730 -0.0171  3.2951
 8920TIP3    H248252   4.104   3.476  12.554 -0.7820  0.0590 -0.1022
 8921TIP3   OH248253   0.182   6.113  14.557 -0.1430 -0.6929 -0.1348
 8921TIP3    H148254   0.241   6.183  14.531  0.7572 -1.0525  0.8607
 8921TIP3    H248255   0.096   6.153  14.558  0.5724  0.9865  2.3549
 8922TIP3   OH248256   6.639   4.491  14.207  0.2930 -0.6140  0.0080
 8922TIP3    H148257   6.550   4.459  14.222 -0.3156  0.1254 -1.7508
 8922TIP3    H248258   6.629   4.586  14.197  1.8884  0.1652  3.8201
 8923TIP3   OH248259   6.335   2.989  11.257  0.1309  0.1432 -0.3348
 8923TIP3    H148260   6.246   3.014  11.283 -0.3208 -1.9515  0.2890
 8923TIP3    H248261   6.326   2.965  11.165 -0.5780 -2.5211  0.3474
 8924TIP3   OH248262   4.217   0.935   2.023  0.0850  0.0450  0.0598
 8924TIP3    H148263   4.311   0.951   2.025  0.1636 -0.3174 -0.4015
 8924TIP3    H248264   4.177   1.014   2.059  0.4465  1.2611 -2.0745
 8925TIP3   OH248265   2.295   0.901   6.088  0.2506 -0.2219  0.4065
 8925TIP3    H148266   2.272   0.994   6.089  0.0463 -0.2756  0.8630
 8925TIP3    H248267   2.210   0.855   6.087  0.3440 -0.4004 -0.6674
 8926TIP3   OH248268   3.342   4.759  13.301 -0.0380  0.7475 -0.4901
 8926TIP3    H148269   3.250   4.756  13.327  0.2666 -0.6240  0.5568
 8926TIP3    H248270   3.385   4.809  13.370  0.1692  0.4484 -0.4004
 8927TIP3   OH248271   5.103   4.842   4.175 -0.4193  0.0276  0.2332
 8927TIP3    H148272   5.107   4.759   4.221  1.1224  0.0069  0.1155
 8927TIP3    H248273   5.186   4.886   4.197 -0.9315  1.2630 -0.1915
 8928TIP3   OH248274   4.365   5.211  16.191 -0.2508 -0.1618 -0.1784
 8928TIP3    H148275   4.317   5.163  16.124  0.5311 -2.0822  0.5839
 8928TIP3    H248276   4.456   5.213  16.159  0.6016 -3.0179  1.7055
 8929TIP3   OH248277   1.303   2.346  16.421 -0.5696  0.5521  0.5519
 8929TIP3    H148278   1.298   2.275  16.357  1.1123 -0.1712  1.1944
 8929TIP3    H248279   1.233   2.406  16.394 -2.2637 -1.4459  0.1745
 8930TIP3   OH248280   4.003   4.159   1.848 -0.0138  0.9064 -0.3029
 8930TIP3    H148281   4.034   4.207   1.925 -0.3721  0.1930  0.2893
 8930TIP3    H248282   4.083   4.130   1.804  0.2907 -2.4884  2.1749
 8931TIP3   OH248283   5.451   3.808  11.404  0.0093  0.1041  0.4910
 8931TIP3    H148284   5.483   3.780  11.490 -0.5432 -0.7811  0.4204
 8931TIP3    H248285   5.382   3.871  11.423 -1.9410 -2.0181  0.8083
 8932TIP3   OH248286   4.606   2.800   0.949 -0.2566  0.6073  0.2398
 8932TIP3    H148287   4.665   2.729   0.926 -0.3290  0.0681  1.5890
 8932TIP3    H248288   4.588   2.845   0.867 -0.8523 -1.4237 -0.7988
 8933TIP3   OH248289   5.199   2.647  13.406  0.1459  0.2539 -0.4735
 8933TIP3    H148290   5.161   2.617  13.489  1.1783  2.2691  0.8157
 8933TIP3    H248291   5.292   2.623  13.412  0.1910  0.2443 -1.1392
 8934TIP3   OH248292   2.967   3.958   2.023  0.7171 -0.1636 -0.7075
 8934TIP3    H148293   2.881   3.935   2.059 -0.1911 -1.1844 -3.3085
 8934TIP3    H248294   2.960   3.938   1.930  3.1269  1.6906 -1.3876
 8935TIP3   OH248295   4.399   2.681  14.625 -0.0568 -0.0859 -0.0401
 8935TIP3    H148296   4.418   2.732  14.546 -2.0856  0.3460 -0.3037
 8935TIP3    H248297   4.363   2.598  14.593  0.7679 -0.6316  0.4242
 8936TIP3   OH248298   1.559   6.580  16.393 -0.6671  0.3198 -0.3917
 8936TIP3    H148299   1.474   6.547  16.420 -1.1242 -1.7746 -3.7428
 8936TIP3    H248300   1.615   6.502  16.388  1.4178  1.5928  1.3927
 8937TIP3   OH248301   2.368   2.292   2.721  0.1945 -0.2635 -0.1047
 8937TIP3    H148302   2.366   2.291   2.817 -0.3718 -0.7934 -0.1219
 8937TIP3    H248303   2.375   2.385   2.699  0.9205 -0.1757  0.4591
 8938TIP3   OH248304   5.644   0.599  12.380  0.0745  0.3500  0.0890
 8938TIP3    H148305   5.649   0.691  12.405  1.9649  0.3835 -0.2488
 8938TIP3    H248306   5.555   0.588  12.346  0.7489  2.9010 -2.9779
 8939TIP3   OH248307   3.813   2.356  13.331  0.3548 -0.1714 -0.0008
 8939TIP3    H148308   3.838   2.280  13.384 -1.8667 -0.6325  0.5266
 8939TIP3    H248309   3.724   2.377  13.362  1.2762  3.3347  0.6430
 8940TIP3   OH248310   2.274   1.592  15.300  0.4736  0.2566  0.3679
 8940TIP3    H148311   2.343   1.545  15.255  1.1842  0.0851  1.5792
 8940TIP3    H248312   2.268   1.550  15.386 -0.3818  0.9650  0.6760
 8941TIP3   OH248313   2.257   1.268   4.722 -0.4182 -0.6144 -0.3856
 8941TIP3    H148314   2.190   1.203   4.700 -0.4875 -0.2574 -1.3218
 8941TIP3    H248315   2.338   1.233   4.684 -0.0534 -1.0694  0.7896
 8942TIP3   OH248316   0.094   2.910  11.952 -0.1816 -0.6929  0.2058
 8942TIP3    H148317   0.078   2.986  12.009  1.5041  0.1959 -0.4417
 8942TIP3    H248318   0.021   2.851  11.971 -1.0031  0.6393  1.4740
 8943TIP3   OH248319   1.166   5.187  15.177 -0.2701 -0.1435 -0.0924
 8943TIP3    H148320   1.250   5.234  15.172  0.2110 -0.8676  0.8449
 8943TIP3    H248321   1.156   5.148  15.090  0.3192  0.0281 -0.2440
 8944TIP3   OH248322   3.333   3.002   3.710  0.8838 -0.1303 -0.3903
 8944TIP3    H148323   3.350   2.978   3.619  1.9489  0.0044 -0.2323
 8944TIP3    H248324   3.340   2.920   3.759 -2.0384 -0.6779 -0.6920
 8945TIP3   OH248325   0.698   1.167  12.709 -0.0734 -0.4495  0.0098
 8945TIP3    H148326   0.690   1.182  12.615 -0.8555 -0.2395  0.0979
 8945TIP3    H248327   0.767   1.227  12.737 -1.1217  0.8900 -0.1417
 8946TIP3   OH248328   4.020   4.285   4.034  0.1502 -0.2399  0.3535
 8946TIP3    H148329   4.079   4.348   4.076 -0.5869 -0.4124  1.6772
 8946TIP3    H248330   3.936   4.297   4.077 -0.2893 -1.3662 -0.1445
 8947TIP3   OH248331   2.252   2.493   1.887  0.7454  0.3061 -0.1653
 8947TIP3    H148332   2.276   2.585   1.880  1.3053  0.2430  0.7925
 8947TIP3    H248333   2.164   2.494   1.926 -0.9972  0.5392 -3.7357
 8948TIP3   OH248334   5.290   4.121  11.197  0.2876  0.0704 -0.4080
 8948TIP3    H148335   5.218   4.127  11.259 -0.1214 -0.1741 -0.8526
 8948TIP3    H248336   5.314   4.028  11.198  0.0162 -0.0065 -0.9103
 8949TIP3   OH248337   4.718   0.296  12.778 -0.0220  0.1736  0.5197
 8949TIP3    H148338   4.689   0.260  12.863  1.1785 -2.7731 -0.1958
 8949TIP3    H248339   4.654   0.262  12.716  0.0719  0.9152  0.0095
 8950TIP3   OH248340   6.189   0.107   2.093 -0.0162  0.4360  0.2286
 8950TIP3    H148341   6.096   0.117   2.077  0.1307  0.2057 -0.8177
 8950TIP3    H248342   6.229   0.185   2.055  0.4144 -0.5046 -1.3327
 8951TIP3   OH248343   2.271   1.228   1.458 -0.0496 -0.6951 -0.4247
 8951TIP3    H148344   2.288   1.268   1.373 -0.1893 -0.4301 -0.3281
 8951TIP3    H248345   2.260   1.302   1.518  0.4629 -0.8749 -0.0932
 8952TIP3   OH248346   2.641   0.421   3.591 -0.0792 -0.3665  0.7723
 8952TIP3    H148347   2.574   0.355   3.571 -0.1349 -0.4438  1.2006
 8952TIP3    H248348   2.661   0.462   3.507  0.3390 -1.2903  0.4089
 8953TIP3   OH248349   3.405   5.315  11.421  0.0935 -0.0632 -0.3058
 8953TIP3    H148350   3.450   5.343  11.501  0.2384  0.0410 -0.4227
 8953TIP3    H248351   3.333   5.260  11.452 -1.7249  2.3927  0.1134
 8954TIP3   OH248352   4.619   0.619   3.703  0.0657 -0.7334  0.4369
 8954TIP3    H148353   4.658   0.644   3.786  1.5165  0.6401 -0.5895
 8954TIP3    H248354   4.622   0.523   3.704  2.5979 -0.7355  0.8933
 8955TIP3   OH248355   1.176   6.082  16.667  0.2601 -0.5137 -0.4055
 8955TIP3    H148356   1.224   6.069  16.585  0.4868 -0.0230 -0.3561
 8955TIP3    H248357   1.085   6.064  16.644  0.3251 -0.3939 -0.7665
 8956TIP3   OH248358   2.830   4.681  14.089  0.1459  0.3292 -0.1053
 8956TIP3    H148359   2.840   4.657  14.181  0.0539  0.9162  0.0647
 8956TIP3    H248360   2.811   4.598  14.045 -0.1138  0.0811  0.4511
 8957TIP3   OH248361   5.133   6.064   5.618  0.2872 -0.1084  0.3730
 8957TIP3    H148362   5.188   6.089   5.693 -0.9160  1.2032  0.8546
 8957TIP3    H248363   5.085   5.987   5.649 -0.4174  0.5953  1.0798
 8958TIP3   OH248364   1.789   0.861   3.064  0.3429  0.1720  0.1549
 8958TIP3    H148365   1.838   0.781   3.084  2.8106  0.9300 -2.1957
 8958TIP3    H248366   1.738   0.840   2.986 -1.1878  0.1632  1.1102
 8959TIP3   OH248367   3.207   2.812  11.745 -0.5702  0.3227  0.5062
 8959TIP3    H148368   3.229   2.897  11.782 -0.1878  0.3800  0.1574
 8959TIP3    H248369   3.199   2.754  11.821  0.5409  0.3655  0.6773
 8960TIP3   OH248370   6.807   0.547  14.136 -0.8639  0.5553 -0.0568
 8960TIP3    H148371   6.870   0.516  14.071  0.0191  0.0081  1.0354
 8960TIP3    H248372   6.723   0.511  14.107  0.1803 -3.8939  1.6044
 8961TIP3   OH248373   1.732   0.098  16.473 -0.2547 -0.2844  0.2553
 8961TIP3    H148374   1.656   0.155  16.486 -0.2615 -0.1959 -0.1587
 8961TIP3    H248375   1.789   0.116  16.548 -0.8124 -0.6280  0.7746
 8962TIP3   OH248376   0.629   2.827   1.866 -0.0212 -0.0651 -0.2576
 8962TIP3    H148377   0.677   2.909   1.864 -0.1331  0.0049 -0.0577
 8962TIP3    H248378   0.688   2.763   1.826  0.0593  0.1146 -0.4245
 8963TIP3   OH248379   2.290   2.211   1.422  0.0092 -0.1640 -0.5965
 8963TIP3    H148380   2.265   2.124   1.392 -0.1907 -0.3048 -0.0315
 8963TIP3    H248381   2.271   2.211   1.516  2.2775 -0.3467 -0.0854
 8964TIP3   OH248382   6.583   4.457   4.291  0.0417  0.1648  0.4142
 8964TIP3    H148383   6.585   4.368   4.256 -2.3302  0.4319 -0.5700
 8964TIP3    H248384   6.646   4.455   4.364  0.2123 -2.2338  0.2982
 8965TIP3   OH248385   2.464   0.362  15.792  0.2370 -0.0391  0.5777
 8965TIP3    H148386   2.532   0.312  15.838 -0.2686 -0.7213  0.6049
 8965TIP3    H248387   2.486   0.352  15.699  0.6364  0.4305  0.6167
 8966TIP3   OH248388   6.113   5.453   0.615 -0.0424  0.1726  0.0159
 8966TIP3    H148389   6.195   5.453   0.567 -0.3606  0.3970 -0.5389
 8966TIP3    H248390   6.106   5.365   0.652  0.4820  0.1775  0.1366
 8967TIP3   OH248391   4.422   5.545  10.294 -0.3449 -0.3129 -0.1035
 8967TIP3    H148392   4.477   5.616  10.261 -0.1320  0.3670  1.6292
 8967TIP3    H248393   4.337   5.560  10.253 -0.3072  0.9711  0.2399
 8968TIP3   OH248394   2.028   3.289   0.147 -0.4486  0.2509 -0.0649
 8968TIP3    H148395   1.964   3.354   0.120  0.9200  1.7310  0.0762
 8968TIP3    H248396   2.092   3.287   0.075 -0.2041 -0.5708  0.1619
 8969TIP3   OH248397   4.266   0.337  10.892 -0.0118 -0.0261 -0.2473
 8969TIP3    H148398   4.254   0.264  10.953 -1.0953 -1.4710 -2.0822
 8969TIP3    H248399   4.355   0.367  10.907  0.4650 -1.7401  0.5455
 8970TIP3   OH248400   6.813   5.083  13.271  0.0357  0.2931 -0.9255
 8970TIP3    H148401   6.744   5.139  13.236  0.0928  0.1898 -1.2013
 8970TIP3    H248402   6.894   5.129  13.251 -0.0382  2.0465  2.2007
 8971TIP3   OH248403   3.323   1.959   3.217  0.1570  0.1819 -0.1917
 8971TIP3    H148404   3.259   1.900   3.257  1.5698  0.3304  2.5853
 8971TIP3    H248405   3.271   2.020   3.166 -1.7792 -0.6014  0.7385
 8972TIP3   OH248406   1.837   0.387   3.230 -0.1981 -0.0431 -0.0352
 8972TIP3    H148407   1.910   0.445   3.208  1.1444 -2.1072 -1.4167
 8972TIP3    H248408   1.834   0.388   3.326 -0.8617  2.9161  0.0202
 8973TIP3   OH248409   3.909   3.297  14.660 -0.1002  0.0857 -0.6935
 8973TIP3    H148410   3.833   3.322  14.608 -1.5684  1.0640  1.7365
 8973TIP3    H248411   3.984   3.326  14.609 -1.2885 -1.0643 -3.2610
 8974TIP3   OH248412   6.585   6.830   2.594 -0.1022  0.2183 -0.4007
 8974TIP3    H148413   6.566   6.918   2.629  0.3145 -0.2027  0.9398
 8974TIP3    H248414   6.558   6.835   2.503 -0.4908  1.6196 -0.2419
 8975TIP3   OH248415   6.140   3.804   2.066 -0.1454 -0.4215  0.1902
 8975TIP3    H148416   6.103   3.725   2.026  1.8200 -0.8341 -0.9318
 8975TIP3    H248417   6.105   3.876   2.013  0.8110 -0.8265 -1.0540
 8976TIP3   OH248418   0.103   1.125   3.010 -0.1872 -0.0257 -0.1920
 8976TIP3    H148419   0.192   1.110   2.980 -0.1623 -0.3659  0.0409
 8976TIP3    H248420   0.112   1.154   3.101 -0.3303 -0.6258  0.0257
 8977TIP3   OH248421   2.281   4.264  11.580  0.1884  0.2421  0.2240
 8977TIP3    H148422   2.288   4.292  11.489 -2.3318 -0.5697 -0.2915
 8977TIP3    H248423   2.317   4.175  11.580  0.2036  0.2475  0.0228
 8978TIP3   OH248424   0.588   1.617   2.749  0.0701 -0.5749  0.5255
 8978TIP3    H148425   0.541   1.691   2.711  0.7626  0.7543  2.1040
 8978TIP3    H248426   0.524   1.546   2.753 -1.2086  0.5527  0.7834
 8979TIP3   OH248427   2.193   3.033   2.080  0.6135 -0.0874  0.1813
 8979TIP3    H148428   2.124   3.050   2.016 -0.4519 -1.0255  1.0185
 8979TIP3    H248429   2.183   3.102   2.145  1.7669  0.9310 -0.6697
 8980TIP3   OH248430   6.760   6.863   6.269  0.4030  0.3237 -0.2365
 8980TIP3    H148431   6.701   6.798   6.231  0.7823 -0.2181  0.0821
 8980TIP3    H248432   6.802   6.817   6.342 -1.5790  1.7840  2.0072
 8981TIP3   OH248433   4.708   5.430  16.676 -0.3895  0.4408  0.0714
 8981TIP3    H148434   4.760   5.489  16.732  1.7228 -1.1030 -0.1558
 8981TIP3    H248435   4.698   5.478  16.594 -1.0129  1.5396  0.7587
 8982TIP3   OH248436   6.085   1.002  14.593 -0.6738 -0.8337 -0.4434
 8982TIP3    H148437   5.992   1.018  14.607 -0.8493 -1.4080 -0.8789
 8982TIP3    H248438   6.099   1.021  14.500 -0.8278 -2.7226 -0.9128
 8983TIP3   OH248439   5.417   0.078  14.632 -0.7973  0.1599  0.2009
 8983TIP3    H148440   5.350   0.013  14.612  1.3261 -2.2988  0.6003
 8983TIP3    H248441   5.473   0.036  14.697  1.7520  1.6484 -0.8966
 8984TIP3   OH248442   4.326   0.353  10.606  0.1112 -0.1666  0.3298
 8984TIP3    H148443   4.407   0.396  10.634  0.3196 -0.9105  0.8978
 8984TIP3    H248444   4.266   0.364  10.680 -0.2517  0.2039 -0.0103
 8985TIP3   OH248445   3.369   5.829  10.682  0.2611 -0.1108  0.0049
 8985TIP3    H148446   3.391   5.918  10.708 -0.6338 -0.1455  0.9360
 8985TIP3    H248447   3.291   5.838  10.628 -1.0611 -0.4546  1.7633
 8986TIP3   OH248448   2.550   1.127   6.065 -0.4843  0.3774 -0.3129
 8986TIP3    H148449   2.485   1.191   6.092  0.4860  1.2496  0.0179
 8986TIP3    H248450   2.608   1.174   6.005  0.3673 -0.1216  0.0962
 8987TIP3   OH248451   1.876   0.969   4.410  0.6028  0.2309 -0.3877
 8987TIP3    H148452   1.844   1.047   4.363  0.9100 -0.0717 -1.1055
 8987TIP3    H248453   1.803   0.945   4.467 -0.0687  0.1621 -1.2556
 8988TIP3   OH248454   4.887   6.858   5.094  0.3910  0.3264  0.1402
 8988TIP3    H148455   4.967   6.909   5.102  0.2035  0.6291  0.1152
 8988TIP3    H248456   4.838   6.875   5.174 -0.4668  1.5929 -0.6069
 8989TIP3   OH248457   2.511   2.353   5.542 -0.3193  0.1068  0.6993
 8989TIP3    H148458   2.542   2.287   5.481  2.7978 -0.3343  2.5420
 8989TIP3    H248459   2.485   2.427   5.487  0.0844 -1.1210 -1.2161
 8990TIP3   OH248460   2.076   3.625  11.838  0.0944  0.8877  0.4051
 8990TIP3    H148461   2.080   3.640  11.743 -0.1759  1.4379  0.4775
 8990TIP3    H248462   1.983   3.629  11.859  0.1281  0.4699  0.6537
 8991TIP3   OH248463   1.392   6.623   2.012 -0.7615  0.1452 -0.4718
 8991TIP3    H148464   1.315   6.672   1.985 -1.6158  0.3880  2.1246
 8991TIP3    H248465   1.364   6.531   2.014  0.3466 -0.4040 -3.6471
 8992TIP3   OH248466   5.567   0.480  16.222  0.1097 -0.7130  0.2000
 8992TIP3    H148467   5.483   0.493  16.178 -0.1515 -0.3977  0.7809
 8992TIP3    H248468   5.575   0.385  16.231 -0.9548 -0.6957  1.5879
 8993TIP3   OH248469   3.372   4.224  15.962 -0.5904  0.1479 -0.0395
 8993TIP3    H148470   3.330   4.139  15.949  1.0722 -0.5560 -1.1867
 8993TIP3    H248471   3.374   4.263  15.874  3.2023 -0.9184 -0.5970
 8994TIP3   OH248472   1.428   5.680  13.879  0.4204 -0.1105 -0.2757
 8994TIP3    H148473   1.390   5.763  13.908 -0.2506  0.4882 -2.6649
 8994TIP3    H248474   1.434   5.627  13.959  0.8706  2.2017  1.3173
 8995TIP3   OH248475   5.165   5.540  14.978  0.2725  0.1828  0.3427
 8995TIP3    H148476   5.130   5.620  14.938  1.0642  0.8194  0.8739
 8995TIP3    H248477   5.109   5.526  15.055 -1.5769 -1.3367 -1.2012
 8996TIP3   OH248478   0.743   0.575  15.517 -0.7185 -0.1054 -0.2142
 8996TIP3    H148479   0.693   0.649  15.552  0.3951  0.2330  0.7316
 8996TIP3    H248480   0.765   0.522  15.593  0.4286 -0.1900 -0.5830
 8997TIP3   OH248481   0.186   0.894  11.473  0.2408  0.2412 -0.3622
 8997TIP3    H148482   0.235   0.856  11.400 -0.8703 -0.9849 -0.5062
 8997TIP3    H248483   0.219   0.984  11.480  0.7685  0.2071 -2.0015
 8998TIP3   OH248484   3.852   3.365   0.544 -0.5599 -0.4895 -0.0411
 8998TIP3    H148485   3.809   3.288   0.581 -1.3643  0.1111  0.2904
 8998TIP3    H248486   3.797   3.389   0.469 -0.4128 -0.1256 -0.0328
 8999TIP3   OH248487   2.827   3.006  16.831  0.3107  0.2123 -0.3069
 8999TIP3    H148488   2.807   2.937  16.894  1.4565 -0.1194 -0.2783
 8999TIP3    H248489   2.768   2.990  16.757 -1.3143  0.8360  0.8125
 9000TIP3   OH248490   1.617   3.973   1.469  0.5198  1.1105  0.8122
 9000TIP3    H148491   1.697   3.976   1.415  0.6456 -0.8613  0.8054
 9000TIP3    H248492   1.546   3.989   1.407  0.6142 -1.7573 -0.1977
 9001TIP3   OH248493   1.573   4.004  11.395 -0.4251 -0.4691  0.3648
 9001TIP3    H148494   1.484   4.036  11.404 -0.3550  0.0479 -0.6227
 9001TIP3    H248495   1.564   3.910  11.376 -0.8686 -0.0865 -1.5492
 9002TIP3   OH248496   4.608   4.738  16.844 -0.2681 -0.4463 -0.0934
 9002TIP3    H148497   4.517   4.765  16.831  0.5263  1.8510 -1.6924
 9002TIP3    H248498   4.654   4.772  16.767  1.6796 -3.1087 -0.2541
 9003TIP3   OH248499   0.435   2.469   4.365  0.1726  0.0480  0.1168
 9003TIP3    H148500   0.498   2.472   4.437 -0.7942  0.9088  0.9593
 9003TIP3    H248501   0.352   2.447   4.407 -0.5634  1.3351 -0.6258
 9004TIP3   OH248502   4.085   1.910  13.855  0.5619 -0.1539  0.6460
 9004TIP3    H148503   4.020   1.965  13.811 -0.0525 -1.4923 -0.2043
 9004TIP3    H248504   4.170   1.946  13.827  0.2048 -1.0013 -1.8164
 9005TIP3   OH248505   3.628   4.602  15.686  0.0933  0.0780 -0.2351
 9005TIP3    H148506   3.558   4.665  15.702  0.5622  0.5368  0.0711
 9005TIP3    H248507   3.650   4.612  15.594  0.5653  0.7992 -0.0562
 9006TIP3   OH248508   4.088   5.003  16.654  0.7880  0.4504  0.2061
 9006TIP3    H148509   4.068   5.016  16.747  0.9034 -1.0301  0.4597
 9006TIP3    H248510   4.031   5.065  16.609 -0.4714  0.0582  1.1937
 9007TIP3   OH248511   3.905   1.845   4.643 -0.0640 -0.3379  0.0483
 9007TIP3    H148512   3.820   1.859   4.684 -0.4338 -1.3598 -0.3178
 9007TIP3    H248513   3.961   1.815   4.714 -0.5253 -1.4616 -0.0337
 9008TIP3   OH248514   4.770   1.182   3.961  0.2581  0.8764  0.2916
 9008TIP3    H148515   4.787   1.241   3.888  0.8482  1.6276  1.0187
 9008TIP3    H248516   4.722   1.109   3.922  2.7512 -0.0028 -1.3582
 9009TIP3   OH248517   1.235   4.029  11.468 -0.1316 -0.4546 -0.0159
 9009TIP3    H148518   1.221   3.991  11.381 -0.2238  0.1399 -0.2646
 9009TIP3    H248519   1.152   4.015  11.514 -0.9369  1.3724 -0.8466
 9010TIP3   OH248520   1.329   4.408   2.373 -0.0566 -0.0249  0.0502
 9010TIP3    H148521   1.345   4.432   2.282  0.6883  4.3571  1.1237
 9010TIP3    H248522   1.411   4.369   2.403  0.9600  1.7168 -0.3337
 9011TIP3   OH248523   2.185   2.083   2.953  0.8056  0.0984 -0.0267
 9011TIP3    H148524   2.278   2.069   2.938  1.1257  0.0977  1.7960
 9011TIP3    H248525   2.148   2.091   2.865  2.0422 -2.7776 -0.9278
 9012TIP3   OH248526   5.812   4.467   3.549  0.9789 -0.6107  0.4332
 9012TIP3    H148527   5.847   4.451   3.637  0.7392  0.4002  0.7205
 9012TIP3    H248528   5.847   4.395   3.497  1.7684 -0.7878  1.1776
 9013TIP3   OH248529   4.894   2.845  13.952  0.2138  0.2035  0.0464
 9013TIP3    H148530   4.952   2.916  13.976  1.2395 -1.1439  1.7485
 9013TIP3    H248531   4.814   2.860  14.003 -0.4283  1.2481 -1.1987
 9014TIP3   OH248532   2.041   2.187  11.280  0.3607  0.3971 -0.3894
 9014TIP3    H148533   2.067   2.237  11.356  0.7748 -0.9147  0.3678
 9014TIP3    H248534   1.953   2.218  11.260  0.2148  0.7075  0.6736
 9015TIP3   OH248535   6.418   6.143   3.347 -0.6184 -0.4320 -0.4107
 9015TIP3    H148536   6.481   6.088   3.302 -0.7326  0.6297 -1.9471
 9015TIP3    H248537   6.362   6.178   3.277 -1.0447  0.9872  0.5911
 9016TIP3   OH248538   4.274   4.671  12.552  0.6961  0.5624 -0.0674
 9016TIP3    H148539   4.354   4.685  12.603  0.3682  0.7516  0.3969
 9016TIP3    H248540   4.274   4.742  12.488  0.8662  0.5944 -0.0324
 9017TIP3   OH248541   5.023   2.484   5.356  0.0948 -0.1919 -0.0280
 9017TIP3    H148542   4.983   2.553   5.303 -0.4669 -0.6702 -0.2440
 9017TIP3    H248543   4.974   2.405   5.333  2.0487 -1.1040 -1.3397
 9018TIP3   OH248544   0.742   4.964  11.097  0.4452 -0.2828 -0.4474
 9018TIP3    H148545   0.688   4.910  11.039  0.5187 -0.1601 -0.6316
 9018TIP3    H248546   0.811   4.998  11.040 -0.5422  1.3693 -0.7366
 9019TIP3   OH248547   6.155   0.541   5.125  0.0740  0.2245  0.7222
 9019TIP3    H148548   6.237   0.491   5.125  1.1811  1.9417 -0.2207
 9019TIP3    H248549   6.117   0.525   5.039 -1.9131 -2.5112  1.9853
 9020TIP3   OH248550   3.373   6.274   2.656  0.0977  0.5886  0.1681
 9020TIP3    H148551   3.403   6.226   2.579  1.8290 -1.4138  1.9544
 9020TIP3    H248552   3.296   6.322   2.626 -0.1866 -1.2878 -2.4496
 9021TIP3   OH248553   6.222   1.519  17.027 -0.2500 -0.1653  0.1807
 9021TIP3    H148554   6.304   1.530  17.077 -1.2037  0.3523  1.7106
 9021TIP3    H248555   6.230   1.433  16.987  1.5513  0.3539 -0.6962
 9022TIP3   OH248556   4.764   6.576  15.878  0.2491 -0.2808  0.0071
 9022TIP3    H148557   4.828   6.570  15.949 -0.1752 -0.8250  0.3473
 9022TIP3    H248558   4.680   6.589  15.923  0.0909  0.2652 -0.4317
 9023TIP3   OH248559   4.496   2.786   4.638 -0.3240 -0.0130  0.2833
 9023TIP3    H148560   4.553   2.831   4.701 -0.0733 -0.5218  0.4286
 9023TIP3    H248561   4.409   2.819   4.656 -0.2437 -0.1093  0.8671
 9024TIP3   OH248562   2.734   6.718  16.348  0.1022  0.2997  0.2772
 9024TIP3    H148563   2.730   6.638  16.401 -0.6732  0.6747  0.7981
 9024TIP3    H248564   2.650   6.762  16.365  0.1549  0.7912 -0.6832
 9025TIP3   OH248565   0.031   1.815   0.097  0.1448 -0.1352  0.0451
 9025TIP3    H148566   0.089   1.742   0.117 -0.5441 -0.3279  1.5258
 9025TIP3    H248567  -0.056   1.776   0.091 -0.1352  0.4567  0.1397
 9026TIP3   OH248568   0.563   6.111  13.524 -0.2290  0.8104 -0.3257
 9026TIP3    H148569   0.578   6.085  13.433 -2.1580  0.7280 -0.6760
 9026TIP3    H248570   0.576   6.030  13.575 -2.2216  0.0238 -0.9466
 9027TIP3   OH248571   4.456   6.649   1.312 -0.3414  0.2387  0.2905
 9027TIP3    H148572   4.471   6.678   1.222  0.7368 -1.0986  0.0216
 9027TIP3    H248573   4.371   6.606   1.309 -0.6009  0.7554  0.0583
 9028TIP3   OH248574   3.642   4.285  16.803  0.1786  0.0266 -0.2811
 9028TIP3    H148575   3.617   4.322  16.718  0.9193  1.0161 -0.0863
 9028TIP3    H248576   3.608   4.348  16.867  0.1140 -0.4247  0.1359
 9029TIP3   OH248577   2.658   2.450   3.497 -0.6730  0.5362 -0.0704
 9029TIP3    H148578   2.751   2.428   3.496 -0.5764  0.8163 -2.3909
 9029TIP3    H248579   2.616   2.376   3.540  0.6184  0.4638  1.1231
 9030TIP3   OH248580   5.007   4.695  16.488  0.0225  0.5087 -0.1348
 9030TIP3    H148581   5.060   4.739  16.421 -0.4822  0.1152 -0.7950
 9030TIP3    H248582   5.069   4.677  16.559  1.0945 -1.0894 -1.4131
 9031TIP3   OH248583   6.678   3.532  11.001  0.6384  0.2844  0.2001
 9031TIP3    H148584   6.625   3.547  10.923  0.5305 -2.3009 -0.2836
 9031TIP3    H248585   6.616   3.538  11.074  0.1635 -0.1858 -0.1606
 9032TIP3   OH248586   0.701   1.772  11.925  0.2938  0.8278  0.0257
 9032TIP3    H148587   0.661   1.689  11.900 -0.4403  1.3572 -0.5710
 9032TIP3    H248588   0.638   1.838  11.900  1.1818  1.6294 -0.1559
 9033TIP3   OH248589   2.925   3.281  15.043  0.4132  0.0896 -0.4587
 9033TIP3    H148590   2.959   3.197  15.073 -1.8129 -1.8467 -2.8529
 9033TIP3    H248591   2.947   3.284  14.950 -0.7765  1.4705 -0.7378
 9034TIP3   OH248592   5.453   2.922   3.942  0.4010  0.1406 -0.0265
 9034TIP3    H148593   5.364   2.956   3.931  0.0606 -0.2728  1.2743
 9034TIP3    H248594   5.462   2.857   3.872  0.0233  0.8465 -0.7424
 9035TIP3   OH248595   5.787   5.990   4.449  0.3360 -0.1988 -0.7451
 9035TIP3    H148596   5.713   5.982   4.509  1.0444  0.5229  0.2371
 9035TIP3    H248597   5.746   5.998   4.363 -0.7233 -0.0384 -0.2442
 9036TIP3   OH248598   5.831   5.345   3.403  0.8536 -0.3062 -0.0454
 9036TIP3    H148599   5.781   5.336   3.322  0.1603 -0.0407  0.3409
 9036TIP3    H248600   5.853   5.437   3.408  2.4761 -0.6259 -0.8319
 9037TIP3   OH248601   3.509   3.808  12.625  0.0435 -0.3216  0.7823
 9037TIP3    H148602   3.520   3.903  12.630  3.1985 -0.6039  1.7574
 9037TIP3    H248603   3.458   3.793  12.546  0.4490  2.1475 -0.0128
 9038TIP3   OH248604   5.682   1.197  12.682  0.9515  0.3727  0.1360
 9038TIP3    H148605   5.603   1.251  12.682  1.3673  1.0065  0.0887
 9038TIP3    H248606   5.754   1.261  12.684  1.5024 -0.1096 -1.7582
 9039TIP3   OH248607   1.013   1.496   4.307 -0.1988  0.1530  0.1496
 9039TIP3    H148608   0.929   1.513   4.264 -0.4038  0.8221  0.7754
 9039TIP3    H248609   1.011   1.403   4.329 -0.3052 -0.0786 -0.8184
 9040TIP3   OH248610   0.370   5.446   2.845 -0.0513  0.3349 -0.2929
 9040TIP3    H148611   0.462   5.473   2.841 -0.4193  2.1395  1.8664
 9040TIP3    H248612   0.367   5.380   2.915 -0.1004 -1.4591 -1.8846
 9041TIP3   OH248613   5.491   4.211   2.981  0.1393 -0.0739  0.4224
 9041TIP3    H148614   5.545   4.208   3.059 -0.4449 -0.1550  0.8286
 9041TIP3    H248615   5.545   4.256   2.915 -0.4725  2.8785  1.7515
 9042TIP3   OH248616   6.113   5.836   0.670  0.1629 -0.0571 -0.1455
 9042TIP3    H148617   6.111   5.838   0.574 -0.9626 -1.4007 -0.1838
 9042TIP3    H248618   6.022   5.816   0.695  0.6862 -0.9554  1.1397
 9043TIP3   OH248619   5.836   0.539   5.560  0.3733  0.0612  0.4830
 9043TIP3    H148620   5.891   0.535   5.638  0.5282  0.7718  0.4128
 9043TIP3    H248621   5.893   0.511   5.488  0.5126  0.3686  0.4753
 9044TIP3   OH248622   2.124   2.113   0.495  1.1505  0.1312  0.0031
 9044TIP3    H148623   2.216   2.137   0.497  0.9196  1.0367  0.5653
 9044TIP3    H248624   2.103   2.090   0.585  0.8027  0.0598 -0.0935
 9045TIP3   OH248625   4.696   3.073   1.076  0.2670 -0.1372  0.5222
 9045TIP3    H148626   4.742   3.009   1.131 -0.0541 -1.2743 -0.4982
 9045TIP3    H248627   4.708   3.041   0.987 -0.8721  0.6087  0.0794
 9046TIP3   OH248628   2.215   3.292   1.116  0.2935  0.4533  0.7395
 9046TIP3    H148629   2.280   3.355   1.148  0.4713  0.0851  1.1036
 9046TIP3    H248630   2.186   3.245   1.194  2.2153 -1.8488  0.1819
 9047TIP3   OH248631   4.869   4.285  11.459  0.4959  0.1882 -0.0338
 9047TIP3    H148632   4.779   4.317  11.454  0.4219 -0.0661 -0.3678
 9047TIP3    H248633   4.883   4.269  11.553  0.2120  0.2848  0.0258
 9048TIP3   OH248634   1.645   3.811  11.619 -0.2643 -0.4925 -0.2757
 9048TIP3    H148635   1.707   3.880  11.597 -1.6803  1.5556  1.6980
 9048TIP3    H248636   1.571   3.825  11.559 -1.1142  0.6348  0.9690
 9049TIP3   OH248637   2.792   1.011  14.678 -0.1162 -0.4897  0.0171
 9049TIP3    H148638   2.851   1.086  14.665  0.9071 -1.4159 -0.7728
 9049TIP3    H248639   2.851   0.937  14.695 -1.0203 -1.5258 -1.2166
 9050TIP3   OH248640   0.728   1.913   0.751  0.7457 -0.3971  0.5305
 9050TIP3    H148641   0.785   1.839   0.767 -0.2668 -1.4555 -0.5779
 9050TIP3    H248642   0.783   1.976   0.705  1.2103 -1.0885  0.1265
 9051TIP3   OH248643   3.986   1.190  15.442  0.2142 -0.4050 -0.1260
 9051TIP3    H148644   3.929   1.186  15.365 -0.4678  0.5711  0.3058
 9051TIP3    H248645   3.994   1.283  15.461  1.2075 -0.5813  0.3836
 9052TIP3   OH248646   3.696   3.695  15.791  0.0353  0.4358 -0.4987
 9052TIP3    H148647   3.778   3.709  15.839  0.0432 -0.6481 -0.1725
 9052TIP3    H248648   3.638   3.655  15.855  0.6831 -2.9664 -1.8163
 9053TIP3   OH248649   3.087   5.248  13.789  0.1079  0.0729  0.7788
 9053TIP3    H148650   3.048   5.287  13.867 -3.9554  0.3880 -1.1137
 9053TIP3    H248651   3.153   5.311  13.761 -0.8090  1.7027  2.0985
 9054TIP3   OH248652   5.389   5.756  14.972 -0.1314  0.4623  0.1133
 9054TIP3    H148653   5.412   5.752  14.879  0.8057  1.1278  0.2961
 9054TIP3    H248654   5.299   5.723  14.976  0.5986 -1.7785 -0.7057
 9055TIP3   OH248655   4.526   5.531   3.365  0.2240 -0.3192 -0.3842
 9055TIP3    H148656   4.463   5.566   3.429 -0.0281  0.8666 -1.2463
 9055TIP3    H248657   4.531   5.599   3.298  1.8640 -0.7377 -0.7136
 9056TIP3   OH248658   3.366   5.249  14.651  0.4114  0.3740  0.5769
 9056TIP3    H148659   3.406   5.281  14.731 -0.1554  0.8033  0.6947
 9056TIP3    H248660   3.388   5.314  14.585 -1.0684  1.2450  0.9015
 9057TIP3   OH248661   0.307   0.995   5.176  0.0763 -0.2718 -0.2827
 9057TIP3    H148662   0.244   1.065   5.156  0.4160 -0.1894 -1.0855
 9057TIP3    H248663   0.372   1.037   5.232 -1.8630 -0.9535  2.7033
 9058TIP3   OH248664   1.176   1.673   2.233 -0.2395 -0.2398 -0.1635
 9058TIP3    H148665   1.183   1.681   2.328 -1.9663  1.4860 -0.1004
 9058TIP3    H248666   1.121   1.596   2.219 -0.2336 -0.3198  0.2556
 9059TIP3   OH248667   4.654   0.814   5.636 -0.2028  0.2126 -0.0520
 9059TIP3    H148668   4.661   0.719   5.630 -1.1782  0.0977  0.5107
 9059TIP3    H248669   4.706   0.846   5.563 -2.1001 -0.8133 -1.9611
 9060TIP3   OH248670   4.859   3.558  15.443  0.1938 -0.4208 -0.4626
 9060TIP3    H148671   4.872   3.510  15.362  1.5620  0.0035 -0.5194
 9060TIP3    H248672   4.829   3.492  15.506  0.6159 -1.0528 -0.9188
 9061TIP3   OH248673   6.693   6.695  10.745  0.1125 -0.1538  0.4779
 9061TIP3    H148674   6.783   6.715  10.718  0.6260 -1.5710  1.0180
 9061TIP3    H248675   6.641   6.703  10.666  0.2387  3.0728  0.5941
 9062TIP3   OH248676   2.986   0.012  11.679 -0.0008 -0.0366 -0.0711
 9062TIP3    H148677   3.066   0.058  11.655 -0.2431  0.2250 -0.3823
 9062TIP3    H248678   2.928   0.081  11.711 -0.7045  0.0253 -1.4186
 9063TIP3   OH248679   0.367   6.672  13.273  0.0985  0.4096 -0.3894
 9063TIP3    H148680   0.351   6.667  13.368  1.6068  1.9750 -0.0084
 9063TIP3    H248681   0.305   6.738  13.242 -0.1889  0.1144 -0.4478
 9064TIP3   OH248682   1.539   4.233   5.375 -0.4015  0.3105 -0.2677
 9064TIP3    H148683   1.600   4.281   5.431 -1.4481  1.3366  0.0317
 9064TIP3    H248684   1.586   4.225   5.292 -0.9404  3.8244 -1.0730
 9065TIP3   OH248685   6.703   4.711  14.798  0.3809  0.3133  0.3559
 9065TIP3    H148686   6.793   4.730  14.825  0.2866  0.2743  0.7040
 9065TIP3    H248687   6.659   4.796  14.795  0.2078  0.2493  1.0040
 9066TIP3   OH248688   3.926   3.371   4.887 -0.0231 -0.2650  0.2244
 9066TIP3    H148689   3.921   3.403   4.797  0.1977 -2.0654 -0.4688
 9066TIP3    H248690   3.936   3.276   4.878  2.8098 -0.2349  2.0780
 9067TIP3   OH248691   1.418   0.438  10.649 -0.5531 -0.0173 -0.1963
 9067TIP3    H148692   1.468   0.512  10.613 -1.5665  0.0180 -1.6163
 9067TIP3    H248693   1.343   0.479  10.692 -0.0208 -0.1383  0.8972
 9068TIP3   OH248694   0.558   6.021   5.311 -0.0407  0.5946  0.7451
 9068TIP3    H148695   0.615   6.024   5.233  0.9534  1.0211  1.4607
 9068TIP3    H248696   0.504   5.943   5.298  0.5434  0.3034 -0.0810
 9069TIP3   OH248697   4.391   6.158  16.487  0.2915 -0.2934 -0.1315
 9069TIP3    H148698   4.335   6.156  16.565  0.6331  0.1663  0.1299
 9069TIP3    H248699   4.454   6.087  16.501 -0.4448 -1.0635 -0.6014
 9070TIP3   OH248700   0.338   4.582   0.210 -0.2359  0.6242 -0.3423
 9070TIP3    H148701   0.431   4.581   0.187 -0.3265  0.0558 -0.6907
 9070TIP3    H248702   0.295   4.624   0.135 -0.5984 -1.7305 -1.5421
 9071TIP3   OH248703   2.826   2.936   4.269  0.0417  0.4102  0.2299
 9071TIP3    H148704   2.825   2.912   4.176 -0.8607 -0.0458  0.3446
 9071TIP3    H248705   2.766   3.010   4.275  0.3849  0.6780  0.3960
 9072TIP3   OH248706   1.954   4.685   0.444  0.4577 -0.3154  0.1556
 9072TIP3    H148707   2.031   4.642   0.481  0.5042  0.1658  0.6255
 9072TIP3    H248708   1.881   4.627   0.466  0.5805 -0.3774  0.4013
 9073TIP3   OH248709   0.842   5.511  13.513 -0.2905  0.0077 -0.0209
 9073TIP3    H148710   0.933   5.485  13.505  0.4141  1.5210  2.2078
 9073TIP3    H248711   0.793   5.429  13.505  1.2306 -0.8489 -1.0610
 9074TIP3   OH248712   3.354   4.547   3.780  0.3047  0.0794  0.7580
 9074TIP3    H148713   3.293   4.615   3.749  1.4026  0.6298 -0.2611
 9074TIP3    H248714   3.312   4.465   3.755 -0.1101  0.4398  0.2388
 9075TIP3   OH248715   0.716   4.476   1.914  0.7207  0.0378 -0.2955
 9075TIP3    H148716   0.786   4.411   1.924 -0.6028 -1.6340 -1.2203
 9075TIP3    H248717   0.741   4.526   1.836  1.2209 -0.0819 -0.2153
 9076TIP3   OH248718   3.096   3.064   1.653  0.2329  0.4900 -0.4906
 9076TIP3    H148719   3.074   2.973   1.634  0.1179  0.5009 -0.4096
 9076TIP3    H248720   3.014   3.104   1.681  0.2875  0.6124 -0.5007
 9077TIP3   OH248721   5.959   6.120  12.900  0.0735 -0.0394 -0.2549
 9077TIP3    H148722   6.009   6.041  12.881 -0.3256 -0.3115 -0.1917
 9077TIP3    H248723   5.890   6.091  12.960 -0.3476  0.2684 -0.5803
 9078TIP3   OH248724   3.922   4.149   2.506 -0.2331 -0.4505 -0.1374
 9078TIP3    H148725   3.836   4.140   2.464 -1.4311  0.2691  1.9949
 9078TIP3    H248726   3.952   4.236   2.482 -0.5244 -0.3630 -0.1866
 9079TIP3   OH248727   2.619   3.922   2.992  0.5270  0.2441 -0.6178
 9079TIP3    H148728   2.713   3.939   2.981  1.2829 -2.6842  0.4513
 9079TIP3    H248729   2.597   3.963   3.075  1.1420  0.0499 -0.3490
 9080TIP3   OH248730   0.107   3.322   5.788  0.1101  0.1970  0.0767
 9080TIP3    H148731   0.122   3.294   5.698 -2.0326  2.1134 -0.9742
 9080TIP3    H248732   0.042   3.261   5.822  0.0398  0.1935 -0.0644
 9081TIP3   OH248733   5.556   3.715   1.394 -1.2803  0.1323  0.0235
 9081TIP3    H148734   5.580   3.644   1.453 -0.1516  1.3169  1.0389
 9081TIP3    H248735   5.602   3.695   1.312 -0.1418  0.1850  0.6260
 9082TIP3   OH248736   0.293   6.682  13.536 -0.4849 -0.6575  0.2011
 9082TIP3    H148737   0.216   6.677  13.593  0.6306 -0.0144  1.8247
 9082TIP3    H248738   0.352   6.743  13.581  0.4903 -0.2188 -1.6017
 9083TIP3   OH248739   2.923   6.303  14.836 -0.3566 -0.4574 -0.0447
 9083TIP3    H148740   2.837   6.264  14.821 -1.3451  0.4441  2.6928
 9083TIP3    H248741   2.914   6.351  14.918  2.6270  0.1611  0.0418
 9084TIP3   OH248742   2.178   5.341   0.040 -0.7672 -0.4497  1.0390
 9084TIP3    H148743   2.142   5.399   0.107 -3.4274 -0.1533 -0.5165
 9084TIP3    H248744   2.142   5.374  -0.042  2.2693 -0.8804 -0.6157
 9085TIP3   OH248745   0.623   3.885   0.039  0.1142  0.5341  0.1562
 9085TIP3    H148746   0.623   3.890   0.135 -0.3396  0.9584  0.1385
 9085TIP3    H248747   0.531   3.896   0.014  0.4396  2.4846 -0.4032
 9086TIP3   OH248748   0.980   6.108   6.446 -0.0155 -0.0649 -0.1933
 9086TIP3    H148749   1.050   6.043   6.437  0.7076  0.7089 -0.2759
 9086TIP3    H248750   1.018   6.177   6.501 -0.5676  0.5546 -0.5767
 9087TIP3   OH248751   0.843   0.507  16.435  0.2936  0.3502 -0.0524
 9087TIP3    H148752   0.938   0.521  16.439  0.3501 -0.2071  0.9139
 9087TIP3    H248753   0.833   0.412  16.435 -0.2628  0.4050 -0.0045
 9088TIP3   OH248754   5.930   6.388  11.295  0.2883  0.6496 -0.5135
 9088TIP3    H148755   5.857   6.329  11.277  1.0395 -0.8146  0.9592
 9088TIP3    H248756   5.897   6.475  11.273 -1.5659 -0.0799 -0.7707
 9089TIP3   OH248757   5.766   4.216   4.802  0.1856 -0.3372 -0.3493
 9089TIP3    H148758   5.792   4.124   4.804 -0.0051 -0.3908 -0.3122
 9089TIP3    H248759   5.681   4.216   4.758 -0.2935 -0.2941  0.5739
 9090TIP3   OH248760   0.355   2.511  15.437  0.0189  0.6989 -0.8407
 9090TIP3    H148761   0.345   2.589  15.382 -0.5770  0.9755 -0.3597
 9090TIP3    H248762   0.282   2.517  15.499 -0.0130 -0.2322 -0.7844
 9091TIP3   OH248763   6.090   0.208  13.684  0.5392 -0.0633 -0.3099
 9091TIP3    H148764   6.037   0.223  13.763 -0.0195  1.3678 -0.9198
 9091TIP3    H248765   6.080   0.289  13.633  1.6758 -0.5827 -1.3986
 9092TIP3   OH248766   2.446   4.827  13.024 -0.3680  0.2844 -0.1963
 9092TIP3    H148767   2.512   4.847  12.958  0.3094 -0.0748  0.3541
 9092TIP3    H248768   2.470   4.740  13.057 -1.0366  0.2053  0.1073
 9093TIP3   OH248769   0.721   5.400   6.518  0.4558  0.3391  0.0971
 9093TIP3    H148770   0.765   5.484   6.504 -0.2533  0.5026 -1.4148
 9093TIP3    H248771   0.779   5.335   6.478  0.7916  0.1534  0.8702
 9094TIP3   OH248772   5.381   1.511   5.509  0.0675 -0.3904  0.0962
 9094TIP3    H148773   5.446   1.509   5.579  0.6972  1.4547 -0.3779
 9094TIP3    H248774   5.393   1.428   5.462  0.2701 -1.2383  1.5769
 9095TIP3   OH248775   6.270   0.482   5.901 -0.8143 -0.1395  0.7477
 9095TIP3    H148776   6.334   0.413   5.884 -1.3073 -0.4056 -0.0449
 9095TIP3    H248777   6.216   0.486   5.822 -1.5870  0.2879  1.2822
 9096TIP3   OH248778   3.867   5.192  11.231 -0.1548  0.2511  0.5558
 9096TIP3    H148779   3.773   5.206  11.225 -0.2483 -0.9791 -2.8779
 9096TIP3    H248780   3.903   5.277  11.258 -1.9431  2.1671 -2.4972
 9097TIP3   OH248781   5.201   4.328  12.281 -0.2749 -0.5683 -0.1510
 9097TIP3    H148782   5.163   4.300  12.364 -1.1430 -1.0190 -0.6830
 9097TIP3    H248783   5.220   4.421  12.294  1.0051 -0.9703  1.0454
 9098TIP3   OH248784   1.194   3.389   5.669 -0.3319 -0.2525  0.1473
 9098TIP3    H148785   1.126   3.449   5.701 -1.5242 -0.1438 -2.3921
 9098TIP3    H248786   1.253   3.445   5.618  0.6097 -0.6785  0.7420
 9099TIP3   OH248787   2.191   0.590   1.218 -0.1413 -0.3858  0.4035
 9099TIP3    H148788   2.188   0.639   1.300 -1.3133 -0.1091  0.2172
 9099TIP3    H248789   2.239   0.647   1.157 -0.5057  0.0331  0.5053
 9100TIP3   OH248790   5.090   5.018   4.455 -0.2758 -0.0372  0.2658
 9100TIP3    H148791   5.053   4.979   4.533 -0.3047 -0.5996 -0.0240
 9100TIP3    H248792   5.102   4.945   4.394  0.3153  0.2941 -0.0330
 9101TIP3   OH248793   6.798   5.607   0.156 -0.0840  0.0240  0.9344
 9101TIP3    H148794   6.715   5.616   0.110 -0.5654 -0.3879  1.7019
 9101TIP3    H248795   6.801   5.681   0.216  0.6866  0.7386  0.0602
 9102TIP3   OH248796   4.204   5.022   3.082 -0.0160 -0.7776  0.1072
 9102TIP3    H148797   4.258   4.943   3.075 -0.4757 -0.9785 -1.4553
 9102TIP3    H248798   4.115   4.993   3.065 -0.5208 -0.2736  1.6974
 9103TIP3   OH248799   2.976   0.351  12.324 -0.0162 -0.6168 -0.2704
 9103TIP3    H148800   3.002   0.292  12.253  1.6693 -0.3542  0.0857
 9103TIP3    H248801   3.043   0.420  12.323 -0.5622 -0.0524  0.9114
 9104TIP3   OH248802   1.592   1.008   0.838  0.5859 -1.0257 -0.3140
 9104TIP3    H148803   1.668   1.058   0.810 -0.3643  0.3093 -0.5767
 9104TIP3    H248804   1.610   0.987   0.930  0.7060  0.4056  0.0114
 9105TIP3   OH248805   0.990   4.895   0.765  0.3229 -0.5287 -0.3761
 9105TIP3    H148806   0.937   4.973   0.750  0.8216 -0.0840  0.1076
 9105TIP3    H248807   1.061   4.901   0.701  0.2875 -0.6581 -0.4284
 9106TIP3   OH248808   3.556   3.006   4.977  0.1365 -0.4531  0.2363
 9106TIP3    H148809   3.478   3.038   4.932  1.0922  1.2459 -0.2938
 9106TIP3    H248810   3.613   2.973   4.907 -0.7263 -3.2958  0.7460
 9107TIP3   OH248811   2.817   0.772  15.945 -0.0808 -0.5915 -0.2790
 9107TIP3    H148812   2.894   0.746  15.996 -1.2169 -2.1160  0.7907
 9107TIP3    H248813   2.834   0.739  15.857 -0.1846 -2.4631  0.3542
 9108TIP3   OH248814   2.869   5.966  16.400 -0.0557  0.4815 -0.6056
 9108TIP3    H148815   2.905   5.921  16.476 -0.1998 -1.3568 -1.5717
 9108TIP3    H248816   2.945   6.001  16.353  0.0643  1.2031  0.1161
 9109TIP3   OH248817   5.037   4.177   1.385  0.0829 -0.1346  0.3129
 9109TIP3    H148818   5.047   4.144   1.474  1.7688  1.3183  0.7278
 9109TIP3    H248819   5.022   4.099   1.332 -1.4862 -0.9837  1.8948
 9110TIP3   OH248820   3.543   6.781   4.081 -0.0375 -0.4428 -0.3436
 9110TIP3    H148821   3.527   6.855   4.021 -0.5190 -0.3779 -0.1351
 9110TIP3    H248822   3.547   6.821   4.168  1.5765 -0.4104 -0.4066
 9111TIP3   OH248823   3.557   0.018   1.001  0.7024 -0.3636 -0.2878
 9111TIP3    H148824   3.543   0.094   1.057  1.4750  0.4186 -1.1442
 9111TIP3    H248825   3.639   0.035   0.956 -0.7126 -0.1482 -2.9767
 9112TIP3   OH248826   2.365   4.487  14.565 -0.0158  0.5305  0.0421
 9112TIP3    H148827   2.392   4.562  14.512 -0.4042 -0.8070 -2.1446
 9112TIP3    H248828   2.367   4.413  14.505 -1.0466 -0.9742  1.7740
 9113TIP3   OH248829   1.278   2.360   5.819  0.5130  0.0366  0.0474
 9113TIP3    H148830   1.352   2.359   5.878  0.5974  0.2381 -0.0527
 9113TIP3    H248831   1.286   2.443   5.772  1.9863 -1.2671 -2.1799
 9114TIP3   OH248832   1.825   4.053   5.391 -0.3686 -0.4397 -0.0449
 9114TIP3    H148833   1.762   4.003   5.340 -0.9249  2.0911 -2.0539
 9114TIP3    H248834   1.805   4.144   5.372  1.5080  0.5824  2.2561
 9115TIP3   OH248835   3.116   4.800  13.894  0.2542 -0.4664  0.1320
 9115TIP3    H148836   3.160   4.884  13.887 -0.4652 -0.1820 -1.3579
 9115TIP3    H248837   3.167   4.741  13.838 -1.1991 -0.1123 -1.6841
 9116TIP3   OH248838   6.308   6.428  16.691 -0.6227  0.1568 -0.9092
 9116TIP3    H148839   6.331   6.337  16.672 -0.6689  0.4570 -2.6414
 9116TIP3    H248840   6.300   6.468  16.604 -1.8935  1.4944 -0.2166
 9117TIP3   OH248841   4.042   5.935   2.744  0.1520 -0.3721 -0.3416
 9117TIP3    H148842   3.954   5.899   2.753 -0.0255  0.1912  0.2411
 9117TIP3    H248843   4.093   5.863   2.707 -0.5178 -0.7465 -0.5615
 9118TIP3   OH248844   1.346   0.861   2.681 -0.3161  0.2465  0.3097
 9118TIP3    H148845   1.401   0.796   2.638  0.4011 -0.1644  1.7663
 9118TIP3    H248846   1.349   0.938   2.624 -0.0415 -0.5173 -0.7363
 9119TIP3   OH248847   1.717   3.715   1.550 -0.5815 -0.1606  0.2505
 9119TIP3    H148848   1.750   3.754   1.631  0.1540  1.4422 -0.7639
 9119TIP3    H248849   1.634   3.760   1.534  1.0052  2.3676 -1.7525
 9120TIP3   OH248850   3.403   1.784  16.197 -0.0498 -0.6240 -0.7745
 9120TIP3    H148851   3.334   1.847  16.176 -0.0765  0.3044  1.7448
 9120TIP3    H248852   3.357   1.713  16.243  0.5330 -0.3471  0.2678
 9121TIP3   OH248853   0.329   5.018  12.546 -0.3088 -0.4084  1.3179
 9121TIP3    H148854   0.352   5.001  12.455  0.7629  0.1773  1.4649
 9121TIP3    H248855   0.326   5.113  12.553 -1.7218 -0.4595  1.5819
 9122TIP3   OH248856   6.053   5.814  15.022 -0.1409 -0.0352  0.0887
 9122TIP3    H148857   6.036   5.898  15.065  0.2278 -0.1925  0.5428
 9122TIP3    H248858   6.066   5.837  14.930 -0.8800  0.3084  0.0597
 9123TIP3   OH248859   0.931   6.405  13.753 -0.1445 -0.1638  0.7708
 9123TIP3    H148860   0.964   6.472  13.693  1.8463 -1.7784 -0.0595
 9123TIP3    H248861   0.859   6.363  13.707 -0.7474  0.7170  0.8890
 9124TIP3   OH248862   1.021   1.281  13.994  0.5876  0.1471 -0.5214
 9124TIP3    H148863   0.982   1.213  13.939  1.9328 -2.0322  1.0541
 9124TIP3    H248864   0.983   1.362  13.962 -1.9367 -1.4109 -1.8140
 9125TIP3   OH248865   0.190   1.741  13.439 -0.0340 -0.2948 -0.5644
 9125TIP3    H148866   0.173   1.655  13.400  0.3902 -0.6816  0.0729
 9125TIP3    H248867   0.150   1.803  13.378 -1.6935 -1.0181 -0.2927
 9126TIP3   OH248868   6.857   4.472  13.706  0.4891  0.2780 -0.0737
 9126TIP3    H148869   6.830   4.545  13.762  4.0316  2.4985 -0.9638
 9126TIP3    H248870   6.821   4.494  13.620  1.6991  1.1802 -0.3824
 9127TIP3   OH248871   3.926   4.009   0.069 -0.5052 -0.2256 -0.0213
 9127TIP3    H148872   3.908   4.031   0.160 -0.3813  1.8130 -0.4343
 9127TIP3    H248873   3.905   3.916   0.062 -0.8913 -0.3346  1.9771
 9128TIP3   OH248874   0.475   1.339   2.207  0.1043 -0.6211 -0.4904
 9128TIP3    H148875   0.483   1.344   2.112  2.7442 -2.4027 -0.4971
 9128TIP3    H248876   0.420   1.262   2.223 -2.5805  1.1842 -0.4780
 9129TIP3   OH248877   6.012   0.318   1.826  0.3374  0.3824  0.2917
 9129TIP3    H148878   5.984   0.306   1.917 -1.0193  1.4164  0.0601
 9129TIP3    H248879   5.996   0.411   1.809  1.1891  0.3409 -0.8097
 9130TIP3   OH248880   1.086   5.281  14.638  0.0193 -0.2197 -0.0325
 9130TIP3    H148881   1.125   5.225  14.571 -0.8359  0.0582 -0.7816
 9130TIP3    H248882   1.157   5.339  14.665  0.4109 -0.4266 -0.6020
 9131TIP3   OH248883   2.944   6.791  15.342  0.0847 -0.2797 -0.6419
 9131TIP3    H148884   2.915   6.753  15.425 -1.8118  0.7121 -0.7969
 9131TIP3    H248885   2.968   6.881  15.364  1.4413 -0.5643 -0.8574
 9132TIP3   OH248886   4.134   3.007  16.405 -0.1577 -0.0131 -0.4835
 9132TIP3    H148887   4.164   2.978  16.319  1.3952 -0.7537  0.2372
 9132TIP3    H248888   4.050   2.963  16.418 -0.7526  0.6712 -1.8795
 9133TIP3   OH248889   2.299   1.623  11.153 -0.0462  0.2782  0.3024
 9133TIP3    H148890   2.297   1.712  11.190 -0.5213  0.7747 -0.8675
 9133TIP3    H248891   2.207   1.598  11.146  0.0654 -0.0812  0.1117
 9134TIP3   OH248892   2.847   6.830  13.988  0.3483 -0.0623 -0.0489
 9134TIP3    H148893   2.783   6.899  14.004  1.0871  0.6734 -0.2319
 9134TIP3    H248894   2.798   6.761  13.944 -0.7811 -0.3573  1.5618
 9135TIP3   OH248895   1.683   4.122   5.139 -0.2533 -0.6956  0.4601
 9135TIP3    H148896   1.677   4.069   5.059 -0.0394 -0.5956  0.3765
 9135TIP3    H248897   1.740   4.195   5.115 -1.6991  0.3690  0.1468
 9136TIP3   OH248898   2.043   3.173   5.443  0.1862  0.1544  0.2927
 9136TIP3    H148899   2.104   3.100   5.452  0.9670  0.8585  0.8665
 9136TIP3    H248900   1.999   3.157   5.360  1.3491 -0.2260 -0.2737
 9137TIP3   OH248901   2.064   1.930  11.736  1.0768  0.2047 -0.1536
 9137TIP3    H148902   2.084   2.017  11.701 -2.0880  1.0738 -0.1521
 9137TIP3    H248903   1.999   1.895  11.675  1.6852 -1.8521  0.3100
 9138TIP3   OH248904   1.710   4.178   4.123 -0.1010  0.4175  0.0847
 9138TIP3    H148905   1.767   4.178   4.047 -2.7293 -2.1525 -2.1481
 9138TIP3    H248906   1.660   4.260   4.115 -0.0128  0.4064 -0.6920
 9139TIP3   OH248907   0.604   1.192   1.271 -0.2527 -0.5746 -0.1717
 9139TIP3    H148908   0.525   1.150   1.236 -0.2515  0.0685 -0.9856
 9139TIP3    H248909   0.676   1.149   1.225 -0.1148 -1.2904  0.7085
 9140TIP3   OH248910   6.183   3.816  11.924  0.1555  0.7752 -0.2291
 9140TIP3    H148911   6.148   3.781  12.006  1.3820 -1.2412 -0.4904
 9140TIP3    H248912   6.108   3.855  11.880 -0.9943 -0.2010  0.8010
 9141TIP3   OH248913   4.006   0.534   4.455 -0.0066 -0.8196 -0.2472
 9141TIP3    H148914   3.955   0.593   4.511 -0.9365 -0.6830 -1.2142
 9141TIP3    H248915   4.098   0.554   4.476 -0.2506  1.7660 -1.3168
 9142TIP3   OH248916   0.790   1.354   5.390  1.0107  0.3970  0.1187
 9142TIP3    H148917   0.823   1.308   5.313 -0.5527 -0.5396 -0.0432
 9142TIP3    H248918   0.828   1.308   5.464  0.9014 -0.0149 -0.0770
 9143TIP3   OH248919   1.133   2.325  13.265  0.0519  0.0367  0.1696
 9143TIP3    H148920   1.108   2.333  13.357 -0.1409  0.4640  0.0821
 9143TIP3    H248921   1.124   2.414  13.230 -0.0787 -0.1650 -0.3127
 9144TIP3   OH248922   5.139   6.028  16.947  1.1789  0.3096  0.2907
 9144TIP3    H148923   5.070   6.052  16.884 -0.8887 -2.6795  1.2197
 9144TIP3    H248924   5.220   6.037  16.897  0.0113  1.9817 -1.4940
 9145TIP3   OH248925   1.240   0.651   0.990 -0.1851 -0.3567 -0.7407
 9145TIP3    H148926   1.227   0.680   1.080 -0.9516 -0.7824 -0.7062
 9145TIP3    H248927   1.329   0.678   0.968 -0.2394  0.3654 -0.0925
 9146TIP3   OH248928   0.590   5.089  16.287  0.8396 -0.0725 -0.0359
 9146TIP3    H148929   0.641   5.156  16.332 -0.6022 -0.2387  1.9915
 9146TIP3    H248930   0.638   5.007  16.303  1.4431  0.1580 -0.6341
 9147TIP3   OH248931   1.886   4.048  15.342 -0.3783  0.2875 -0.2394
 9147TIP3    H148932   1.944   3.995  15.396 -1.2413  0.6359  1.0917
 9147TIP3    H248933   1.864   3.992  15.267  1.8404  0.2587 -0.9442
 9148TIP3   OH248934   2.126   4.081   2.808  0.4227  0.6485 -0.3707
 9148TIP3    H148935   2.083   4.038   2.882  1.4751 -1.2224 -0.7784
 9148TIP3    H248936   2.193   4.136   2.847  1.2694 -0.6709  0.1059
 9149TIP3   OH248937   4.527   0.534   3.314 -0.4554 -0.4924  0.7265
 9149TIP3    H148938   4.541   0.524   3.220  1.1311 -1.0588  1.0013
 9149TIP3    H248939   4.434   0.557   3.322 -0.0534  2.3349 -1.1734
 9150TIP3   OH248940   6.017   3.283  12.912  0.0093 -0.1390  0.2638
 9150TIP3    H148941   5.959   3.355  12.938  0.7925  0.2578  0.9619
 9150TIP3    H248942   6.038   3.239  12.995 -0.9531 -1.5765 -0.2102
 9151TIP3   OH248943   4.937   0.261   4.082  0.3350  0.5834  0.2574
 9151TIP3    H148944   4.990   0.272   4.161  0.3154  0.4997  0.2834
 9151TIP3    H248945   4.858   0.216   4.113  1.3643 -1.7054 -0.1750
 9152TIP3   OH248946   1.828   1.418  16.355 -0.5951 -0.2946 -0.3907
 9152TIP3    H148947   1.744   1.413  16.310 -1.2977 -0.2567  0.8820
 9152TIP3    H248948   1.831   1.340  16.410  0.2366 -0.3264 -0.4590
 9153TIP3   OH248949   4.293   2.514   3.949 -0.0481 -0.0466  0.1669
 9153TIP3    H148950   4.309   2.598   3.993 -1.1782  0.3613 -0.1418
 9153TIP3    H248951   4.348   2.451   3.995 -0.6549  0.4929  1.7158
 9154TIP3   OH248952   1.656   6.036   1.168 -0.5962  0.0101  0.0733
 9154TIP3    H148953   1.608   6.061   1.090 -1.4268  0.9791  0.8653
 9154TIP3    H248954   1.699   6.116   1.197  0.4445 -0.5496  0.1108
 9155TIP3   OH248955   0.638   6.165   4.234  0.0295 -0.4363 -0.2080
 9155TIP3    H148956   0.601   6.103   4.297  0.4090 -2.5926 -2.0176
 9155TIP3    H248957   0.723   6.189   4.271 -0.5200 -0.2212  0.9667
 9156TIP3   OH248958   0.334   4.609  16.853  0.1272 -0.0275  0.1870
 9156TIP3    H148959   0.382   4.610  16.770 -1.0913  0.6263 -0.5343
 9156TIP3    H248960   0.249   4.648  16.832 -0.8888 -1.5230  1.3320
 9157TIP3   OH248961   5.725   1.288  16.772 -0.3302 -0.2212 -0.5283
 9157TIP3    H148962   5.688   1.375  16.757 -0.9549 -0.5962 -1.1621
 9157TIP3    H248963   5.670   1.250  16.841 -0.7975 -0.5740 -1.0962
 9158TIP3   OH248964   3.235   2.975   4.452  0.6816 -0.3583 -0.5588
 9158TIP3    H148965   3.153   3.009   4.487  0.9193  0.8380 -1.1197
 9158TIP3    H248966   3.300   3.042   4.472  1.8322 -1.8586  1.0525
 9159TIP3   OH248967   3.045   0.610  11.956  0.1426  0.5103 -0.4927
 9159TIP3    H148968   3.118   0.606  12.018  0.5853  1.3894 -0.9224
 9159TIP3    H248969   3.065   0.687  11.901 -1.8733  1.7251  0.3569
 9160TIP3   OH248970   3.578   5.659  13.696 -0.2385  0.5519  0.5930
 9160TIP3    H148971   3.529   5.653  13.614 -0.1014 -1.1020  0.5845
 9160TIP3    H248972   3.645   5.591  13.688  0.0697  0.6788  1.8896
 9161TIP3   OH248973   5.445   6.506  17.031  0.6336 -0.1778 -0.4708
 9161TIP3    H148974   5.352   6.515  17.011  0.8196 -0.2873 -1.4174
 9161TIP3    H248975   5.447   6.449  17.108 -0.0732 -0.3483 -0.5715
 9162TIP3   OH248976   0.948   2.042   3.111 -0.4596 -0.0105  0.3105
 9162TIP3    H148977   0.864   2.046   3.156 -1.0253  2.1337 -0.7909
 9162TIP3    H248978   0.997   2.117   3.144 -0.7026  1.3493 -2.1726
 9163TIP3   OH248979   0.037   5.198  12.420  0.5011  0.0982  0.0559
 9163TIP3    H148980   0.122   5.225  12.385  0.5409  1.7152  1.3066
 9163TIP3    H248981   0.026   5.249  12.500 -1.1765 -0.8778  0.4995
 9164TIP3   OH248982   0.233   4.051  15.498 -0.5553  0.2986 -0.4610
 9164TIP3    H148983   0.279   3.984  15.550 -2.3945 -1.3450 -0.8102
 9164TIP3    H248984   0.147   4.011  15.479 -1.2119  2.2405 -1.8586
 9165TIP3   OH248985   6.436   2.792   3.278 -0.5699  0.6073 -0.6394
 9165TIP3    H148986   6.361   2.848   3.299 -0.0064  1.4908 -0.9745
 9165TIP3    H248987   6.512   2.839   3.313 -0.0195  0.3650 -1.4979
 9166TIP3   OH248988   3.081   5.137   2.736 -0.3494 -0.2054 -0.5150
 9166TIP3    H148989   3.046   5.220   2.704 -1.1246 -0.2006  0.3137
 9166TIP3    H248990   3.136   5.161   2.811 -0.4055 -0.4303 -0.4020
 9167TIP3   OH248991   5.397   1.497  16.908  0.0896 -0.5214  0.0868
 9167TIP3    H148992   5.487   1.497  16.875  0.2228 -1.3488  0.4329
 9167TIP3    H248993   5.346   1.459  16.836  0.1206 -0.6957  0.1577
 9168TIP3   OH248994   6.335   1.934   5.253 -0.7464 -0.0593  0.3695
 9168TIP3    H148995   6.272   1.962   5.319 -0.7626  1.5991 -0.2952
 9168TIP3    H248996   6.405   1.893   5.303 -1.2737  0.1562  1.3205
 9169TIP3   OH248997   6.684   3.366   3.135 -0.1048  0.3192 -0.2912
 9169TIP3    H148998   6.726   3.280   3.130 -0.2551  0.2880 -1.5317
 9169TIP3    H248999   6.590   3.347   3.127 -0.1676  0.5672 -0.1557
 9170TIP3   OH249000   4.039   0.740   2.013  0.6228  0.1100  0.2940
 9170TIP3    H149001   4.087   0.669   2.053 -0.5830 -1.3849 -0.7645
 9170TIP3    H249002   4.102   0.812   2.006  2.5836 -1.6030 -0.6798
 9171TIP3   OH249003   3.684   0.803  16.353 -0.1364  0.2540 -0.0223
 9171TIP3    H149004   3.596   0.827  16.325 -0.5743 -0.6091  0.5692
 9171TIP3    H249005   3.742   0.853  16.296 -1.0035  0.4335 -0.7668
 9172TIP3   OH249006   5.947   1.723  14.672  0.5487  0.1773  0.4613
 9172TIP3    H149007   5.964   1.762  14.758  1.2750 -0.9702  0.8733
 9172TIP3    H249008   5.874   1.662  14.688  2.3453 -1.9685  0.9125
 9173TIP3   OH249009   5.543   2.980  10.927  0.1732  0.6232  0.1775
 9173TIP3    H149010   5.635   2.998  10.908  0.0846  1.3304  0.3639
 9173TIP3    H249011   5.524   2.897  10.883  0.5658  1.0976 -0.9187
 9174TIP3   OH249012   6.167   5.539  14.573  0.0245 -0.5870  0.3887
 9174TIP3    H149013   6.252   5.503  14.547 -0.2732 -1.1454  0.1694
 9174TIP3    H249014   6.106   5.505  14.508 -0.4121 -0.3892  0.6896
 9175TIP3   OH249015   2.068   2.860   5.163  0.5917 -0.1814  0.2357
 9175TIP3    H149016   2.073   2.802   5.239  2.0338  1.5570  1.5093
 9175TIP3    H249017   2.104   2.807   5.091 -1.3432 -2.0648  0.5225
 9176TIP3   OH249018   3.266   0.632   5.507  0.6257  0.4142 -0.0524
 9176TIP3    H149019   3.198   0.652   5.573  1.8027  0.7783  1.0938
 9176TIP3    H249020   3.220   0.579   5.441 -0.3083 -1.1231  1.7186
 9177TIP3   OH249021   3.296   4.912   5.866  0.2753  0.5015 -0.1734
 9177TIP3    H149022   3.253   4.997   5.876 -0.0249  0.3389 -0.1007
 9177TIP3    H249023   3.371   4.916   5.926  0.3718  0.7869 -0.3123
 9178TIP3   OH249024   3.871   0.799   5.236 -0.4294 -0.3015  0.1346
 9178TIP3    H149025   3.960   0.781   5.205 -0.5013  0.0920 -0.3139
 9178TIP3    H249026   3.869   0.894   5.246 -1.2375 -0.1572 -1.2383
 9179TIP3   OH249027   1.127   4.432   5.428  0.3222  0.1269  0.0486
 9179TIP3    H149028   1.175   4.349   5.423 -0.4738 -0.3745  0.5745
 9179TIP3    H249029   1.182   4.488   5.483  0.3467 -0.4205  0.5899
 9180TIP3   OH249030   6.470   3.527  14.818  0.5856  0.0527  0.2305
 9180TIP3    H149031   6.407   3.484  14.760 -0.6862  1.4350  0.5151
 9180TIP3    H249032   6.556   3.505  14.781 -0.1630  0.4206 -1.8558
 9181TIP3   OH249033   2.235   2.998   1.720 -0.1980  0.5658  0.3576
 9181TIP3    H149034   2.222   3.075   1.775  1.1879  0.9345  0.1879
 9181TIP3    H249035   2.329   2.990   1.710 -0.3513 -0.6073 -0.4120
 9182TIP3   OH249036   0.079   6.311  13.430  0.1020  0.3938  0.1725
 9182TIP3    H149037   0.041   6.226  13.453 -0.0452 -0.1324 -1.7989
 9182TIP3    H249038   0.111   6.346  13.513  0.7678 -1.8820  0.9690
 9183TIP3   OH249039   4.512   4.346   0.941 -0.1857  0.1781  0.2404
 9183TIP3    H149040   4.443   4.412   0.949 -1.1762 -0.8121  0.0246
 9183TIP3    H249041   4.584   4.380   0.995 -0.5024  1.6350 -0.2175
 9184TIP3   OH249042   5.370   2.102  14.398 -0.1230 -0.2971 -0.0213
 9184TIP3    H149043   5.396   2.155  14.474 -1.0698 -1.5803  1.2366
 9184TIP3    H249044   5.335   2.022  14.436 -1.5063 -0.5783 -1.8072
 9185TIP3   OH249045   2.142   3.226  13.585  0.1209  0.2001  0.3434
 9185TIP3    H149046   2.134   3.319  13.606  1.1237  0.2458  0.5640
 9185TIP3    H249047   2.091   3.181  13.652 -1.1435  0.6218 -0.2961
 9186TIP3   OH249048   3.739   0.894   0.183  0.8154  0.2624 -0.6739
 9186TIP3    H149049   3.774   0.981   0.199  0.0452  0.6094 -0.8281
 9186TIP3    H249050   3.644   0.904   0.189  0.6757 -0.3998 -1.4444
 9187TIP3   OH249051   1.236   2.928   3.410 -0.3577 -0.4771 -0.1172
 9187TIP3    H149052   1.203   2.997   3.468  1.3793  0.9189 -0.6851
 9187TIP3    H249053   1.232   2.967   3.323 -1.5684 -2.0224 -0.7961
 9188TIP3   OH249054   1.055   0.494   1.469 -0.0052  0.7567  0.1664
 9188TIP3    H149055   1.012   0.448   1.541 -1.7539  0.7068 -0.8449
 9188TIP3    H249056   1.138   0.448   1.456 -0.3551 -0.1806  1.1540
 9189TIP3   OH249057   2.734   4.833   1.647 -0.3297  0.1881 -0.0232
 9189TIP3    H149058   2.659   4.878   1.685 -0.8264 -0.1386 -0.5970
 9189TIP3    H249059   2.698   4.751   1.613  0.3331 -0.0786 -0.0828
 9190TIP3   OH249060   1.704   5.485   2.888  0.4598  0.2678 -0.4680
 9190TIP3    H149061   1.689   5.417   2.822  1.0407  0.7257 -1.0857
 9190TIP3    H249062   1.711   5.566   2.838  0.0244  0.7572  0.2387
 9191TIP3   OH249063   5.704   2.910  16.939 -0.0816 -0.3086  0.1307
 9191TIP3    H149064   5.616   2.926  16.972 -0.0845 -1.7447  0.9127
 9191TIP3    H249065   5.740   2.997  16.922 -1.5487  0.3017  0.0481
 9192TIP3   OH249066   0.652   0.176  16.190  0.0129  0.1040  0.4017
 9192TIP3    H149067   0.716   0.211  16.251 -1.1728 -0.2214  1.9024
 9192TIP3    H249068   0.605   0.253  16.157 -1.6333  0.1293  2.5981
 9193TIP3   OH249069   1.993   4.177   4.301 -0.0298 -0.6657 -0.1911
 9193TIP3    H149070   1.972   4.138   4.386  0.5444  1.3867  0.9727
 9193TIP3    H249071   2.084   4.155   4.286  0.0952 -0.3769  0.1262
 9194TIP3   OH249072   3.079   5.414   2.660 -0.1926 -0.5134  0.0473
 9194TIP3    H149073   3.146   5.473   2.694 -0.6093 -0.0823  0.1464
 9194TIP3    H249074   3.020   5.472   2.611 -0.7979 -0.7966  0.4281
 9195TIP3   OH249075   4.513   1.112  12.306  0.3008  0.2838  0.0202
 9195TIP3    H149076   4.535   1.113  12.213  0.4869  2.0859  0.0378
 9195TIP3    H249077   4.566   1.183  12.344  0.5865 -0.7070  1.5924
 9196TIP3   OH249078   6.153   1.610  16.000  0.3662 -0.1164  0.5673
 9196TIP3    H149079   6.204   1.613  15.919 -1.2694 -0.5955 -0.5245
 9196TIP3    H249080   6.159   1.699  16.035  0.8746  0.1700 -0.2143
 9197TIP3   OH249081   2.353   0.621   5.999 -0.2897  0.2461 -0.1020
 9197TIP3    H149082   2.377   0.614   6.091 -0.2919  2.0652  0.0771
 9197TIP3    H249083   2.265   0.660   6.000 -1.0306 -1.3029 -0.8704
 9198TIP3   OH249084   6.070   5.501   2.321  0.9167 -1.2944 -0.2414
 9198TIP3    H149085   6.128   5.547   2.381  2.3326 -1.6811 -1.2536
 9198TIP3    H249086   6.053   5.417   2.364 -0.9386 -0.2443  1.1881
 9199TIP3   OH249087   5.166   2.740  15.286  0.1012 -0.1922  0.0714
 9199TIP3    H149088   5.135   2.767  15.200  0.5140 -2.6467 -0.9260
 9199TIP3    H249089   5.093   2.760  15.345 -0.1979  1.5093 -0.8059
 9200TIP3   OH249090   5.725   2.911  14.720 -0.0014 -0.1316  0.7605
 9200TIP3    H149091   5.634   2.883  14.723 -0.2042  0.2414 -0.9890
 9200TIP3    H249092   5.772   2.834  14.687 -0.0261  0.3721 -0.4910
 9201TIP3   OH249093   3.132   0.387   3.287 -0.7963 -0.2118  0.7219
 9201TIP3    H149094   3.196   0.441   3.240  0.8076 -1.6630  1.0946
 9201TIP3    H249095   3.138   0.301   3.243 -1.4310 -0.7641  1.6996
 9202TIP3   OH249096   3.917   6.865  14.627 -0.0360 -0.4313  0.1557
 9202TIP3    H149097   3.882   6.796  14.570 -0.7229 -1.7558  2.0716
 9202TIP3    H249098   3.989   6.822  14.674 -0.6153  0.0599  1.5510
 9203TIP3   OH249099   2.504   3.152   0.657 -0.3116  0.3376 -0.1189
 9203TIP3    H149100   2.480   3.071   0.613 -2.2393  0.1136  1.2596
 9203TIP3    H249101   2.461   3.221   0.606 -0.2107  0.3423 -0.1997
 9204TIP3   OH249102   1.841   4.795   2.454 -0.6096  0.7435  0.1174
 9204TIP3    H149103   1.927   4.759   2.430 -1.2339 -0.4321 -0.4711
 9204TIP3    H249104   1.826   4.866   2.391 -0.0591  0.9723  0.2410
 9205TIP3   OH249105   0.324   5.636  14.217  0.7515  0.1798  0.3331
 9205TIP3    H149106   0.257   5.676  14.161  0.3357 -3.2227 -1.8498
 9205TIP3    H249107   0.274   5.594  14.287  0.8111 -0.4015  0.0241
 9206TIP3   OH249108   2.148   1.301  13.686 -0.1265 -0.5543  0.0523
 9206TIP3    H149109   2.194   1.291  13.769 -1.5417  2.3131  1.3120
 9206TIP3    H249110   2.216   1.291  13.619  1.9548  1.3606  1.7367
 9207TIP3   OH249111   0.100   5.268   4.508 -0.0511  0.1085 -0.4718
 9207TIP3    H149112   0.171   5.332   4.505  0.1455 -0.1029 -0.3771
 9207TIP3    H249113   0.061   5.279   4.595  0.0351  0.0459 -0.4244
 9208TIP3   OH249114   3.556   0.480   4.431 -0.6068  0.4441  0.6113
 9208TIP3    H149115   3.524   0.429   4.505  3.3860 -0.7755  1.7690
 9208TIP3    H249116   3.573   0.415   4.363 -0.1034  0.9259  0.2730
 9209TIP3   OH249117   2.145   0.129  13.426  0.0610  0.2400  0.5262
 9209TIP3    H149118   2.199   0.201  13.392 -0.0185  0.4242  0.7892
 9209TIP3    H249119   2.063   0.171  13.451 -1.5020 -0.4939 -2.8530
 9210TIP3   OH249120   1.780   2.413   4.987 -0.2234  0.4508 -0.0549
 9210TIP3    H149121   1.752   2.383   4.901 -0.7769  0.3789  0.1455
 9210TIP3    H249122   1.857   2.467   4.970 -0.6755  0.9235 -0.6576
 9211TIP3   OH249123   6.267   1.832   0.134 -0.6380 -0.4624 -0.0125
 9211TIP3    H149124   6.264   1.920   0.171 -1.3748 -1.0789  1.4606
 9211TIP3    H249125   6.196   1.830   0.069 -0.9837 -0.1322  0.3533
 9212TIP3   OH249126   3.336   4.114   4.929 -0.2381 -0.2416  0.2882
 9212TIP3    H149127   3.408   4.080   4.982  0.3374  0.5739  0.0411
 9212TIP3    H249128   3.294   4.180   4.985 -0.2399 -0.0870  0.1057
 9213TIP3   OH249129   1.184   4.050  14.745 -0.1677 -0.6671  0.0897
 9213TIP3    H149130   1.246   3.979  14.760 -0.6173 -0.5702  2.7450
 9213TIP3    H249131   1.101   4.006  14.726 -0.0742 -0.8111  0.0097
 9214TIP3   OH249132   4.037   0.440   4.864  0.0903 -0.0430  0.6577
 9214TIP3    H149133   3.956   0.435   4.813  1.1270  0.1914 -1.0902
 9214TIP3    H249134   4.106   0.418   4.802  1.4628  0.6572  1.8689
 9215TIP3   OH249135   0.705   0.271   4.405 -0.1043  0.1266  0.4562
 9215TIP3    H149136   0.699   0.334   4.334  0.9165 -0.0532  0.1966
 9215TIP3    H249137   0.766   0.205   4.373  0.3817  0.0512  1.5075
 9216TIP3   OH249138   6.544   6.172  14.135  0.2130 -0.0054 -0.2556
 9216TIP3    H149139   6.618   6.230  14.153  0.5421 -0.6948  0.6992
 9216TIP3    H249140   6.470   6.230  14.121  0.5170  0.6366  0.7704
 9217TIP3   OH249141   2.379   2.445   6.102 -0.0981  0.3092  0.0211
 9217TIP3    H149142   2.333   2.431   6.185  0.7742  0.2755  0.5090
 9217TIP3    H249143   2.431   2.523   6.117 -0.7108  0.8937 -0.8473
 9218TIP3   OH249144   2.083   4.010   2.561 -0.1601  0.0373  0.0863
 9218TIP3    H149145   2.088   4.062   2.641 -0.6691 -0.0050  0.1538
 9218TIP3    H249146   2.171   4.013   2.523 -0.5479  2.2978 -0.7633
 9219TIP3   OH249147   2.817   3.113   2.245  0.6303 -0.5498  0.2064
 9219TIP3    H149148   2.721   3.118   2.250  0.6389 -0.7525  0.6972
 9219TIP3    H249149   2.835   3.023   2.219  0.7117 -0.9635  1.5892
 9220TIP3   OH249150   1.541   3.208   0.059 -0.5236  0.3051  0.2906
 9220TIP3    H149151   1.474   3.174   0.118  0.3747 -0.8515  0.6958
 9220TIP3    H249152   1.565   3.133   0.004  2.7893 -0.4158  2.3834
 9221TIP3   OH249153   1.756   3.900   3.956 -0.1234 -0.5210  0.3496
 9221TIP3    H149154   1.772   3.982   3.910 -0.5152 -0.2103  0.7573
 9221TIP3    H249155   1.709   3.845   3.894 -0.6418 -0.1075  0.3793
 9222TIP3   OH249156   6.641   3.338   6.057 -0.0630  0.0832  0.1433
 9222TIP3    H149157   6.556   3.295   6.060 -0.1634  0.0061 -2.1465
 9222TIP3    H249158   6.686   3.297   5.984  0.8747  1.9928 -0.4093
 9223TIP3   OH249159   0.315   1.767   0.058 -0.0766  0.0703 -0.0031
 9223TIP3    H149160   0.380   1.698   0.057  0.6567  0.7507 -0.2050
 9223TIP3    H249161   0.287   1.776  -0.033  0.0182  0.2173 -0.0169
 9224TIP3   OH249162   1.421   0.428   0.776  0.1804  0.4632 -0.1529
 9224TIP3    H149163   1.325   0.423   0.774  0.2624 -1.6034 -1.4026
 9224TIP3    H249164   1.439   0.512   0.819 -2.1703  0.8271  0.2872
 9225TIP3   OH249165   3.567   5.168   3.224  1.0700 -0.7041  0.3042
 9225TIP3    H149166   3.541   5.245   3.275  2.3645  1.9790 -2.6935
 9225TIP3    H249167   3.619   5.115   3.284 -1.6523 -0.4878  3.1284
 9226TIP3   OH249168   0.991   1.902  11.995  0.4809  0.0174 -0.4013
 9226TIP3    H149169   1.036   1.874  11.915  0.9262  0.6439 -0.3711
 9226TIP3    H249170   0.970   1.820  12.040 -1.5338 -0.5084 -2.0834
 9227TIP3   OH249171   4.042   2.152   1.620 -0.0252  0.4487  0.0848
 9227TIP3    H149172   4.067   2.073   1.572 -2.1752 -0.9583  1.1331
 9227TIP3    H249173   4.123   2.202   1.628  1.0790 -0.8767 -1.9758
 9228TIP3   OH249174   0.758   0.962  17.079 -0.2092  0.1576 -0.4107
 9228TIP3    H149175   0.689   0.916  17.126  1.3768 -2.0854 -0.1322
 9228TIP3    H249176   0.754   0.930  16.990  1.3770 -1.1905 -0.0466
 9229TIP3   OH249177   2.054   1.659   4.231 -0.2581 -0.2207  0.5090
 9229TIP3    H149178   1.974   1.653   4.180 -0.1859 -3.1162  0.5929
 9229TIP3    H249179   2.119   1.694   4.170 -0.8769 -0.8176 -0.5170
 9230TIP3   OH249180   3.833   3.256  14.269  0.1332  0.2058  0.0256
 9230TIP3    H149181   3.777   3.179  14.253  0.8638 -0.3367  0.0383
 9230TIP3    H249182   3.864   3.282  14.182 -0.6951  0.9467 -0.0635
 9231TIP3   OH249183   1.478   5.072   0.320  0.3076  0.2616 -0.1113
 9231TIP3    H149184   1.410   5.004   0.321 -0.3478  0.8876  1.2728
 9231TIP3    H249185   1.460   5.122   0.240  0.1803 -0.5783 -0.6216
 9232TIP3   OH249186   4.977   4.370   6.529 -0.1436 -0.1753 -0.0757
 9232TIP3    H149187   5.047   4.305   6.537 -0.6867 -0.9509 -1.2274
 9232TIP3    H249188   5.015   4.451   6.562  0.8191 -0.9049  0.6500
 9233TIP3   OH249189   5.909   0.139  10.843  0.4510  0.0490 -0.0515
 9233TIP3    H149190   5.931   0.047  10.853  0.5932  0.0683 -0.1846
 9233TIP3    H249191   5.823   0.148  10.885  0.2656 -0.2241 -0.3664
 9234TIP3   OH249192   4.157   5.070  17.094 -0.6799  0.2252 -0.3531
 9234TIP3    H149193   4.248   5.100  17.084 -0.8161  1.1734  1.0170
 9234TIP3    H249194   4.162   4.975  17.081  0.4982  0.2697 -0.3689
 9235TIP3   OH249195   0.283   2.363  14.365  0.8338  0.3679 -0.3106
 9235TIP3    H149196   0.276   2.280  14.413  1.4978  0.1603 -0.5616
 9235TIP3    H249197   0.194   2.380  14.334  0.6243 -0.0802  0.0197
 9236TIP3   OH249198   5.487   4.724  13.783 -0.0590 -0.4340  0.3737
 9236TIP3    H149199   5.531   4.733  13.698 -3.0513  0.9569 -1.2214
 9236TIP3    H249200   5.482   4.630  13.798 -0.1536 -0.7626 -1.4525
 9237TIP3   OH249201   4.466   3.136  15.911 -0.2759  0.5119  0.1537
 9237TIP3    H149202   4.474   3.231  15.916  1.9600  0.3139  2.8859
 9237TIP3    H249203   4.533   3.109  15.849  0.4378  0.6289  0.8631
 9238TIP3   OH249204   0.460   2.672   6.550 -0.0754 -0.1364 -0.2149
 9238TIP3    H149205   0.537   2.714   6.587 -0.0014 -1.1796  0.9022
 9238TIP3    H249206   0.493   2.614   6.482 -0.1114  1.0485 -1.2695
 9239TIP3   OH249207   2.613   1.860   3.105  0.5923 -0.2944 -0.3211
 9239TIP3    H149208   2.551   1.873   3.034  0.6263 -1.3333 -0.5495
 9239TIP3    H249209   2.678   1.798   3.070  1.2123  0.0198  0.2455
 9240TIP3   OH249210   1.762   5.765  11.506 -0.0952 -0.1964 -0.1763
 9240TIP3    H149211   1.854   5.776  11.531  0.2217 -0.5703 -1.1482
 9240TIP3    H249212   1.720   5.728  11.583  0.6075 -0.1890  0.2143
 9241TIP3   OH249213   0.555   0.556   3.236 -0.5000 -0.1283 -0.5939
 9241TIP3    H149214   0.603   0.475   3.254  0.7366  0.2983 -1.8457
 9241TIP3    H249215   0.514   0.578   3.320 -2.5901 -3.1151 -0.6697
 9242TIP3   OH249216   0.128   5.980  11.874  0.4255 -0.2778  0.0114
 9242TIP3    H149217   0.194   5.914  11.895  0.5537 -0.0754  0.2572
 9242TIP3    H249218   0.152   6.011  11.787  0.2043 -0.7452 -0.2208
 9243TIP3   OH249219   1.626   3.380  14.018  0.0790 -0.2140 -0.0624
 9243TIP3    H149220   1.681   3.393  14.095 -0.1615  0.9158 -0.0697
 9243TIP3    H249221   1.635   3.461  13.967 -1.4055 -0.0850 -0.1652
 9244TIP3   OH249222   5.446   1.237  11.524  0.1485 -1.2748  0.1654
 9244TIP3    H149223   5.529   1.189  11.521 -1.4099 -4.1841 -2.4221
 9244TIP3    H249224   5.444   1.286  11.442 -0.5749 -1.0157  0.3328
 9245TIP3   OH249225   1.667   6.210  15.108  0.1605 -0.1207  0.7599
 9245TIP3    H149226   1.584   6.218  15.154  0.8321  0.0196  1.9945
 9245TIP3    H249227   1.651   6.249  15.022 -0.6152  1.3631  1.5399
 9246TIP3   OH249228   1.145   6.158   1.399 -0.0101  0.2193 -0.1423
 9246TIP3    H149229   1.102   6.108   1.468  2.3915 -1.8596  0.0282
 9246TIP3    H249230   1.196   6.224   1.445  1.2068 -0.8563  0.1385
 9247TIP3   OH249231   3.095   1.056  17.022 -0.2376 -0.7842 -0.1716
 9247TIP3    H149232   3.030   1.104  16.971  1.3758 -0.8602 -2.4902
 9247TIP3    H249233   3.108   0.975  16.972  1.5187 -0.8132  0.2835
 9248TIP3   OH249234   0.855   3.644   3.681 -0.1508 -0.1593 -0.0045
 9248TIP3    H149235   0.796   3.643   3.756  0.3880 -0.0685  0.4242
 9248TIP3    H249236   0.885   3.735   3.676  0.7859 -0.4360  0.4406
 9249TIP3   OH249237   3.701   5.402  14.992  0.3571 -0.4828  0.1188
 9249TIP3    H149238   3.742   5.427  14.910  1.3672 -0.3942  0.6304
 9249TIP3    H249239   3.761   5.434  15.060  1.1579 -3.2053  0.8244
 9250TIP3   OH249240   6.720   1.766   1.282 -0.1341  0.6607 -0.1165
 9250TIP3    H149241   6.757   1.689   1.324 -1.3474 -0.5531 -1.1907
 9250TIP3    H249242   6.631   1.773   1.319 -0.1537  1.3614 -0.2701
 9251TIP3   OH249243   2.790   3.533   2.639  0.3122  0.3066  0.4122
 9251TIP3    H149244   2.754   3.621   2.650 -2.2463 -0.5425 -0.3963
 9251TIP3    H249245   2.819   3.529   2.548  2.9709  1.0768  1.1279
 9252TIP3   OH249246   1.140   6.234   1.733 -0.3273  1.0485  0.0398
 9252TIP3    H149247   1.133   6.143   1.763  1.5715  0.5226 -0.9456
 9252TIP3    H249248   1.049   6.264   1.727 -1.1095 -1.2784 -1.0550
 9253TIP3   OH249249   5.973   2.933   3.888  0.5549 -0.1446 -0.1319
 9253TIP3    H149250   5.891   2.913   3.934  0.8082  1.4099  1.0356
 9253TIP3    H249251   5.948   2.934   3.795 -0.3972 -1.2207  0.0858
 9254TIP3   OH249252   0.634   5.616  13.032 -0.2845 -0.0273 -0.2254
 9254TIP3    H149253   0.698   5.546  13.018  0.5651  0.6102  0.3387
 9254TIP3    H249254   0.669   5.690  12.983  0.5092  0.9442  1.7136
 9255TIP3   OH249255   5.989   2.266   2.954 -0.0858  0.2147  0.1029
 9255TIP3    H149256   5.976   2.336   2.890 -1.0438  0.1449  0.2078
 9255TIP3    H249257   5.998   2.311   3.038  2.9320  0.4355 -0.2259
 9256TIP3   OH249258   3.753   4.281   5.123  0.1182  0.7819 -0.2076
 9256TIP3    H149259   3.714   4.274   5.210 -0.6315 -0.8511 -0.6414
 9256TIP3    H249260   3.727   4.368   5.091 -1.4055  0.5519  0.3432
 9257TIP3   OH249261   0.450   5.931   3.568  0.0527 -0.1564  0.5928
 9257TIP3    H149262   0.512   5.919   3.640  1.0018 -0.3759 -0.2534
 9257TIP3    H249263   0.386   5.860   3.580  0.4261 -0.4300  0.9997
 9258TIP3   OH249264   0.117   6.310  11.900 -0.2361 -0.1495  0.3917
 9258TIP3    H149265   0.152   6.377  11.841 -2.0764 -1.0027 -1.8022
 9258TIP3    H249266   0.091   6.238  11.842 -1.1720 -1.4918  2.3678
 9259TIP3   OH249267   4.813   6.837  12.881 -0.2995 -0.6175 -0.0440
 9259TIP3    H149268   4.761   6.758  12.867  1.4421 -1.8540  0.1030
 9259TIP3    H249269   4.750   6.904  12.907 -1.7630 -2.0956  0.3509
 9260TIP3   OH249270   5.161   1.185   3.427 -0.5260  0.3927  0.5964
 9260TIP3    H149271   5.098   1.232   3.372  1.2044  2.0959 -0.0524
 9260TIP3    H249272   5.216   1.137   3.365 -0.9031 -0.7604  1.1281
 9261TIP3   OH249273   5.465   3.544  16.798  0.3041  0.4660  0.6664
 9261TIP3    H149274   5.405   3.619  16.799 -0.3618  0.0254 -1.6012
 9261TIP3    H249275   5.409   3.467  16.809  0.4035  0.0499 -1.4362
 9262TIP3   OH249276   2.263   5.395  16.598 -0.0202 -0.3053  0.9049
 9262TIP3    H149277   2.242   5.349  16.679 -0.0894 -0.2036  0.9440
 9262TIP3    H249278   2.226   5.339  16.529  1.0975 -1.0227  0.8631
 9263TIP3   OH249279   4.612   4.577   2.299 -0.2288  0.0673  0.1746
 9263TIP3    H149280   4.626   4.547   2.210 -1.4680  1.5862 -0.5767
 9263TIP3    H249281   4.673   4.525   2.352  0.7858 -0.5940 -1.5775
 9264TIP3   OH249282   5.891   3.654   0.742 -0.0809 -0.2322  0.0283
 9264TIP3    H149283   5.825   3.686   0.804 -1.2147  0.1654 -1.3407
 9264TIP3    H249284   5.859   3.681   0.657  0.1675 -2.8502 -1.0046
 9265TIP3   OH249285   5.107   4.977   2.192 -0.2966 -0.1929  0.3421
 9265TIP3    H149286   5.075   4.957   2.280  0.8498  0.9837  1.0594
 9265TIP3    H249287   5.028   4.977   2.138 -1.1631  0.0272  1.5531
 9266TIP3   OH249288   1.139   2.714   6.757 -0.0292 -0.0208  0.0801
 9266TIP3    H149289   1.198   2.773   6.804  1.2445 -0.5142 -0.8419
 9266TIP3    H249290   1.181   2.700   6.672 -3.1185  2.2538 -2.0558
 9267TIP3   OH249291   5.520   1.024   4.769  0.3661  0.0993 -0.2799
 9267TIP3    H149292   5.555   1.080   4.839 -0.7721 -0.3379  0.6652
 9267TIP3    H249293   5.480   1.085   4.707 -0.3805  0.3938  0.4691
 9268TIP3   OH249294   0.216   4.497   6.373 -0.0661 -0.0882 -0.0844
 9268TIP3    H149295   0.124   4.506   6.397 -0.1798  0.9227 -0.8491
 9268TIP3    H249296   0.227   4.403   6.356 -0.4511 -0.5502  1.9080
 9269TIP3   OH249297   1.496   3.882  11.099 -0.0471  0.1062  0.4882
 9269TIP3    H149298   1.575   3.934  11.084  0.1295  0.2738  1.8446
 9269TIP3    H249299   1.525   3.811  11.156 -0.5005 -0.9045 -0.5168
 9270TIP3   OH249300   5.350   2.729   1.294  0.0090 -0.0894  0.0062
 9270TIP3    H149301   5.366   2.640   1.261 -1.4208 -0.0321 -0.9364
 9270TIP3    H249302   5.318   2.717   1.383 -1.1380 -0.5952 -0.4654
 9271TIP3   OH249303   5.753   2.987  15.849 -0.1628 -0.2084 -0.1897
 9271TIP3    H149304   5.752   2.965  15.756 -0.8726  0.0086 -0.2436
 9271TIP3    H249305   5.669   2.953  15.882 -0.0396 -0.0359  0.3093
 9272TIP3   OH249306   3.615   4.346  12.838 -0.0944  0.1222 -0.0343
 9272TIP3    H149307   3.571   4.280  12.891  0.1499 -0.3165 -0.3674
 9272TIP3    H249308   3.708   4.330  12.853  0.0742 -1.3073 -2.0709
 9273TIP3   OH249309   4.350   4.465  11.139  0.3270 -0.3477 -0.1914
 9273TIP3    H149310   4.411   4.531  11.107  0.1217 -0.5844 -1.0872
 9273TIP3    H249311   4.406   4.389  11.158  1.2156  1.1423  4.4913
 9274TIP3   OH249312   3.589   3.959  15.215  0.0112 -0.1814  0.1693
 9274TIP3    H149313   3.589   4.003  15.130  1.2666  0.9079  0.7133
 9274TIP3    H249314   3.518   3.895  15.207 -0.8455  0.8507 -1.1985
 9275TIP3   OH249315   0.693   4.529   4.050 -0.3896 -0.2848  0.2555
 9275TIP3    H149316   0.681   4.479   4.130 -0.8600 -1.1243 -0.3190
 9275TIP3    H249317   0.741   4.470   3.992  1.4874  0.9354  0.4926
 9276TIP3   OH249318   1.080   4.062   1.146 -0.0015 -0.3030  0.3951
 9276TIP3    H149319   1.056   4.080   1.237  0.7442 -0.5879  0.6567
 9276TIP3    H249320   1.161   4.112   1.132 -0.2283 -0.0805 -0.1886
 9277TIP3   OH249321   3.577   6.405   4.231  0.2260  0.2236 -0.5396
 9277TIP3    H149322   3.542   6.345   4.297  1.0830  0.1363 -0.1515
 9277TIP3    H249323   3.657   6.439   4.271  0.5273  0.4908 -1.3718
 9278TIP3   OH249324   4.990   4.189  13.806 -0.2707 -0.0179  0.3331
 9278TIP3    H149325   5.023   4.118  13.752 -1.5177 -1.1744  1.0391
 9278TIP3    H249326   5.064   4.214  13.861  0.8035  0.6933 -1.3524
 9279TIP3   OH249327   3.328   0.073   1.617 -1.1150 -0.1901 -0.0026
 9279TIP3    H149328   3.266   0.042   1.682 -1.2720 -1.5176 -0.7545
 9279TIP3    H249329   3.410   0.086   1.666 -2.0138  1.9307  1.0651
 9280TIP3   OH249330   4.441   5.432   2.482  0.3952 -0.5363  0.2580
 9280TIP3    H149331   4.503   5.504   2.496 -0.2706  0.1517 -0.2484
 9280TIP3    H249332   4.459   5.370   2.553 -0.9961  1.5003  2.5407
 9281TIP3   OH249333   5.846   1.184   1.921 -0.7998 -0.0373  0.1136
 9281TIP3    H149334   5.923   1.240   1.919  0.5264 -1.7976  0.1299
 9281TIP3    H249335   5.879   1.098   1.946 -2.6945 -0.9645 -0.3889
 9282TIP3   OH249336   0.902   1.580   0.383  0.5752  0.2143 -0.4475
 9282TIP3    H149337   0.919   1.487   0.372 -0.2360 -0.1139  0.8836
 9282TIP3    H249338   0.910   1.617   0.295 -1.2523 -1.4569 -1.3861
 9283TIP3   OH249339   4.992   5.662   5.121 -0.2440  0.0309 -0.0922
 9283TIP3    H149340   4.981   5.646   5.215 -2.1010  0.9882 -0.0879
 9283TIP3    H249341   4.905   5.645   5.083 -0.2498  2.1183 -1.2035
 9284TIP3   OH249342   0.925   0.770  16.668 -0.5402  0.2149 -0.7613
 9284TIP3    H149343   0.831   0.759  16.658 -0.8674  1.6991  0.3393
 9284TIP3    H249344   0.955   0.689  16.710 -1.6212  0.4161  0.4437
 9285TIP3   OH249345   4.120   4.033  14.250 -0.6114  0.0869 -0.6785
 9285TIP3    H149346   4.215   4.041  14.260 -0.5798  0.0369 -0.9112
 9285TIP3    H249347   4.095   4.110  14.199 -0.4937 -0.5969 -1.8027
 9286TIP3   OH249348   1.266   4.916  15.853  0.5264  0.0370  0.1137
 9286TIP3    H149349   1.294   4.882  15.938 -0.2149 -0.1956  0.2702
 9286TIP3    H249350   1.274   4.841  15.794  1.1627  0.2325 -0.0502
 9287TIP3   OH249351   0.420   3.834   4.892  0.0406 -0.3961 -0.3984
 9287TIP3    H149352   0.454   3.810   4.806 -2.9770 -0.7491 -1.6089
 9287TIP3    H249353   0.349   3.772   4.908 -0.1900  0.3660  1.8745
 9288TIP3   OH249354   5.312   3.780  16.587 -0.3475 -0.2967  0.3297
 9288TIP3    H149355   5.286   3.771  16.679  2.7865 -0.7992  1.2681
 9288TIP3    H249356   5.299   3.873  16.568 -0.9174 -0.1554  1.3130
 9289TIP3   OH249357   2.673   1.892   2.522  0.3367  0.2669  0.0692
 9289TIP3    H149358   2.705   1.919   2.436 -1.1227 -0.0291 -0.5849
 9289TIP3    H249359   2.749   1.850   2.563  1.8530  2.7539  0.0133
 9290TIP3   OH249360   1.338   2.672   2.527 -0.3325 -0.3746  0.0639
 9290TIP3    H149361   1.406   2.607   2.509  0.9203  0.8235  0.3580
 9290TIP3    H249362   1.353   2.697   2.618 -1.1387 -0.0430  0.1104
 9291TIP3   OH249363   2.339   5.022  11.943  0.2312  0.3209 -0.6216
 9291TIP3    H149364   2.425   5.006  11.906  0.0549 -1.9013 -0.2071
 9291TIP3    H249365   2.282   4.958  11.900 -1.6010  2.6430 -1.9789
 9292TIP3   OH249366   1.039   2.122   0.880  0.2366  0.0742 -0.0986
 9292TIP3    H149367   1.098   2.195   0.860 -0.4225  0.2559 -1.5248
 9292TIP3    H249368   0.983   2.154   0.950 -0.4536  1.1943 -1.1302
 9293TIP3   OH249369   1.480   1.271  11.150 -0.0466 -0.0482 -0.8015
 9293TIP3    H149370   1.569   1.248  11.123  0.2325  0.0125  0.0321
 9293TIP3    H249371   1.434   1.188  11.157  1.2404 -0.6613  3.2177
 9294TIP3   OH249372   4.577   0.605   1.046 -0.2955 -0.8207  0.2546
 9294TIP3    H149373   4.640   0.631   0.979 -0.9504 -1.4411 -0.6202
 9294TIP3    H249374   4.555   0.687   1.091 -0.1791 -0.3115 -0.5799
 9295TIP3   OH249375   2.116   2.980  14.163  0.2107 -0.1215 -0.0403
 9295TIP3    H149376   2.109   2.941  14.076 -0.6804  0.2015 -0.1301
 9295TIP3    H249377   2.170   3.058  14.150  0.7068 -0.4845 -0.1585
 9296TIP3   OH249378   1.861   5.003  16.663 -0.1421  0.7879  0.4533
 9296TIP3    H149379   1.821   4.939  16.605  0.3293  2.1559 -1.4758
 9296TIP3    H249380   1.789   5.057  16.693 -0.0953  1.7066 -1.0186
 9297TIP3   OH249381   0.309   2.188   2.780  0.2034  0.2248  0.3153
 9297TIP3    H149382   0.222   2.219   2.805  0.7258  1.2516  0.9130
 9297TIP3    H249383   0.326   2.228   2.695 -0.0539 -0.2733  0.0266
 9298TIP3   OH249384   1.132   3.835   0.254 -0.1485  0.2662 -0.1811
 9298TIP3    H149385   1.189   3.781   0.198 -1.4234 -0.5239 -0.7452
 9298TIP3    H249386   1.190   3.904   0.286  1.1943 -0.6443 -0.5476
 9299TIP3   OH249387   6.861   3.405  16.417  0.1362  0.1903  0.2842
 9299TIP3    H149388   6.891   3.454  16.340 -0.5650 -1.4297 -1.0845
 9299TIP3    H249389   6.936   3.350  16.441  0.1732  0.2982  0.4144
 9300TIP3   OH249390   3.981   2.878  12.899 -0.6227 -0.3307 -0.3781
 9300TIP3    H149391   3.975   2.924  12.815 -0.1610  0.5590  0.0615
 9300TIP3    H249392   4.041   2.931  12.951 -2.0081 -0.0939  1.0259
 9301TIP3   OH249393   4.845   5.339   4.158 -0.3470  0.4964 -0.1546
 9301TIP3    H149394   4.902   5.312   4.229 -0.6811  2.2650  0.8509
 9301TIP3    H249395   4.904   5.354   4.084  0.0025 -1.3432 -0.2846
 9302TIP3   OH249396   1.178   4.513  10.561  0.7428 -0.0677  0.3509
 9302TIP3    H149397   1.107   4.539  10.502  0.3131 -1.8642  0.0042
 9302TIP3    H249398   1.147   4.535  10.648 -0.0429 -0.3614  0.1579
 9303TIP3   OH249399   6.319   1.434   5.590  0.4401  0.5786 -0.1593
 9303TIP3    H149400   6.392   1.381   5.560 -0.4348 -2.2923  2.2863
 9303TIP3    H249401   6.241   1.381   5.572 -0.7142  1.9750  0.4730
 9304TIP3   OH249402   6.194   6.000   6.155 -0.2060  0.1135  0.4523
 9304TIP3    H149403   6.122   6.008   6.218 -0.3543  0.7206  0.2134
 9304TIP3    H249404   6.189   6.080   6.104  0.9148  0.3531  0.7093
 9305TIP3   OH249405   6.473   0.705   3.931  0.3586  0.4757 -0.0344
 9305TIP3    H149406   6.446   0.796   3.934 -1.1459  0.0299  1.3842
 9305TIP3    H249407   6.524   0.692   4.011  0.3950  0.0116 -0.1273
 9306TIP3   OH249408   2.874   4.447  16.633  0.7382 -0.1224  0.0617
 9306TIP3    H149409   2.925   4.410  16.705 -0.3653 -0.9783  0.4452
 9306TIP3    H249410   2.875   4.541  16.648 -0.0294 -0.3303  1.6042
 9307TIP3   OH249411   4.329   5.114   5.498  0.6900 -0.6530 -0.1875
 9307TIP3    H149412   4.280   5.170   5.438 -1.3384  0.2129  2.1022
 9307TIP3    H249413   4.290   5.131   5.584  2.1231 -3.2838  1.1060
 9308TIP3   OH249414   2.115   1.940   2.701 -0.0722  0.0644 -0.1084
 9308TIP3    H149415   2.106   2.034   2.683 -2.7694 -0.1094 -0.0230
 9308TIP3    H249416   2.101   1.898   2.616 -2.0304 -0.3396  0.3766
 9309TIP3   OH249417   6.446   6.087  11.649  0.5137 -0.4220  0.7183
 9309TIP3    H149418   6.503   6.039  11.710  1.3370 -1.2982 -0.6961
 9309TIP3    H249419   6.503   6.155  11.613  0.2736 -0.4258  0.3335
 9310TIP3   OH249420   0.978   6.628   5.400 -0.1395 -0.6172 -0.1342
 9310TIP3    H149421   0.947   6.574   5.328  0.7425  1.7788 -2.5095
 9310TIP3    H249422   0.899   6.662   5.441 -0.6849 -0.4630 -1.2815
 9311TIP3   OH249423   0.135   0.732   1.537  0.4216 -0.1138  0.0938
 9311TIP3    H149424   0.107   0.822   1.523  0.1978 -0.2182 -0.1311
 9311TIP3    H249425   0.225   0.740   1.571  0.7342  0.1609 -0.7749
 9312TIP3   OH249426   5.478   0.578  13.251  0.2076 -0.7160 -0.8454
 9312TIP3    H149427   5.456   0.524  13.175 -0.1480 -1.6788 -0.0828
 9312TIP3    H249428   5.454   0.524  13.326 -1.7569  1.1503 -0.0324
 9313TIP3   OH249429   0.449   4.658   0.640  0.3465 -0.3217 -0.5223
 9313TIP3    H149430   0.382   4.635   0.705 -0.2233  0.4696 -0.8260
 9313TIP3    H249431   0.435   4.596   0.569 -0.6032  0.3510 -0.9418
 9314TIP3   OH249432   0.715   4.580  16.308 -0.5582 -0.3858  0.0537
 9314TIP3    H149433   0.684   4.667  16.333 -0.2913 -0.8572  2.2105
 9314TIP3    H249434   0.636   4.531  16.286 -0.8324 -0.0017  0.1823
 9315TIP3   OH249435   3.326   5.503   1.093 -0.7367  0.6152 -0.3501
 9315TIP3    H149436   3.282   5.438   1.148  0.5299 -0.4786 -0.5602
 9315TIP3    H249437   3.256   5.539   1.039 -1.5262 -0.4451 -0.0842
 9316TIP3   OH249438   6.142   0.175  16.549  0.9021 -0.0579 -0.1808
 9316TIP3    H149439   6.173   0.183  16.639 -0.1843  1.2439  0.1086
 9316TIP3    H249440   6.163   0.085  16.524  2.5751  0.0072  0.8356
 9317TIP3   OH249441   1.130   3.193   3.401 -0.1406  0.1162  0.0642
 9317TIP3    H149442   1.082   3.276   3.405 -0.6527 -0.2059  0.9925
 9317TIP3    H249443   1.064   3.128   3.379 -0.1192 -0.3108  1.2011
 9318TIP3   OH249444   3.180   0.598  14.303 -0.1280  0.2556  0.0022
 9318TIP3    H149445   3.177   0.613  14.397  0.2823  0.5550 -0.0320
 9318TIP3    H249446   3.199   0.683  14.264  0.4274  0.0046 -0.3023
 9319TIP3   OH249447   2.129   3.373  15.242  0.1669 -0.2070 -0.6403
 9319TIP3    H149448   2.119   3.410  15.330  0.1384  0.7528 -1.0248
 9319TIP3    H249449   2.113   3.280  15.253  0.7766 -0.2069  0.4817
 9320TIP3   OH249450   6.842   4.643  16.322  0.1014  0.1560 -0.3895
 9320TIP3    H149451   6.770   4.582  16.336  1.0636 -0.7913  0.7328
 9320TIP3    H249452   6.877   4.660  16.409  0.8647  1.0520 -0.8439
 9321TIP3   OH249453   1.507   3.842  16.739  0.0482  0.2357  0.0542
 9321TIP3    H149454   1.526   3.769  16.680 -0.7814  0.2949 -0.3044
 9321TIP3    H249455   1.593   3.868  16.773  0.4792 -0.1765 -0.6743
 9322TIP3   OH249456   4.612   1.939  15.729  0.8742 -0.1013  0.2069
 9322TIP3    H149457   4.659   2.016  15.761  0.7607 -0.9536  2.6815
 9322TIP3    H249458   4.637   1.931  15.637  1.1632  2.6431 -0.0338
 9323TIP3   OH249459   5.296   4.552  11.108 -0.2714  0.4989  0.1892
 9323TIP3    H149460   5.330   4.621  11.051 -0.3427  0.2304 -0.1765
 9323TIP3    H249461   5.371   4.529  11.163 -0.1182  0.5473  0.0027
 9324TIP3   OH249462   2.911   5.432   1.031  0.3408 -0.9386  0.0824
 9324TIP3    H149463   2.838   5.490   1.052 -0.9114 -2.0008 -1.1459
 9324TIP3    H249464   2.973   5.444   1.103  0.2351  2.0193 -0.1784
 9325TIP3   OH249465   3.633   3.829  12.235  0.0986  0.4203  0.7801
 9325TIP3    H149466   3.586   3.888  12.294 -0.5782 -2.5309  3.5062
 9325TIP3    H249467   3.722   3.827  12.269  0.6861  1.3592 -0.6006
 9326TIP3   OH249468   4.381   6.839  14.943  0.2888  0.4829  0.5371
 9326TIP3    H149469   4.292   6.805  14.955 -0.2796  1.6365 -0.2403
 9326TIP3    H249470   4.387   6.912  15.005  0.5045  0.7344  0.2231
 9327TIP3   OH249471   3.462   5.366  14.874  0.1915 -0.6154 -0.7173
 9327TIP3    H149472   3.387   5.384  14.931 -0.4250 -0.6822 -1.4738
 9327TIP3    H249473   3.538   5.373  14.930 -0.4209 -1.0282  0.1877
 9328TIP3   OH249474   3.154   3.075  11.985 -0.1308  0.5251 -0.2390
 9328TIP3    H149475   3.234   3.121  11.959  0.2863 -0.8423 -1.5099
 9328TIP3    H249476   3.184   3.010  12.049 -0.1266 -0.2719 -1.0297
 9329TIP3   OH249477   4.809   5.820  11.719 -0.7698 -0.3030  0.0969
 9329TIP3    H149478   4.761   5.797  11.798 -0.3517  0.2054  0.5034
 9329TIP3    H249479   4.766   5.900  11.688 -2.2809 -1.6031 -1.3603
 9330TIP3   OH249480   3.861   6.156   4.260  0.3508  0.3048  0.3995
 9330TIP3    H149481   3.829   6.173   4.171 -1.5302  0.3602  1.0363
 9330TIP3    H249482   3.917   6.231   4.280  1.8991 -0.3567 -1.1823
 9331TIP3   OH249483   0.497   3.516  16.412 -0.5402 -0.3041  0.3253
 9331TIP3    H149484   0.466   3.603  16.438  0.8286  0.5939 -0.8509
 9331TIP3    H249485   0.433   3.486  16.347  0.7341  1.4183 -1.9034
 9332TIP3   OH249486   6.792   6.238   4.064  0.1928 -0.1759  0.0197
 9332TIP3    H149487   6.857   6.178   4.100 -1.5164 -0.8704  2.1593
 9332TIP3    H249488   6.737   6.184   4.008  0.2198 -0.0464 -0.1318
 9333TIP3   OH249489   6.622   0.138  15.523 -0.4357 -0.0012  0.1649
 9333TIP3    H149490   6.642   0.179  15.439 -2.6400 -0.8839 -0.8636
 9333TIP3    H249491   6.527   0.129  15.524 -0.3035 -2.1291  1.7414
 9334TIP3   OH249492   6.796   1.009   4.386 -0.0889 -0.0553 -0.1881
 9334TIP3    H149493   6.804   0.942   4.453 -0.0620  1.7663  1.7082
 9334TIP3    H249494   6.790   0.960   4.304 -0.4556 -2.3674  1.1399
 9335TIP3   OH249495   3.902   0.449  16.750  0.5057 -0.7495 -0.0499
 9335TIP3    H149496   3.922   0.474  16.660  0.2584 -0.3547  0.0002
 9335TIP3    H249497   3.820   0.400  16.744  0.7668 -1.1849 -0.0991
 9336TIP3   OH249498   1.373   2.653   5.935 -0.2193  0.2543  0.1529
 9336TIP3    H149499   1.420   2.601   6.000  0.1533  0.0484 -0.2748
 9336TIP3    H249500   1.402   2.617   5.851 -1.0117  0.2436 -0.1181
 9337TIP3   OH249501   4.068   0.102  15.901  0.3650  0.3045 -0.1401
 9337TIP3    H149502   4.056   0.040  15.829 -1.6626  0.1201  0.2921
 9337TIP3    H249503   4.139   0.159  15.872  0.6693 -0.7530 -1.5799
 9338TIP3   OH249504   4.851   2.712  16.143 -0.1375  0.0222  0.2089
 9338TIP3    H149505   4.782   2.740  16.084  0.5472  1.3728  0.0029
 9338TIP3    H249506   4.908   2.789  16.151  0.2017 -0.3785  2.0207
 9339TIP3   OH249507   0.358   1.728   3.778  0.0342  0.1777 -0.1744
 9339TIP3    H149508   0.338   1.670   3.850 -1.3357  2.7181  1.6514
 9339TIP3    H249509   0.327   1.682   3.700 -1.2013 -1.4041  1.1863
 9340TIP3   OH249510   4.885   1.958  12.454 -0.3043  0.2079 -0.4830
 9340TIP3    H149511   4.904   1.872  12.416 -0.3735 -0.2539  0.4980
 9340TIP3    H249512   4.941   2.018  12.405  0.7374 -0.5780 -0.3107
 9341TIP3   OH249513   3.961   2.004  14.857 -0.7849 -0.0975 -0.0433
 9341TIP3    H149514   4.012   1.948  14.917 -1.0837 -0.6974 -0.3368
 9341TIP3    H249515   3.972   2.092  14.892 -0.5788 -0.3813  0.6369
 9342TIP3   OH249516   3.937   4.744   2.716 -0.7494  0.4750  0.0295
 9342TIP3    H149517   3.858   4.746   2.770 -1.6643  2.2748 -1.2619
 9342TIP3    H249518   3.959   4.836   2.701 -1.0786  0.1230 -3.3138
 9343TIP3   OH249519   2.476   4.261   4.996  0.0657  0.1524  0.0804
 9343TIP3    H149520   2.395   4.312   5.003 -0.2252 -0.0505 -1.4113
 9343TIP3    H249521   2.522   4.301   4.922  0.1630 -1.2933 -0.6621
 9344TIP3   OH249522   2.797   3.671   3.986  0.1629 -0.0620  0.5730
 9344TIP3    H149523   2.867   3.616   4.022 -0.5938  0.6049  3.3500
 9344TIP3    H249524   2.830   3.761   3.997  0.0901  0.1775 -0.9712
 9345TIP3   OH249525   2.444   3.208  13.328 -0.2254  0.5081 -0.4253
 9345TIP3    H149526   2.497   3.155  13.387 -0.6688  1.1010  0.5427
 9345TIP3    H249527   2.362   3.221  13.375 -0.8507  0.4500 -1.4692
 9346TIP3   OH249528   6.148   4.017   4.091 -0.9109  0.2377 -0.1108
 9346TIP3    H149529   6.057   4.013   4.121 -0.3086  0.6256  1.8991
 9346TIP3    H249530   6.190   3.941   4.133  0.9202  3.0720  3.7544
 9347TIP3   OH249531   6.660   3.626  12.825 -0.4028 -0.3049 -0.4652
 9347TIP3    H149532   6.723   3.672  12.880 -0.7112  0.3699 -0.6664
 9347TIP3    H249533   6.713   3.573  12.766 -0.0678 -1.3188  0.7027
 9348TIP3   OH249534   4.449   4.817  14.367  0.1350 -0.7737 -0.3702
 9348TIP3    H149535   4.529   4.765  14.367  0.4929 -0.2386  0.4949
 9348TIP3    H249536   4.430   4.832  14.459  0.4349  1.2157 -0.5871
 9349TIP3   OH249537   5.212   0.394  14.950  0.4989 -0.1525  0.5012
 9349TIP3    H149538   5.128   0.404  14.906  0.1711  0.0185  1.1636
 9349TIP3    H249539   5.277   0.401  14.879 -0.0256 -0.0621  0.0243
 9350TIP3   OH249540   1.702   6.799   3.717 -0.2040 -0.4829  0.2524
 9350TIP3    H149541   1.746   6.769   3.638  1.4239  0.6504  0.6574
 9350TIP3    H249542   1.765   6.782   3.788 -0.8011  0.3258  1.0065
 9351TIP3   OH249543   1.882   5.175  15.485 -0.3758  0.0610 -0.0409
 9351TIP3    H149544   1.917   5.128  15.409  0.7199 -2.0214  1.6451
 9351TIP3    H249545   1.800   5.130  15.506 -1.0572  1.1030 -0.3907
 9352TIP3   OH249546   5.293   1.617   3.162  0.8263  0.0704  0.4788
 9352TIP3    H149547   5.272   1.537   3.112 -0.4911  0.3054  0.6380
 9352TIP3    H249548   5.211   1.642   3.203  1.4648  0.9661  1.2418
 9353TIP3   OH249549   0.836   5.149   0.445 -0.4336  0.0959  0.5251
 9353TIP3    H149550   0.834   5.146   0.349  2.9250  0.0954  0.3263
 9353TIP3    H249551   0.922   5.184   0.465 -1.2091  0.4683  3.5872
 9354TIP3   OH249552   5.315   6.141  12.085  0.2782  0.4676 -0.0230
 9354TIP3    H149553   5.389   6.087  12.058 -0.1298  0.5544 -1.3448
 9354TIP3    H249554   5.240   6.082  12.083  0.3538  0.2362  1.8319
 9355TIP3   OH249555   3.018   1.230   6.055 -1.1147  0.2966  0.0579
 9355TIP3    H149556   3.030   1.135   6.053 -1.6334  0.2380 -0.6320
 9355TIP3    H249557   3.050   1.256   6.142 -1.0880 -0.5193  0.3062
 9356TIP3   OH249558   0.508   5.767   4.030  0.1750 -0.1138  0.2368
 9356TIP3    H149559   0.549   5.761   3.944 -0.0434 -0.2612  0.1426
 9356TIP3    H249560   0.416   5.748   4.014  0.4464 -2.0435  0.7777
 9357TIP3   OH249561   5.909   2.408   5.226  0.1956  0.3395  0.2192
 9357TIP3    H149562   5.889   2.470   5.295 -0.0039 -0.0963  0.5580
 9357TIP3    H249563   5.840   2.420   5.161  0.0648  0.3540  0.3623
 9358TIP3   OH249564   0.516   2.613   3.277  0.4560  0.0863 -0.1030
 9358TIP3    H149565   0.546   2.647   3.361  0.6823 -1.4410  0.4619
 9358TIP3    H249566   0.422   2.600   3.289  0.3514  0.5929 -0.3522
 9359TIP3   OH249567   4.448   1.908   3.332  0.6131 -0.0894  0.1223
 9359TIP3    H149568   4.518   1.921   3.269 -1.1443  0.5471 -1.8026
 9359TIP3    H249569   4.388   1.846   3.290 -1.1388  1.1436  0.6508
 9360TIP3   OH249570   2.791   0.529   1.362 -0.2352  0.0839 -0.2346
 9360TIP3    H149571   2.746   0.515   1.279  1.2171 -0.0221 -1.0412
 9360TIP3    H249572   2.737   0.483   1.427 -0.8158 -0.7593 -1.2818
 9361TIP3   OH249573   0.466   1.432  13.943 -0.3358 -0.1658 -0.6635
 9361TIP3    H149574   0.391   1.482  13.911 -0.2516  0.4277  0.0340
 9361TIP3    H249575   0.438   1.395  14.026  0.2998  0.5179 -0.1196
 9362TIP3   OH249576   0.199   3.240  16.472 -0.1326  0.3931  0.1702
 9362TIP3    H149577   0.276   3.292  16.451 -0.2028 -0.2394 -1.9632
 9362TIP3    H249578   0.234   3.156  16.502  0.0660 -0.1099 -1.3786
 9363TIP3   OH249579   1.981   1.966   3.415  0.2077  0.3828 -0.2661
 9363TIP3    H149580   1.954   1.875   3.412 -0.0785  0.3710  1.4686
 9363TIP3    H249581   1.919   2.012   3.358 -0.5169 -0.3226 -0.0693
 9364TIP3   OH249582   2.390   4.156  16.603  0.4181 -0.2213  0.0619
 9364TIP3    H149583   2.478   4.194  16.600  0.5198 -0.3957  0.7475
 9364TIP3    H249584   2.369   4.137  16.511  1.0020  0.0263 -0.1271
 9365TIP3   OH249585   1.240   1.961  15.390  0.1568 -0.5692  0.6132
 9365TIP3    H149586   1.165   1.903  15.394  1.1740 -2.2239 -1.8003
 9365TIP3    H249587   1.309   1.909  15.348  1.4802  2.0112 -0.7203
 9366TIP3   OH249588   5.421   1.996   5.850 -0.3002 -0.2706  0.5181
 9366TIP3    H149589   5.513   2.021   5.853  0.1090 -1.2555 -1.5671
 9366TIP3    H249590   5.422   1.900   5.850 -1.2603 -0.2988 -0.0828
 9367TIP3   OH249591   4.849   0.944  14.483  0.3010 -0.0775  0.1551
 9367TIP3    H149592   4.786   1.011  14.507 -0.3165 -0.9336  1.0231
 9367TIP3    H249593   4.829   0.870  14.541  0.3413 -1.3636 -1.3774
 9368TIP3   OH249594   1.214   4.390   1.927  0.4672  0.5532  0.1702
 9368TIP3    H149595   1.284   4.353   1.874  0.1743  0.1269  0.0725
 9368TIP3    H249596   1.243   4.379   2.017 -0.0450 -0.8271  0.1890
 9369TIP3   OH249597   0.707   4.576  16.020  0.3238  0.4270 -0.7110
 9369TIP3    H149598   0.724   4.554  16.111 -1.7473  0.1648 -0.3378
 9369TIP3    H249599   0.764   4.518  15.970  0.2821 -0.5893  0.3920
 9370TIP3   OH249600   0.145   3.703  15.411 -0.1352  0.2822 -0.2127
 9370TIP3    H149601   0.115   3.624  15.456  2.3453  0.1201  1.3015
 9370TIP3    H249602   0.104   3.775  15.460  0.4969  0.0120  0.7522
 9371TIP3   OH249603   6.195   2.112  13.104  0.2480 -0.2545  0.2925
 9371TIP3    H149604   6.135   2.137  13.034 -0.1707  2.7108  1.5830
 9371TIP3    H249605   6.272   2.078  13.058 -0.7432 -0.1742 -1.5101
 9372TIP3   OH249606   4.664   5.536   2.636  0.3116  0.0961 -0.3805
 9372TIP3    H149607   4.692   5.447   2.654 -0.3660 -0.0914 -0.2206
 9372TIP3    H249608   4.745   5.586   2.627  0.6886 -0.4411 -0.0066
 9373TIP3   OH249609   3.539   6.656  15.362  0.1390 -0.1416  0.5080
 9373TIP3    H149610   3.478   6.730  15.360  0.2274 -0.0584 -1.2951
 9373TIP3    H249611   3.626   6.697  15.367  0.1619 -0.1295  0.0790
 9374TIP3   OH249612   2.492   2.377  12.185  0.3346  0.2519 -0.0384
 9374TIP3    H149613   2.486   2.440  12.113 -1.0160  0.1279 -0.0537
 9374TIP3    H249614   2.416   2.395  12.240  0.8515 -0.2601  0.8697
 9375TIP3   OH249615   6.176   4.191   3.855  0.1830 -0.1165 -0.0164
 9375TIP3    H149616   6.154   4.160   3.942  0.7829 -0.5047  0.0030
 9375TIP3    H249617   6.263   4.229   3.864  0.8141 -1.3396 -0.7023
 9376TIP3   OH249618   2.804   3.414  13.582  0.0096  0.5026  0.3755
 9376TIP3    H149619   2.833   3.487  13.528  2.0457 -0.1211  0.5407
 9376TIP3    H249620   2.883   3.382  13.625 -0.9098 -1.4322  0.7861
 9377TIP3   OH249621   1.172   5.518  10.476 -0.4013  0.1357 -0.1247
 9377TIP3    H149622   1.145   5.564  10.555  0.5102  2.2544 -0.9867
 9377TIP3    H249623   1.216   5.584  10.423 -0.5300 -1.3434 -2.1948
 9378TIP3   OH249624   1.123   3.988   1.887 -0.9988  0.1233  0.2500
 9378TIP3    H149625   1.158   3.902   1.913 -1.9692 -0.4078 -0.1568
 9378TIP3    H249626   1.190   4.050   1.915 -0.9339 -0.6237  1.8745
 9379TIP3   OH249627   3.882   3.239   3.159  0.6104  0.4390  0.2229
 9379TIP3    H149628   3.892   3.182   3.236 -1.1632 -0.4286 -0.1427
 9379TIP3    H249629   3.917   3.187   3.087 -0.4475  0.0184 -0.0100
 9380TIP3   OH249630   3.069   3.083  16.736  0.3024  0.3704 -0.4441
 9380TIP3    H149631   3.050   3.029  16.660  0.2414  0.5307 -0.5435
 9380TIP3    H249632   2.985   3.092  16.781  0.0576  1.3407 -1.0533
 9381TIP3   OH249633   2.492   6.451  13.272 -0.3514  0.3594 -0.0261
 9381TIP3    H149634   2.436   6.382  13.309  1.9614 -1.4536  0.3678
 9381TIP3    H249635   2.486   6.523  13.334  0.3749 -1.1175  1.8305
 9382TIP3   OH249636   4.494   3.582  16.308 -0.0851  0.4667 -0.2314
 9382TIP3    H149637   4.518   3.666  16.346  2.8550 -0.8827  1.2578
 9382TIP3    H249638   4.535   3.583  16.221  0.9004  0.1872  0.2185
 9383TIP3   OH249639   0.537   4.689   2.773  0.2384  0.3256  0.5834
 9383TIP3    H149640   0.580   4.611   2.739 -1.6096 -0.2758 -0.5210
 9383TIP3    H249641   0.501   4.661   2.858  0.6876  0.3693  0.7891
 9384TIP3   OH249642   2.161   4.815   2.503  0.1667  0.0474 -0.2315
 9384TIP3    H149643   2.163   4.871   2.425  1.3797  0.8922  0.3774
 9384TIP3    H249644   2.247   4.827   2.543 -0.5733 -0.0464  1.4675
 9385TIP3   OH249645   5.736   3.695   5.595 -0.1737  0.6096 -0.2659
 9385TIP3    H149646   5.703   3.759   5.658 -1.2623  1.0634 -1.2579
 9385TIP3    H249647   5.708   3.728   5.510  0.2091 -0.6136 -0.8939
 9386TIP3   OH249648   3.679   3.437   4.122 -0.0520  0.0117 -0.0123
 9386TIP3    H149649   3.697   3.475   4.208  0.2988  2.0222 -0.9190
 9386TIP3    H249650   3.586   3.414   4.125  0.2418 -1.1611  1.3078
 9387TIP3   OH249651   2.994   2.114   2.482 -0.1104 -0.4483  0.5051
 9387TIP3    H149652   2.958   2.039   2.434  1.0708 -0.8048  0.1360
 9387TIP3    H249653   3.082   2.086   2.506  0.4907  0.9633  0.0356
 9388TIP3   OH249654   1.495   2.072  16.416 -0.0342  0.4267  0.1495
 9388TIP3    H149655   1.448   2.097  16.337  0.1477 -0.8872 -0.4071
 9388TIP3    H249656   1.428   2.030  16.470  0.2851 -0.6510 -0.2667
 9389TIP3   OH249657   1.576   6.340  13.565 -0.1703 -0.0530 -0.5358
 9389TIP3    H149658   1.491   6.329  13.522 -0.5922  1.3064 -0.1168
 9389TIP3    H249659   1.623   6.401  13.509 -1.3205  3.0240  1.5866
 9390TIP3   OH249660   1.144   3.808  15.880  0.1033 -0.3571  0.0705
 9390TIP3    H149661   1.144   3.897  15.843  0.8581  0.4919  1.9587
 9390TIP3    H249662   1.163   3.751  15.806 -1.2018  0.9673 -1.3483
 9391TIP3   OH249663   6.666   3.321  14.685  0.0023 -0.5191  0.0616
 9391TIP3    H149664   6.761   3.321  14.694 -0.0004  0.1201  0.1202
 9391TIP3    H249665   6.638   3.244  14.734  0.3965  0.0006  1.1295
 9392TIP3   OH249666   4.824   4.660   5.138 -0.5982 -0.5943 -0.4373
 9392TIP3    H149667   4.748   4.711   5.166 -0.5803 -0.3635 -0.8054
 9392TIP3    H249668   4.891   4.725   5.120  0.5223 -0.8818  2.2288
 9393TIP3   OH249669   4.015   1.639  14.273  0.7515 -0.6309 -0.9409
 9393TIP3    H149670   4.014   1.625  14.368  1.0029  0.3590 -0.7857
 9393TIP3    H249671   3.938   1.693  14.256 -0.6428 -2.7318 -1.6352
 9394TIP3   OH249672   6.798   2.154   0.847 -0.5922  0.2765 -0.2196
 9394TIP3    H149673   6.758   2.165   0.934 -1.0893  1.0442 -0.5302
 9394TIP3    H249674   6.776   2.065   0.821 -0.2632 -0.0334  0.5273
 9395TIP3   OH249675   6.506   0.626  16.194 -0.0974  0.1532 -0.2824
 9395TIP3    H149676   6.552   0.543  16.208 -0.6133 -0.0999 -0.0487
 9395TIP3    H249677   6.420   0.600  16.160 -0.4877  0.5538  0.3650
 9396TIP3   OH249678   4.518   6.639  14.821 -0.1604  0.7371  0.6137
 9396TIP3    H149679   4.560   6.594  14.895 -1.6623 -0.5972  0.6960
 9396TIP3    H249680   4.465   6.707  14.863  1.7177  2.3536  0.5147
 9397TIP3   OH249681   3.793   2.491   1.471 -0.5096 -0.2098  0.1318
 9397TIP3    H149682   3.813   2.418   1.529  0.6448 -0.3835 -0.4352
 9397TIP3    H249683   3.876   2.539   1.464 -0.4761 -0.4351 -1.6668
 9398TIP3   OH249684   1.631   6.283  13.915 -0.1500  0.0431  0.3956
 9398TIP3    H149685   1.580   6.221  13.864 -0.5183  1.2993 -0.8275
 9398TIP3    H249686   1.700   6.311  13.855  0.3608  0.3724  1.1309
 9399TIP3   OH249687   1.550   3.581   3.741  0.3429  0.6036 -0.0750
 9399TIP3    H149688   1.527   3.672   3.759 -1.8968  0.5102 -1.9288
 9399TIP3    H249689   1.468   3.541   3.710  0.7820 -2.5567  2.3127
 9400TIP3   OH249690   0.783   4.042  15.920 -0.5955 -0.2405 -0.2367
 9400TIP3    H149691   0.689   4.044  15.903 -0.9939 -2.9701  1.0436
 9400TIP3    H249692   0.823   4.037  15.833 -1.5484  1.7310 -0.8274
 9401TIP3   OH249693   3.280   6.572   2.548 -0.1719  0.1162  0.1205
 9401TIP3    H149694   3.349   6.592   2.611 -0.3706 -0.3621  0.5039
 9401TIP3    H249695   3.317   6.596   2.463  1.4260 -2.3244  0.0084
 9402TIP3   OH249696   5.899   5.921  11.823  0.3653  0.1538  0.3526
 9402TIP3    H149697   5.829   5.859  11.845  0.5549 -0.4621 -0.7057
 9402TIP3    H249698   5.860   5.978  11.756  1.0041 -0.4909 -0.5945
 9403TIP3   OH249699   4.619   2.935   4.190 -0.1344  0.6010 -0.5930
 9403TIP3    H149700   4.523   2.936   4.182 -0.1237  2.4031 -0.7971
 9403TIP3    H249701   4.635   2.882   4.269 -1.2439 -0.2598 -0.9055
 9404TIP3   OH249702   6.072   5.957  14.797  0.3859  0.0904  0.2782
 9404TIP3    H149703   5.980   5.952  14.773  0.5518 -0.1911 -0.3046
 9404TIP3    H249704   6.117   5.903  14.732  0.9362  0.0383  0.6953
 9405TIP3   OH249705   3.972   4.786  11.531 -0.3334  0.2241  0.0760
 9405TIP3    H149706   3.932   4.699  11.528 -1.7561  0.8729 -0.4112
 9405TIP3    H249707   3.915   4.837  11.588 -2.2693  2.1199 -3.2195
 9406TIP3   OH249708   1.608   2.722  14.435  0.4220 -0.0792 -0.1408
 9406TIP3    H149709   1.544   2.791  14.448  0.5700 -0.0097  0.2363
 9406TIP3    H249710   1.637   2.732  14.345  2.2293  1.9057  0.5900
 9407TIP3   OH249711   4.283   5.486  16.021  0.3273 -0.3222  0.5633
 9407TIP3    H149712   4.360   5.486  16.078 -0.2534 -0.9775  1.3675
 9407TIP3    H249713   4.210   5.465  16.079 -0.3190 -0.7383 -0.3784
 9408TIP3   OH249714   0.499   6.079  14.583  0.0598 -0.6111  0.4065
 9408TIP3    H149715   0.476   6.030  14.504 -0.5017  0.8020 -0.3349
 9408TIP3    H249716   0.548   6.154  14.551 -0.7356  0.3307  1.3283
 9409TIP3   OH249717   3.781   4.136  16.572  0.0144  0.1407 -0.2619
 9409TIP3    H149718   3.687   4.138  16.551  0.1052  1.1944 -0.6212
 9409TIP3    H249719   3.785   4.155  16.666 -0.1437 -0.1104 -0.2044
 9410TIP3   OH249720   5.331   3.533   3.618  0.6256 -0.9323  0.0710
 9410TIP3    H149721   5.380   3.577   3.548  1.8408 -2.7138 -0.2897
 9410TIP3    H249722   5.397   3.480   3.663 -0.5497 -1.5183  1.1616
 9411TIP3   OH249723   2.382   2.895   2.575  0.2531  0.0593  0.0058
 9411TIP3    H149724   2.328   2.910   2.498 -1.2517 -0.0862  0.9909
 9411TIP3    H249725   2.321   2.902   2.649  1.0001 -2.8002  1.0093
 9412TIP3   OH249726   5.968   5.405  13.097  0.4382  0.1224  0.3355
 9412TIP3    H149727   5.892   5.456  13.069 -0.7519 -1.9468 -0.4402
 9412TIP3    H249728   5.943   5.370  13.183  0.9469  0.2881  0.5531
 9413TIP3   OH249729   4.273   2.744   1.321  0.3910  0.5714  0.0559
 9413TIP3    H149730   4.363   2.765   1.296 -0.1861  0.9802 -1.9105
 9413TIP3    H249731   4.236   2.705   1.241 -1.5376  1.5954  0.4163
 9414TIP3   OH249732   0.383   5.700  15.053 -0.0469  0.3020  0.0393
 9414TIP3    H149733   0.298   5.729  15.087  0.0003  0.4853  0.0069
 9414TIP3    H249734   0.369   5.610  15.026 -1.1228  1.2226 -2.9168
 9415TIP3   OH249735   3.170   1.128   2.452  0.1973 -0.2575  0.4191
 9415TIP3    H149736   3.108   1.114   2.380 -0.3229  1.0740  0.5834
 9415TIP3    H249737   3.121   1.178   2.517  1.0571 -0.3075  1.1299
 9416TIP3   OH249738   3.983   6.725   3.519 -0.8005  0.1678  0.0081
 9416TIP3    H149739   4.075   6.721   3.544 -0.5872 -3.0584 -0.8356
 9416TIP3    H249740   3.945   6.644   3.554 -3.4266  1.5474  0.5771
 9417TIP3   OH249741   1.344   4.701   1.822 -0.1989 -0.4319  0.1873
 9417TIP3    H149742   1.315   4.651   1.898 -1.3025  0.1519  0.1786
 9417TIP3    H249743   1.294   4.664   1.749 -0.5823  0.2777  0.0817
 9418TIP3   OH249744   4.642   1.844  16.717 -0.1917 -0.0200 -0.3687
 9418TIP3    H149745   4.619   1.881  16.802 -0.0531 -0.9024  0.0709
 9418TIP3    H249746   4.734   1.867  16.704 -0.3585  0.5640 -0.5269
 9419TIP3   OH249747   2.533   4.986  16.855 -0.1196  0.3823 -0.0816
 9419TIP3    H149748   2.533   5.081  16.864 -1.0787  0.4466 -0.6517
 9419TIP3    H249749   2.441   4.963  16.842  0.3421 -0.3062 -2.9912
 9420TIP3   OH249750   0.079   5.031   2.446 -0.2086 -0.0056 -0.5704
 9420TIP3    H149751   0.078   4.971   2.521  2.5537 -0.9035 -1.1089
 9420TIP3    H249752  -0.003   5.014   2.400 -0.2615 -2.1943  0.2119
 9421TIP3   OH249753   5.854   4.298   5.382  0.1904  0.1026  0.3062
 9421TIP3    H149754   5.862   4.333   5.293  1.4460  0.1108  0.4046
 9421TIP3    H249755   5.885   4.208   5.376 -1.5990 -0.5526  0.3617
 9422TIP3   OH249756   3.487   5.184   5.776 -0.0069  0.1382  0.2682
 9422TIP3    H149757   3.542   5.167   5.853 -0.2128  3.2186  1.2529
 9422TIP3    H249758   3.490   5.103   5.725  1.9568 -1.2507  2.4086
 9423TIP3   OH249759   6.858   3.502   5.588 -0.2667 -0.0831  0.7756
 9423TIP3    H149760   6.863   3.461   5.674 -2.2643  0.7372  1.3419
 9423TIP3    H249761   6.862   3.596   5.605 -2.2166  0.1501  0.1700
 9424TIP3   OH249762   6.608   1.923   4.953 -0.2418  0.2074  0.0141
 9424TIP3    H149763   6.597   2.015   4.928 -1.5430  1.1116  3.2682
 9424TIP3    H249764   6.670   1.926   5.026  0.8234 -1.7245 -0.7418
 9425TIP3   OH249765   2.232   0.266  12.430  0.3370  0.5716 -0.5002
 9425TIP3    H149766   2.195   0.328  12.492  0.0983  0.4527 -0.5238
 9425TIP3    H249767   2.229   0.181  12.475 -1.6559  0.1116 -1.3710
 9426TIP3   OH249768   2.555   6.222   3.442 -0.0558 -0.3165 -0.7743
 9426TIP3    H149769   2.634   6.223   3.497  0.1356 -0.7524 -1.0382
 9426TIP3    H249770   2.497   6.286   3.483  0.4664  0.0684 -0.6235
 9427TIP3   OH249771   0.659   0.613  16.730 -0.0424  0.0403  0.1536
 9427TIP3    H149772   0.641   0.530  16.685 -0.5779 -0.4493  1.2500
 9427TIP3    H249773   0.668   0.589  16.822  2.5075  0.7952  0.1932
 9428TIP3   OH249774   0.330   2.262   3.686  0.0959  0.5022  0.1540
 9428TIP3    H149775   0.349   2.170   3.705  0.8213  0.7059  0.4970
 9428TIP3    H249776   0.309   2.300   3.771  0.3437  0.7684  0.0989
 9429TIP3   OH249777   2.533   6.366   4.650  0.5857 -0.2462 -0.1920
 9429TIP3    H149778   2.551   6.363   4.744 -0.6788  0.1123  0.0763
 9429TIP3    H249779   2.538   6.459   4.627 -1.5529 -0.0239  0.0539
 9430TIP3   OH249780   4.528   1.123  13.299  0.3070 -0.0269 -0.2407
 9430TIP3    H149781   4.587   1.067  13.349 -0.0927 -0.5438 -0.3429
 9430TIP3    H249782   4.570   1.131  13.213  0.0054 -0.7692 -0.4613
 9431TIP3   OH249783   1.322   4.091   4.303 -0.5011  0.6500  0.2061
 9431TIP3    H149784   1.291   4.001   4.311  2.7532 -0.8387 -1.8275
 9431TIP3    H249785   1.267   4.129   4.235  0.0894 -0.9665 -1.2769
 9432TIP3   OH249786   3.765   2.362  12.315  0.6248 -0.1531  0.2234
 9432TIP3    H149787   3.806   2.383  12.231 -1.7995 -0.5960 -1.1772
 9432TIP3    H249788   3.761   2.445  12.362 -0.3415  0.6961 -1.2581
 9433TIP3   OH249789   4.762   2.256  14.323 -0.0121 -0.3993  1.3303
 9433TIP3    H149790   4.756   2.187  14.389  1.3778 -1.7259  0.1608
 9433TIP3    H249791   4.840   2.234  14.273 -2.5533 -1.2916 -2.7155
 9434TIP3   OH249792   1.900   0.149  11.675 -0.1053  0.4343  0.3371
 9434TIP3    H149793   1.864   0.149  11.586 -2.7431  0.8999  1.3236
 9434TIP3    H249794   1.830   0.186  11.730  1.9591  1.4791  2.4376
 9435TIP3   OH249795   2.296   6.177  16.561 -0.5401  0.1657 -0.3187
 9435TIP3    H149796   2.239   6.155  16.635 -1.3055 -1.4053 -1.3305
 9435TIP3    H249797   2.299   6.097  16.508  0.1737  1.1791 -1.8780
 9436TIP3   OH249798   0.831   2.411   3.444 -0.4914 -0.3996  0.0098
 9436TIP3    H149799   0.881   2.399   3.524  0.4875 -0.8739 -0.6563
 9436TIP3    H249800   0.880   2.476   3.394 -1.4673  0.4173  0.0801
 9437TIP3   OH249801   1.441   1.191   4.368  0.6206  0.4339  0.0902
 9437TIP3    H149802   1.383   1.137   4.315 -0.7555  1.4379  0.5303
 9437TIP3    H249803   1.429   1.159   4.457  1.5238 -0.0188  0.0587
 9438TIP3   OH249804   3.471   1.716   4.536 -0.4948 -0.0208 -0.0180
 9438TIP3    H149805   3.487   1.638   4.590  1.3313  0.3134 -0.0325
 9438TIP3    H249806   3.378   1.711   4.515 -0.2414 -2.7724 -0.8651
 9439TIP3   OH249807   1.101   3.033   4.378 -0.2651  0.1937  0.3047
 9439TIP3    H149808   1.047   3.065   4.451 -0.9262 -0.7324  0.2391
 9439TIP3    H249809   1.080   2.940   4.372 -0.7691  0.3864 -1.5135
 9440TIP3   OH249810   2.305   2.738   6.506 -0.4784  0.0668  0.4263
 9440TIP3    H149811   2.219   2.779   6.509 -0.6140 -0.3012  2.1151
 9440TIP3    H249812   2.366   2.810   6.522 -0.2047  0.8327 -3.1275
 9441TIP3   OH249813   4.806   5.863   5.513 -0.1415 -0.3172 -0.0928
 9441TIP3    H149814   4.776   5.922   5.583 -0.3642  0.6001 -0.9325
 9441TIP3    H249815   4.735   5.864   5.449  1.1724  1.0517 -1.6209
 9442TIP3   OH249816   5.655   0.942   5.224  0.8361 -0.0030  0.0037
 9442TIP3    H149817   5.705   1.009   5.270  0.7270  0.8289 -1.0393
 9442TIP3    H249818   5.707   0.923   5.146  0.5099 -0.6126 -0.0723
 9443TIP3   OH249819   5.152   5.528   2.327  0.1787  0.0132  0.0550
 9443TIP3    H149820   5.191   5.449   2.363  0.4921  0.2078  0.1466
 9443TIP3    H249821   5.226   5.581   2.298  0.0642  0.8123  1.1183
 9444TIP3   OH249822   5.297   6.187  15.330  0.0472 -0.4359 -0.3552
 9444TIP3    H149823   5.307   6.092  15.343  0.0571 -0.4488 -0.4562
 9444TIP3    H249824   5.283   6.197  15.236  1.1261 -0.2526 -0.5134
 9445TIP3   OH249825   5.447   0.055  16.106  0.2695  0.2298 -0.6231
 9445TIP3    H149826   5.493  -0.028  16.093  1.4218  1.0822 -2.4248
 9445TIP3    H249827   5.507   0.108  16.158  1.0551  1.0840 -2.3442
 9446TIP3   OH249828   6.070   1.303  15.760 -0.3064  0.1687  0.0898
 9446TIP3    H149829   5.991   1.324  15.710 -0.6284  0.5189  0.7285
 9446TIP3    H249830   6.079   1.208  15.754 -2.2067 -0.2199  2.0452
 9447TIP3   OH249831   6.486   5.739   1.332 -0.1931 -0.1566 -0.1992
 9447TIP3    H149832   6.496   5.677   1.259  1.7275  1.3661 -1.3302
 9447TIP3    H249833   6.426   5.805   1.298 -0.5611 -0.2663  0.2256
 9448TIP3   OH249834   4.877   3.710   3.348 -0.2127  0.0786  0.3399
 9448TIP3    H149835   4.865   3.802   3.324 -1.1155  0.6947  2.8107
 9448TIP3    H249836   4.967   3.690   3.324 -0.8141  0.6437 -2.9168
 9449TIP3   OH249837   1.721   6.839  10.205  1.0850 -0.1698  0.5378
 9449TIP3    H149838   1.750   6.821  10.294 -0.6061  0.0426  1.1735
 9449TIP3    H249839   1.640   6.788  10.195  0.8114  0.4474 -0.5775
 9450TIP3   OH249840   1.096   4.983  14.726 -0.0887  0.4425  0.2171
 9450TIP3    H149841   1.016   4.931  14.732  0.1573  0.1711  1.4442
 9450TIP3    H249842   1.164   4.919  14.704 -0.0699  0.5394 -0.0113
 9451TIP3   OH249843   6.469   0.691  11.074  0.2976 -0.1774  0.5349
 9451TIP3    H149844   6.388   0.641  11.088 -0.5534  1.5024  2.1258
 9451TIP3    H249845   6.454   0.739  10.993 -0.5680  0.5221  1.0867
 9452TIP3   OH249846   1.227   4.309  11.769 -0.0195 -0.1560  0.0936
 9452TIP3    H149847   1.249   4.401  11.782 -2.0801  0.2504  1.2072
 9452TIP3    H249848   1.211   4.302  11.674 -1.4712  1.0958  0.1973
 9453TIP3   OH249849   5.518   1.487  16.204 -0.1667  1.2530 -0.1734
 9453TIP3    H149850   5.555   1.442  16.128 -1.7992  0.1700 -0.3751
 9453TIP3    H249851   5.555   1.440  16.280 -2.7605 -1.3971 -0.3739
 9454TIP3   OH249852   0.308   2.202  13.241  0.4259 -0.1966 -0.6094
 9454TIP3    H149853   0.287   2.196  13.147  1.4089 -1.0852 -0.8059
 9454TIP3    H249854   0.291   2.293  13.264 -1.6249 -0.3824 -1.1897
 9455TIP3   OH249855   4.847   3.152   1.379  0.4361 -0.2057  0.1281
 9455TIP3    H149856   4.896   3.077   1.346 -0.8935 -1.7443  1.4987
 9455TIP3    H249857   4.863   3.152   1.474 -0.9216  0.2132  0.3794
 9456TIP3   OH249858   4.565   1.872  12.814  0.6313 -0.0726 -0.5161
 9456TIP3    H149859   4.546   1.943  12.875 -1.3628 -1.6026  0.7699
 9456TIP3    H249860   4.555   1.793  12.866  1.3401 -1.3601 -2.2514
 9457TIP3   OH249861   3.292   6.759   3.417 -0.1770 -0.3735  0.1875
 9457TIP3    H149862   3.219   6.697   3.427 -1.0542  0.6288  0.2238
 9457TIP3    H249863   3.275   6.826   3.483 -0.2108  0.7952 -0.9609
 9458TIP3   OH249864   2.880   6.116   1.308  0.2893  0.0362 -0.6188
 9458TIP3    H149865   2.879   6.125   1.213 -1.1080 -0.6810 -0.7003
 9458TIP3    H249866   2.810   6.054   1.327  2.0566 -1.6786  0.7065
 9459TIP3   OH249867   0.779   0.107   0.247 -0.1559 -0.2373 -0.1277
 9459TIP3    H149868   0.773   0.027   0.298  0.1183 -0.6162 -0.6809
 9459TIP3    H249869   0.856   0.094   0.192 -0.4338  0.1753 -0.6197
 9460TIP3   OH249870   5.839   0.078  13.852 -0.6273  0.6475 -0.3760
 9460TIP3    H149871   5.766   0.082  13.915 -0.2197  1.5779  0.0627
 9460TIP3    H249872   5.918   0.077  13.907 -0.2875  0.3878 -0.8632
 9461TIP3   OH249873   0.306   6.480  17.021 -0.4374  0.3028  0.1917
 9461TIP3    H149874   0.347   6.396  17.039  1.5945  1.5428  1.9144
 9461TIP3    H249875   0.243   6.493  17.091 -0.9230  0.1043 -0.2092
 9462TIP3   OH249876   2.492   5.706   5.606  0.2781  0.0519 -0.4215
 9462TIP3    H149877   2.541   5.703   5.688  1.3574 -1.7342 -1.0907
 9462TIP3    H249878   2.401   5.696   5.632  0.5550  0.1049  0.5860
 9463TIP3   OH249879   5.090   4.642  14.464 -0.2137  0.3567  0.3680
 9463TIP3    H149880   5.174   4.687  14.473 -0.5646  1.5149 -1.5591
 9463TIP3    H249881   5.039   4.671  14.540 -0.5162  3.6266 -0.8783
 9464TIP3   OH249882   6.527   6.575  12.211 -0.3136  0.2769 -0.6151
 9464TIP3    H149883   6.618   6.603  12.211  0.1213 -0.9372  1.0143
 9464TIP3    H249884   6.515   6.532  12.126  0.3428  1.2625 -1.2183
 9465TIP3   OH249885   3.899   1.921   1.368  0.7039  0.2226 -0.0185
 9465TIP3    H149886   3.848   1.895   1.291  2.6157 -1.0749 -0.9361
 9465TIP3    H249887   3.945   2.000   1.341  1.7497 -0.5034 -0.4180
 9466TIP3   OH249888   5.301   0.057  16.523  0.1718 -0.0671 -0.1587
 9466TIP3    H149889   5.325   0.140  16.564  3.3157  0.1758 -2.1171
 9466TIP3    H249890   5.278   0.081  16.433  0.0692 -1.1944 -0.4442
 9467TIP3   OH249891   3.247   5.115  11.520 -0.3869  0.3783 -0.1561
 9467TIP3    H149892   3.322   5.057  11.530 -0.6147 -0.1334 -1.2827
 9467TIP3    H249893   3.185   5.086  11.587  1.0349  1.8979  1.9552
 9468TIP3   OH249894   4.410   6.513   5.277 -0.0418  0.5362 -0.2347
 9468TIP3    H149895   4.460   6.446   5.231 -0.0886  0.9156 -0.8478
 9468TIP3    H249896   4.465   6.591   5.273  0.0709  0.5084  0.5888
 9469TIP3   OH249897   0.243   5.752   1.815 -0.3219  0.5067  0.0563
 9469TIP3    H149898   0.304   5.685   1.784  0.2498  1.2603 -0.4885
 9469TIP3    H249899   0.157   5.717   1.796 -0.0466 -0.3155  0.2888
 9470TIP3   OH249900   3.296   3.844   2.357  0.2270  0.2295  0.0221
 9470TIP3    H149901   3.279   3.938   2.357 -1.5264  0.0406  3.0749
 9470TIP3    H249902   3.242   3.810   2.285 -1.5320  1.2782  0.7799
 9471TIP3   OH249903   0.015   2.399  15.367  0.2388 -0.5808  0.0870
 9471TIP3    H149904   0.025   2.403  15.272  2.7569 -0.6206  0.2857
 9471TIP3    H249905   0.039   2.309  15.390  1.3336 -0.1095  0.8843
 9472TIP3   OH249906   2.808   4.946   1.247  0.4057 -0.2140 -0.4596
 9472TIP3    H149907   2.713   4.933   1.253  0.3585  0.4870  0.8124
 9472TIP3    H249908   2.819   5.040   1.259  1.1831 -0.0726 -2.1194
 9473TIP3   OH249909   2.770   0.271   4.453  0.9672 -0.1758  0.1096
 9473TIP3    H149910   2.841   0.278   4.517  0.5860  0.4430  0.4739
 9473TIP3    H249911   2.690   0.278   4.504  0.5443 -2.9672 -0.0110
 9474TIP3   OH249912   5.079   5.693  13.225 -0.2637  0.1712  0.5375
 9474TIP3    H149913   5.027   5.774  13.234  1.0577  1.7099 -3.3871
 9474TIP3    H249914   5.014   5.625  13.209 -1.2974  1.1511  0.3845
 9475TIP3   OH249915   3.934   4.494  16.738  0.7032  0.2556  0.1135
 9475TIP3    H149916   3.973   4.424  16.789  0.7333  0.8705  0.9595
 9475TIP3    H249917   3.979   4.573  16.767 -0.4538  0.8442  0.3731
 9476TIP3   OH249918   2.972   3.967  16.757 -0.2689  0.0399 -0.1522
 9476TIP3    H149919   3.062   3.962  16.790 -1.0289 -1.6551  1.9593
 9476TIP3    H249920   2.964   3.894  16.695  0.4497  1.7032 -2.2946
 9477TIP3   OH249921   5.216   5.005  14.414 -0.2894 -0.0759 -0.3514
 9477TIP3    H149922   5.229   5.079  14.355  0.1479  0.4957  0.4479
 9477TIP3    H249923   5.252   4.930  14.367  0.1584  0.3956 -0.7625
 9478TIP3   OH249924   1.326   5.091  12.740  0.8011  0.2139  0.3505
 9478TIP3    H149925   1.306   5.185  12.739 -1.7400 -0.2528 -0.6802
 9478TIP3    H249926   1.404   5.084  12.795  0.4604  2.8127  1.3207
 9479TIP3   OH249927   4.526   0.439  16.385 -0.4642 -0.2452  0.0744
 9479TIP3    H149928   4.563   0.524  16.358 -1.1583 -0.1890 -0.7445
 9479TIP3    H249929   4.533   0.439  16.480  0.6636  0.2147  0.0103
 9480TIP3   OH249930   5.140   4.054  14.661 -0.5698 -0.1994  0.1006
 9480TIP3    H149931   5.163   3.962  14.646  1.1254  0.3272 -0.8345
 9480TIP3    H249932   5.225   4.099  14.667 -1.3699  1.3459  0.2548
 9481TIP3   OH249933   6.299   1.179  12.696 -0.2973 -0.4437 -0.5060
 9481TIP3    H149934   6.313   1.125  12.618  0.3467 -1.3196  0.2009
 9481TIP3    H249935   6.373   1.159  12.753 -2.2942 -2.2100  1.6671
 9482TIP3   OH249936   1.647   2.140   4.846 -0.4930 -1.0105  0.6748
 9482TIP3    H149937   1.561   2.175   4.869 -0.6462 -0.3882 -0.7340
 9482TIP3    H249938   1.666   2.178   4.760  1.4272 -0.7286  1.1811
 9483TIP3   OH249939   3.564   1.720  11.132  0.1610  0.5911 -0.7237
 9483TIP3    H149940   3.635   1.736  11.069  0.5792  0.4375 -0.2974
 9483TIP3    H249941   3.485   1.751  11.087  0.6734  1.9899 -0.7159
 9484TIP3   OH249942   6.321   4.993  15.560 -0.4983 -0.9749  0.0731
 9484TIP3    H149943   6.230   5.007  15.535 -0.7158 -0.2304  1.1999
 9484TIP3    H249944   6.317   4.930  15.632  0.0079 -2.0815 -0.8430
 9485TIP3   OH249945   5.464   4.710  16.552  0.2824  0.2726 -0.2359
 9485TIP3    H149946   5.500   4.790  16.591  2.1885 -0.8579  0.4728
 9485TIP3    H249947   5.397   4.741  16.491  1.3615  2.4259 -0.4176
 9486TIP3   OH249948   4.758   5.435   3.503 -0.5251 -0.1729  0.4764
 9486TIP3    H149949   4.789   5.525   3.510 -1.5909  0.2023  0.4816
 9486TIP3    H249950   4.663   5.442   3.504 -0.6398 -1.1996 -0.7387
 9487TIP3   OH249951   3.609   4.344   3.180  0.1241 -0.3915  0.2338
 9487TIP3    H149952   3.579   4.268   3.129 -0.5546  0.2951 -0.4156
 9487TIP3    H249953   3.671   4.388   3.122 -1.7813  1.2368 -0.6560
 9488TIP3   OH249954   1.706   4.380  16.046  0.5960  0.3456 -0.0049
 9488TIP3    H149955   1.615   4.358  16.067  0.6390 -0.7484 -0.9048
 9488TIP3    H249956   1.715   4.471  16.076 -1.3975  1.1965 -1.6884
 9489TIP3   OH249957   3.633   0.060  16.982 -0.1259  0.4683  0.0531
 9489TIP3    H149958   3.673   0.029  17.064  0.8053 -0.1737 -0.6147
 9489TIP3    H249959   3.551   0.012  16.975  0.0146  0.1766  0.3848
 9490TIP3   OH249960   6.799   2.225   1.384 -0.3461  0.3347  0.0708
 9490TIP3    H149961   6.855   2.291   1.343 -1.0693  0.0905 -1.3891
 9490TIP3    H249962   6.767   2.267   1.464  1.3759  0.7097  0.5850
 9491TIP3   OH249963   6.080   6.341   1.662  0.1403 -0.3827 -0.3761
 9491TIP3    H149964   6.019   6.365   1.591 -0.1899  1.5597  0.4884
 9491TIP3    H249965   6.137   6.275   1.624 -1.8488 -1.5084 -1.5560
 9492TIP3   OH249966   5.893   6.536   4.983  0.2881 -0.0005 -0.8987
 9492TIP3    H149967   5.814   6.522   4.931  0.9578 -0.6722 -1.7582
 9492TIP3    H249968   5.908   6.453   5.028 -1.3584  1.1087  1.9760
 9493TIP3   OH249969   5.587   5.322   2.058 -0.4915 -0.1193 -0.0302
 9493TIP3    H149970   5.589   5.276   1.975 -0.1096  0.1804 -0.1895
 9493TIP3    H249971   5.588   5.415   2.035 -0.0070 -0.0338  0.3113
 9494TIP3   OH249972   2.827   0.650   0.471  0.3030 -0.1058  0.9911
 9494TIP3    H149973   2.832   0.685   0.561  0.2760  0.7186  0.6802
 9494TIP3    H249974   2.876   0.569   0.475  3.2413  1.5332  0.9981
 9495TIP3   OH249975   3.648   2.392   0.376 -0.5124 -0.2731 -0.5782
 9495TIP3    H149976   3.724   2.351   0.333 -0.7027 -2.0891  0.6766
 9495TIP3    H249977   3.676   2.404   0.467 -0.1742  3.3200 -1.0365
 9496TIP3   OH249978   2.024   4.787  16.126 -0.2835  0.2373 -0.1627
 9496TIP3    H149979   1.985   4.782  16.213  2.5107  0.4273  1.2177
 9496TIP3    H249980   2.100   4.729  16.130 -0.9205 -0.9865 -3.0344
 9497TIP3   OH249981   5.146   2.189   4.380 -0.2275 -0.4223 -0.3320
 9497TIP3    H149982   5.148   2.114   4.439  0.2876  0.2537  0.5476
 9497TIP3    H249983   5.156   2.151   4.293  1.4207 -1.3064  0.1778
 9498TIP3   OH249984   2.933   2.446   3.507 -0.1003 -0.0814 -0.3582
 9498TIP3    H149985   2.975   2.398   3.435  1.1056 -0.8742  0.8173
 9498TIP3    H249986   2.935   2.385   3.581 -0.1120  1.1710  0.7103
 9499TIP3   OH249987   3.470   1.702  16.694  0.2760 -0.0856 -0.0643
 9499TIP3    H149988   3.460   1.627  16.635  1.6083  0.4394 -1.0303
 9499TIP3    H249989   3.562   1.699  16.721  0.0013  0.4263  0.9852
 9500TIP3   OH249990   5.381   4.953   0.118 -0.4860 -0.5003  0.2527
 9500TIP3    H149991   5.335   4.885   0.167 -0.4302  0.6402  1.9437
 9500TIP3    H249992   5.368   4.929   0.026 -1.9632 -1.8124  0.7685
 9501TIP3   OH249993   2.388   0.201   0.431  0.1389  0.1887  0.1049
 9501TIP3    H149994   2.446   0.130   0.402  1.1463  1.2296 -0.5074
 9501TIP3    H249995   2.406   0.209   0.525 -2.4714 -2.5848  1.0016
 9502TIP3   OH249996   6.116   2.918  11.960 -0.3998 -0.1195  0.2123
 9502TIP3    H149997   6.058   2.913  12.037 -0.5870  0.0844  0.0869
 9502TIP3    H249998   6.058   2.903  11.886 -0.1131 -0.9125  0.1421
 9503TIP3   OH249999   5.777   6.649   2.894 -0.4983  0.3253 -0.0788
 9503TIP3    H150000   5.848   6.588   2.914  1.0307  2.7116  2.6693
 9503TIP3    H250001   5.711   6.596   2.850  1.4645 -2.8308  0.4524
 9504TIP3   OH250002   4.480   2.595  13.670 -0.5899  0.5890 -0.5913
 9504TIP3    H150003   4.557   2.651  13.664  0.9845 -1.5498 -1.5290
 9504TIP3    H250004   4.502   2.531  13.737 -1.6069  0.0277 -0.7727
 9505TIP3   OH250005   2.660   4.354   3.362 -0.4488  0.3752 -0.0930
 9505TIP3    H150006   2.620   4.433   3.325 -0.7201 -0.5704 -1.9859
 9505TIP3    H250007   2.739   4.385   3.406 -0.4622  1.6939 -0.9418
 9506TIP3   OH250008   4.985   2.152   2.254  0.2880  0.1212  0.4285
 9506TIP3    H150009   5.034   2.173   2.174  1.8776 -1.0835  1.0250
 9506TIP3    H250010   5.053   2.126   2.317 -1.0266 -0.1053  1.7962
 9507TIP3   OH250011   0.535   5.152   5.006 -0.6948  0.4500 -0.0688
 9507TIP3    H150012   0.513   5.244   4.992  1.4546  0.6888 -2.6425
 9507TIP3    H250013   0.611   5.136   4.950  0.0167 -2.5096  1.5053
 9508TIP3   OH250014   5.968   6.131  15.641 -0.4615 -0.2664 -0.6059
 9508TIP3    H150015   5.931   6.099  15.559 -1.1571 -1.7726  0.2533
 9508TIP3    H250016   5.916   6.088  15.709  0.3511  0.6478  0.6290
 9509TIP3   OH250017   0.113   1.879  11.883  0.0895 -0.4736 -0.1555
 9509TIP3    H150018   0.109   1.790  11.920  3.5784 -0.4660  0.6271
 9509TIP3    H250019   0.169   1.927  11.944 -1.1512  2.1509 -0.9300
 9510TIP3   OH250020   1.505   4.953   6.399 -0.2759 -0.1762  0.3965
 9510TIP3    H150021   1.530   4.900   6.475 -1.4325 -1.8222 -0.3136
 9510TIP3    H250022   1.509   4.892   6.325  0.0815  1.1941 -0.7686
 9511TIP3   OH250023   6.095   3.095  15.069  0.1104 -0.2438 -0.7089
 9511TIP3    H150024   6.105   3.032  14.998  0.3944 -0.9668 -0.0437
 9511TIP3    H250025   6.184   3.121  15.090  0.0204  0.0371 -0.6682
 9512TIP3   OH250026   4.033   0.368   3.628  0.6280 -0.1955 -0.3427
 9512TIP3    H150027   3.944   0.389   3.599  1.1098  1.5690 -0.6623
 9512TIP3    H250028   4.058   0.444   3.682  1.0565 -1.7660  1.7974
 9513TIP3   OH250029   2.671   0.893   1.793 -0.4928 -0.3266 -0.6723
 9513TIP3    H150030   2.693   0.936   1.876 -1.3549 -0.3486 -0.4151
 9513TIP3    H250031   2.755   0.882   1.748  0.0849 -1.0476  0.5428
 9514TIP3   OH250032   0.088   6.234   0.112  0.0562  0.2950  0.5253
 9514TIP3    H150033   0.007   6.283   0.095  1.5413  2.0207 -2.0333
 9514TIP3    H250034   0.094   6.172   0.040  0.6234 -0.4342  1.1800
 9515TIP3   OH250035   0.354   4.864  14.565 -0.4371  1.1655  0.2497
 9515TIP3    H150036   0.427   4.824  14.518 -0.9614 -2.0416  1.9128
 9515TIP3    H250037   0.397   4.918  14.633  0.4074  0.0588  0.6261
 9516TIP3   OH250038   5.232   1.064   4.582  0.2166 -1.0324  0.6222
 9516TIP3    H150039   5.279   1.126   4.526  1.1406 -1.6624  0.6920
 9516TIP3    H250040   5.198   1.118   4.653 -1.1672 -0.1735 -0.6178
 9517TIP3   OH250041   0.176   3.292   4.364  0.1496 -0.0059 -0.2075
 9517TIP3    H150042   0.209   3.257   4.446  2.4974 -0.7640 -1.3962
 9517TIP3    H250043   0.087   3.258   4.357 -0.3304  0.5834  2.2552
 9518TIP3   OH250044   2.141   0.613   4.915  0.6493 -0.0188 -0.0031
 9518TIP3    H150045   2.098   0.699   4.922  0.9464  0.0646  0.9694
 9518TIP3    H250046   2.088   0.556   4.971 -1.4723 -1.3124 -3.0672
 9519TIP3   OH250047   4.851   0.871   6.463 -0.3548  0.5740 -0.3833
 9519TIP3    H150048   4.879   0.795   6.411 -0.0031 -0.2299  0.9354
 9519TIP3    H250049   4.918   0.880   6.531  0.3447  2.9259 -1.2768
 9520TIP3   OH250050   5.984   0.348  13.900 -0.0708  0.2310 -0.2797
 9520TIP3    H150051   6.027   0.342  13.985 -1.7703  2.3012  0.8428
 9520TIP3    H250052   5.997   0.440  13.874  0.8995 -0.4891 -2.5737
 9521TIP3   OH250053   0.074   5.087  12.755 -0.1814  0.3274  0.4703
 9521TIP3    H150054   0.143   5.072  12.820 -2.2802  1.5805  3.1762
 9521TIP3    H250055   0.109   5.155  12.698  1.3453 -0.0627  0.8986
 9522TIP3   OH250056   5.717   6.704  11.706 -0.0705  0.3368 -0.0835
 9522TIP3    H150057   5.671   6.788  11.707  1.1341  1.0529 -1.6294
 9522TIP3    H250058   5.651   6.641  11.677 -1.0629  0.6416  1.3507
 9523TIP3   OH250059   4.350   6.865  11.970  0.0009 -0.4099  0.0275
 9523TIP3    H150060   4.415   6.936  11.965 -0.0475 -0.3837 -0.2501
 9523TIP3    H250061   4.402   6.787  11.988  0.2059 -0.5268 -1.0125
 9524TIP3   OH250062   0.209   3.843   4.084  0.1318  0.7160 -0.0853
 9524TIP3    H150063   0.287   3.789   4.095 -0.3478 -0.1318 -0.7180
 9524TIP3    H250064   0.227   3.897   4.007  0.0130  0.3523 -0.3727
 9525TIP3   OH250065   5.511   2.094  13.231  0.5281 -0.1419  0.1820
 9525TIP3    H150066   5.416   2.095  13.242  0.6754 -0.4646  1.7161
 9525TIP3    H250067   5.534   2.184  13.208 -0.1549 -0.1026 -0.3663
 9526TIP3   OH250068   0.934   3.931   0.790  0.3609  0.4759  0.1250
 9526TIP3    H150069   0.911   3.878   0.714  0.9178 -2.3083  1.7707
 9526TIP3    H250070   0.996   3.996   0.756  2.1027 -1.8665 -1.5212
 9527TIP3   OH250071   3.127   6.588   1.386 -0.7357 -0.7775 -0.2775
 9527TIP3    H150072   3.123   6.595   1.291  0.1988  0.7479 -0.2331
 9527TIP3    H250073   3.062   6.649   1.418  1.1478  1.1672  0.0543
 9528TIP3   OH250074   1.416   2.386  13.512  0.4611 -0.0275 -0.1752
 9528TIP3    H150075   1.328   2.372  13.547  0.5500 -1.3906 -0.4589
 9528TIP3    H250076   1.404   2.448  13.440 -0.1702  0.3178  0.2226
 9529TIP3   OH250077   1.414   5.554  11.991  0.0952  0.0777  0.5717
 9529TIP3    H150078   1.372   5.620  11.937  0.2159 -0.7690 -0.5960
 9529TIP3    H250079   1.495   5.596  12.022  0.8013  0.0888 -1.1811
 9530TIP3   OH250080   1.629   0.499   6.645 -0.0354  0.5416 -0.4655
 9530TIP3    H150081   1.569   0.436   6.684 -0.7156  0.9840 -0.7699
 9530TIP3    H250082   1.580   0.535   6.571  1.6167 -1.1329 -2.5071
 9531TIP3   OH250083   6.673   1.871  15.311  0.2145 -0.1777 -0.1536
 9531TIP3    H150084   6.672   1.803  15.379 -0.7501 -0.8421 -0.8145
 9531TIP3    H250085   6.657   1.953  15.359 -1.5949 -0.7644  0.3113
 9532TIP3   OH250086   3.671   3.871  15.459  0.2134 -0.1178 -0.1563
 9532TIP3    H150087   3.580   3.888  15.483  0.5885 -0.1512  1.3869
 9532TIP3    H250088   3.679   3.905  15.370 -0.8340  1.5695  0.3475
 9533TIP3   OH250089   3.568   3.142  15.471  0.1119 -0.0668  0.5118
 9533TIP3    H150090   3.613   3.190  15.401 -0.8421 -1.1368 -0.9022
 9533TIP3    H250091   3.636   3.090  15.513  0.6090  0.1871  0.0371
 9534TIP3   OH250092   1.772   5.108   6.305  0.4536 -0.0736 -0.2195
 9534TIP3    H150093   1.680   5.087   6.288  0.2136 -0.0264  0.9757
 9534TIP3    H250094   1.781   5.200   6.280 -0.6626  0.9215  2.6924
 9535TIP3   OH250095   1.479   5.611   5.631  0.2136  0.1664  0.6548
 9535TIP3    H150096   1.540   5.684   5.644  1.0479 -0.8327  2.7243
 9535TIP3    H250097   1.519   5.558   5.563  0.5273  0.6748  0.4334
 9536TIP3   OH250098   3.680   4.522  16.654  0.3083  0.1903 -0.1509
 9536TIP3    H150099   3.678   4.496  16.561  1.7781 -2.3180  0.4105
 9536TIP3    H250100   3.773   4.520  16.676  0.0356  1.4742  1.2301
 9537TIP3   OH250101   4.633   6.017   1.380 -0.0472 -0.3615 -0.4756
 9537TIP3    H150102   4.630   5.986   1.290  2.7269 -0.9284 -0.4663
 9537TIP3    H250103   4.655   6.110   1.374  0.5265 -0.4871 -0.4028
 9538TIP3   OH250104   0.319   5.899  17.022  0.0425  0.8165 -0.1889
 9538TIP3    H150105   0.410   5.873  17.007 -0.4727 -1.2126 -0.1993
 9538TIP3    H250106   0.322   5.953  17.101  1.1603 -0.1020  0.4367
 9539TIP3   OH250107   6.430   1.182   1.483  0.2349 -0.2702  0.7096
 9539TIP3    H150108   6.510   1.210   1.437  0.5518  1.3197  2.1292
 9539TIP3    H250109   6.401   1.104   1.435  1.5019  0.2874 -1.0936
 9540TIP3   OH250110   3.639   1.461   2.313  0.6197 -0.1749  0.0274
 9540TIP3    H150111   3.638   1.519   2.237 -2.2774 -0.1467 -0.0307
 9540TIP3    H250112   3.731   1.444   2.329  1.4054  1.4876 -2.2103
 9541TIP3   OH250113   4.545   4.073  15.876 -0.4908 -0.3021 -0.4460
 9541TIP3    H150114   4.478   4.119  15.926 -1.7911 -2.9262  0.4007
 9541TIP3    H250115   4.621   4.131  15.879 -0.7480  0.1571  3.8558
 9542TIP3   OH250116   0.197   2.347   2.028  0.4041 -0.2379 -0.2223
 9542TIP3    H150117   0.252   2.386   1.960 -0.2795  0.2096 -0.5223
 9542TIP3    H250118   0.209   2.403   2.104 -0.6183  0.6198 -0.6678
 9543TIP3   OH250119   2.637   5.622   3.562 -0.0371  0.0479  0.5105
 9543TIP3    H150120   2.651   5.534   3.527 -0.3414 -0.3952  1.4670
 9543TIP3    H250121   2.640   5.679   3.485 -1.3624 -0.9646 -0.3387
 9544TIP3   OH250122   4.458   0.608   0.582 -0.3240  0.1281  0.0021
 9544TIP3    H150123   4.416   0.534   0.539 -1.8210  0.5433  0.6780
 9544TIP3    H250124   4.446   0.681   0.520 -1.1431  0.3760  0.4332
 9545TIP3   OH250125   6.301   2.376   5.889  0.0210  0.5602 -0.0157
 9545TIP3    H150126   6.223   2.329   5.861  0.3435  0.7593 -1.3306
 9545TIP3    H250127   6.362   2.308   5.917 -0.0741  0.3044 -0.4309
 9546TIP3   OH250128   5.681   4.836  11.108 -0.8313  0.2392 -0.2025
 9546TIP3    H150129   5.681   4.768  11.175 -1.1293  0.0484 -0.3934
 9546TIP3    H250130   5.743   4.804  11.041  0.4756  1.0377  0.5791
 9547TIP3   OH250131   1.428   4.007   1.273 -0.3862 -0.5126 -0.2464
 9547TIP3    H150132   1.497   4.017   1.207  1.3648 -1.6922  1.3368
 9547TIP3    H250133   1.383   3.926   1.248 -0.2824 -0.5086 -0.4528
 9548TIP3   OH250134   4.896   2.755   0.804  0.0509  0.2398 -0.2283
 9548TIP3    H150135   4.921   2.721   0.718 -1.1049 -1.1129 -0.0751
 9548TIP3    H250136   4.965   2.725   0.863 -0.1306 -0.4860 -0.3760
 9549TIP3   OH250137   2.399   4.839   2.631  0.1840  0.0784 -0.2721
 9549TIP3    H150138   2.449   4.770   2.674  0.5374  0.4919 -0.0143
 9549TIP3    H250139   2.441   4.921   2.659 -1.1418  0.4925  0.6153
 9550TIP3   OH250140   0.889   5.401   2.746 -0.3572 -0.3754  0.2120
 9550TIP3    H150141   0.915   5.408   2.838  2.9603  1.8529 -0.7469
 9550TIP3    H250142   0.866   5.309   2.735  2.1856 -1.4323  2.5858
 9551TIP3   OH250143   1.237   0.188  12.730 -0.3590  0.3299 -0.3660
 9551TIP3    H150144   1.317   0.137  12.742  0.1805  1.4245  0.9543
 9551TIP3    H250145   1.191   0.144  12.659  1.3516 -0.3857 -1.0788
 9552TIP3   OH250146   1.815   0.824  16.545  0.3885  0.6940 -0.1700
 9552TIP3    H150147   1.849   0.819  16.456  2.2127 -1.5153  0.5673
 9552TIP3    H250148   1.747   0.757  16.548  0.4807  0.6155  0.1628
 9553TIP3   OH250149   3.706   3.400  16.344  0.0863  0.1932 -0.5306
 9553TIP3    H150150   3.774   3.468  16.349 -0.0469  0.3059 -0.2411
 9553TIP3    H250151   3.755   3.318  16.346  0.1307  0.1774  2.4270
 9554TIP3   OH250152   3.305   1.288   5.304  0.1360  0.1692  0.4309
 9554TIP3    H150153   3.262   1.229   5.366  1.3881 -0.8493  0.3521
 9554TIP3    H250154   3.234   1.322   5.250 -1.0168  1.1063  2.3986
 9555TIP3   OH250155   2.807   6.424   5.023  0.3885  0.0111  0.8393
 9555TIP3    H150156   2.849   6.349   5.065  0.8376 -0.2637 -0.0758
 9555TIP3    H250157   2.880   6.476   4.989  0.0643  0.6604  1.1065
 9556TIP3   OH250158   1.998   3.157   4.504  0.1287  0.1906  0.5613
 9556TIP3    H150159   2.000   3.118   4.591  0.7868  1.1148  0.9804
 9556TIP3    H250160   2.071   3.219   4.503 -0.9754  1.5727  0.0332
 9557TIP3   OH250161   2.814   0.672  13.241 -0.2355 -0.4868 -0.3531
 9557TIP3    H150162   2.846   0.584  13.220  0.3221 -0.2130 -0.6661
 9557TIP3    H250163   2.848   0.727  13.171 -1.1303 -0.1265 -0.5103
 9558TIP3   OH250164   2.237   1.415  15.536  0.4191  0.3017 -0.3610
 9558TIP3    H150165   2.164   1.382  15.589  0.6647 -1.7036 -1.1780
 9558TIP3    H250166   2.307   1.431  15.599 -0.5214  1.8343  0.3786
 9559TIP3   OH250167   6.864   2.195  14.028  0.5898 -0.0994 -0.6967
 9559TIP3    H150168   6.855   2.143  13.949 -0.9523  0.5019 -0.9457
 9559TIP3    H250169   6.775   2.205  14.061  1.0693  0.7250  0.4143
 9560TIP3   OH250170   0.876   3.921  13.959  0.0942  0.1063 -0.2872
 9560TIP3    H150171   0.818   3.856  13.998 -0.0359  0.8255  0.7590
 9560TIP3    H250172   0.835   3.944  13.876 -1.8575  1.5540  0.9889
 9561TIP3   OH250173   5.114   4.596   6.562 -0.4324 -0.2686 -0.2847
 9561TIP3    H150174   5.198   4.639   6.543  0.2150 -0.4814  1.7835
 9561TIP3    H250175   5.052   4.668   6.574 -0.1779 -0.0407 -0.3274
 9562TIP3   OH250176   3.637   5.806   2.224 -1.0769  0.4705 -0.0932
 9562TIP3    H150177   3.685   5.789   2.305 -1.9958  2.0425  0.8467
 9562TIP3    H250178   3.598   5.893   2.238 -2.7976 -0.0372 -1.4718
 9563TIP3   OH250179   3.676   2.056  12.683 -0.0932  0.4525  0.7644
 9563TIP3    H150180   3.668   2.144  12.720  1.0703  1.6590 -1.6366
 9563TIP3    H250181   3.750   2.062  12.623 -1.5359 -1.4435 -1.4002
 9564TIP3   OH250182   0.319   4.140  15.968  0.3259  0.6296 -0.5637
 9564TIP3    H150183   0.235   4.113  15.933  0.7487 -1.9054  0.1776
 9564TIP3    H250184   0.381   4.073  15.937  1.2544  0.0061  2.3316
 9565TIP3   OH250185   0.306   5.081   3.707  0.4585  0.6862  0.1511
 9565TIP3    H150186   0.329   5.173   3.695 -0.3697  0.8337 -0.4446
 9565TIP3    H250187   0.244   5.063   3.636  2.8252 -1.1679 -1.6041
 9566TIP3   OH250188   3.135   0.565  12.371 -0.3607  0.1494 -0.2769
 9566TIP3    H150189   3.186   0.578  12.451 -0.1991  2.8000 -0.7456
 9566TIP3    H250190   3.050   0.605  12.389 -0.9805 -0.8751 -0.8237
 9567TIP3   OH250191   2.981   2.285   2.688  0.5215  0.3962 -0.0663
 9567TIP3    H150192   2.886   2.272   2.690  0.6889 -1.4418 -1.4031
 9567TIP3    H250193   3.009   2.241   2.608  2.7112 -0.5941  1.1515
 9568TIP3   OH250194   0.514   0.504   2.059 -0.6452  0.0700 -0.5554
 9568TIP3    H150195   0.449   0.435   2.075  1.7633 -1.9787  1.2669
 9568TIP3    H250196   0.509   0.560   2.136  0.0502 -0.4119 -0.1443
 9569TIP3   OH250197   3.445   0.422   1.793  0.6995 -0.3959  0.0532
 9569TIP3    H150198   3.406   0.403   1.879 -0.0026 -0.6753 -0.3149
 9569TIP3    H250199   3.534   0.387   1.798  0.5036 -0.8326  0.5066
 9570TIP3   OH250200   6.808   1.586  12.317 -0.5011  0.2082 -0.3762
 9570TIP3    H150201   6.814   1.581  12.222 -0.3879  0.3361 -0.3774
 9570TIP3    H250202   6.739   1.524  12.341  1.8913 -2.5784 -0.2246
 9571TIP3   OH250203   5.681   6.099  14.026 -0.3633 -0.4624  0.2040
 9571TIP3    H150204   5.622   6.041  13.978  0.7131 -0.6038 -0.9947
 9571TIP3    H250205   5.735   6.040  14.078 -0.9116 -0.3652  0.8935
 9572TIP3   OH250206   0.665   2.454  15.294 -0.5618 -0.7823 -0.4117
 9572TIP3    H150207   0.745   2.409  15.320  0.7178  1.0345 -1.0072
 9572TIP3    H250208   0.661   2.531  15.350 -1.1376 -0.1340 -1.3106
 9573TIP3   OH250209   0.272   5.440   2.481  0.4633  0.6885 -0.4796
 9573TIP3    H150210   0.195   5.409   2.530  1.0233  1.5818  1.0629
 9573TIP3    H250211   0.267   5.395   2.397 -0.4485 -1.1033  0.4675
 9574TIP3   OH250212   2.418   0.176  12.095 -0.0680 -0.5501  0.5288
 9574TIP3    H150213   2.421   0.123  12.015  1.7956 -0.9597  0.8176
 9574TIP3    H250214   2.434   0.114  12.165 -1.2847 -0.1203  1.2144
 9575TIP3   OH250215   5.065   4.005  10.912 -0.2493  0.4295 -0.0741
 9575TIP3    H150216   5.130   3.992  10.980 -0.7320 -1.3304  0.1012
 9575TIP3    H250217   5.111   3.985  10.830 -0.5902 -1.0139  0.0665
 9576TIP3   OH250218   1.697   0.157   2.443  0.0144 -0.2964  0.3638
 9576TIP3    H150219   1.660   0.097   2.509  0.7208 -0.6408  0.4570
 9576TIP3    H250220   1.748   0.100   2.385 -0.2638  0.0644 -0.2387
 9577TIP3   OH250221   1.904   6.346  15.996  0.1117 -0.3657  0.4180
 9577TIP3    H150222   1.963   6.330  15.922  1.4491  2.1037  0.8504
 9577TIP3    H250223   1.885   6.259  16.031  2.4331 -1.3375 -0.5587
 9578TIP3   OH250224   1.589   2.126  16.893  0.1695  0.9079 -0.1939
 9578TIP3    H150225   1.588   2.171  16.978  1.2828 -0.9847  0.9079
 9578TIP3    H250226   1.507   2.078  16.890  1.1476 -0.9426  0.9877
 9579TIP3   OH250227   2.081   5.817  14.219 -0.6189  0.4504 -0.1488
 9579TIP3    H150228   1.998   5.848  14.184  0.9313  2.5922 -2.2437
 9579TIP3    H250229   2.127   5.778  14.145 -0.1437 -1.8381  1.2232
 9580TIP3   OH250230   5.554   4.117   3.659 -0.1959 -0.4657  0.5386
 9580TIP3    H150231   5.586   4.081   3.742 -1.6107  1.0371  1.8035
 9580TIP3    H250232   5.582   4.208   3.660  1.2184 -0.8117 -1.4813
 9581TIP3   OH250233   5.389   1.694  12.140 -0.2166  0.1362 -0.1821
 9581TIP3    H150234   5.311   1.747  12.155 -0.5173 -0.2088 -0.4966
 9581TIP3    H250235   5.462   1.755  12.153 -0.5438  0.5227 -0.1258
 9582TIP3   OH250236   0.749   4.380   4.299 -0.7077  0.5357  0.2858
 9582TIP3    H150237   0.842   4.389   4.320 -0.5650  2.4399 -0.8727
 9582TIP3    H250238   0.713   4.327   4.370  1.3560 -0.7585  0.4331
 9583TIP3   OH250239   4.348   1.226   1.020 -0.0483  0.3524 -0.1739
 9583TIP3    H150240   4.394   1.160   0.968 -1.4213 -0.8696  0.1021
 9583TIP3    H250241   4.416   1.263   1.077  0.7383 -0.8681 -0.2820
 9584TIP3   OH250242   4.302   0.585   0.997 -0.0568  0.1302 -0.5155
 9584TIP3    H150243   4.265   0.497   1.010 -1.3588  0.7860  0.5273
 9584TIP3    H250244   4.396   0.574   1.011 -0.1927 -1.1105 -0.4845
 9585TIP3   OH250245   6.296   6.713   2.230 -0.3020 -0.0292  0.3168
 9585TIP3    H150246   6.250   6.724   2.314 -0.7867  2.5064 -0.1991
 9585TIP3    H250247   6.280   6.796   2.183  1.8076 -0.5082 -1.3791
 9586TIP3   OH250248   2.114   1.271   1.875  0.0737  0.1463  0.2086
 9586TIP3    H150249   2.209   1.263   1.862 -0.2652 -3.5277 -1.2164
 9586TIP3    H250250   2.077   1.208   1.813 -3.2631  0.6599  1.5284
 9587TIP3   OH250251   2.728   0.694   3.146  0.6358 -0.1613 -0.0145
 9587TIP3    H150252   2.819   0.696   3.118  0.1569 -1.2386 -1.7944
 9587TIP3    H250253   2.681   0.652   3.074 -0.8117 -2.5238  2.1118
 9588TIP3   OH250254   6.353   5.613  15.445  0.1452  0.2272  0.4974
 9588TIP3    H150255   6.419   5.558  15.402 -0.3815 -0.7968  0.9666
 9588TIP3    H250256   6.312   5.661  15.373 -1.1434 -1.9110 -0.2892
 9589TIP3   OH250257   0.342   4.492  13.235 -0.6847  0.0733 -0.5147
 9589TIP3    H150258   0.345   4.516  13.328 -0.6687  0.3728 -0.5908
 9589TIP3    H250259   0.308   4.403  13.234 -2.7554  0.8099 -0.3532
 9590TIP3   OH250260   5.250   2.019  13.916 -0.4550 -0.3371 -0.0359
 9590TIP3    H150261   5.172   1.975  13.883 -0.6932  0.1660 -0.1481
 9590TIP3    H250262   5.308   2.025  13.840 -0.8562  0.4913 -0.2988
 9591TIP3   OH250263   0.951   0.872   2.317  0.0210  0.0366 -0.0172
 9591TIP3    H150264   0.994   0.913   2.392 -0.4544 -1.4406  1.0859
 9591TIP3    H250265   0.858   0.894   2.328 -0.1787 -0.9431  0.3556
 9592TIP3   OH250266   4.421   6.849   4.551 -0.4616  0.3455 -0.2697
 9592TIP3    H150267   4.466   6.793   4.614  0.5259  1.0258 -0.3417
 9592TIP3    H250268   4.330   6.819   4.552  0.0294 -1.2558 -0.3134
 9593TIP3   OH250269   5.695   5.531   4.319 -0.4241 -0.0536 -0.1017
 9593TIP3    H150270   5.788   5.547   4.337 -0.2964 -0.6987 -0.1567
 9593TIP3    H250271   5.671   5.459   4.378 -1.4419  1.4635  1.4175
 9594TIP3   OH250272   6.062   3.195   1.423  0.0481 -0.3856  0.1305
 9594TIP3    H150273   6.032   3.277   1.383  0.9678  0.6184  1.4341
 9594TIP3    H250274   6.101   3.146   1.350  0.9943  1.0666 -0.3836
 9595TIP3   OH250275   5.294   2.136   0.655  0.2710 -0.1970  0.4942
 9595TIP3    H150276   5.343   2.086   0.720  1.2607 -1.3747 -1.0978
 9595TIP3    H250277   5.223   2.078   0.628 -0.8416  0.7245  1.2924
 9596TIP3   OH250278   0.730   3.339  13.028 -0.0443  0.4114  0.2367
 9596TIP3    H150279   0.647   3.309  13.065  0.5317 -0.2497  1.0180
 9596TIP3    H250280   0.781   3.259  13.014  0.9527  0.9037  0.9827
 9597TIP3   OH250281   0.151   5.634  17.085  0.0866  0.1930  0.8328
 9597TIP3    H150282   0.103   5.699  17.033  0.1944  0.3512  0.9268
 9597TIP3    H250283   0.088   5.604  17.151 -1.1193 -2.4091 -1.3250
 9598TIP3   OH250284   1.301   6.775   0.271  0.6714 -0.1122  0.6860
 9598TIP3    H150285   1.372   6.736   0.221  0.1135 -2.2559  1.4509
 9598TIP3    H250286   1.321   6.755   0.362  0.0368  0.8962  1.0668
 9599TIP3   OH250287   4.408   6.143   3.786 -0.3892  0.5594  0.0559
 9599TIP3    H150288   4.444   6.073   3.732  1.7228  2.0766 -0.6434
 9599TIP3    H250289   4.438   6.123   3.874  0.3003  0.6190 -0.1590
 9600TIP3   OH250290   6.761   0.189   6.072 -0.0004 -0.6429  0.2330
 9600TIP3    H150291   6.686   0.167   6.017 -0.9225 -0.7652  1.5061
 9600TIP3    H250292   6.757   0.127   6.145  1.0532 -0.3241  0.5867
 9601TIP3   OH250293   0.997   6.515   0.060  0.5422  0.1022  0.3564
 9601TIP3    H150294   0.936   6.522  -0.013 -0.7439 -0.2043  1.3663
 9601TIP3    H250295   1.068   6.576   0.039 -1.4414  2.5848  0.4259
 9602TIP3   OH250296   3.131   4.284  15.324  0.5342 -0.0305  0.2151
 9602TIP3    H150297   3.100   4.216  15.265  1.2991 -1.1595  1.0675
 9602TIP3    H250298   3.207   4.322  15.279  0.9484 -0.6996  0.3365
 9603TIP3   OH250299   1.394   1.375   3.158 -0.0743 -0.1670  0.2691
 9603TIP3    H150300   1.362   1.402   3.244  0.1098  0.3146  0.1885
 9603TIP3    H250301   1.360   1.286   3.146 -1.3219  0.3026  0.2214
 9604TIP3   OH250302   2.896   2.048   3.097 -0.1008  0.5118  0.1944
 9604TIP3    H150303   2.900   2.140   3.071  1.0119  0.6054  0.6313
 9604TIP3    H250304   2.837   2.008   3.034  0.7695  1.1761 -1.0770
 9605TIP3   OH250305   2.504   2.437   5.250  0.0414 -0.1866 -0.4589
 9605TIP3    H150306   2.583   2.479   5.281 -0.4170  1.0791 -0.9515
 9605TIP3    H250307   2.535   2.361   5.199  1.0140  1.0477 -1.7836
 9606TIP3   OH250308   4.669   6.355   2.540 -0.1380  0.4550  0.2062
 9606TIP3    H150309   4.724   6.400   2.476 -0.8691  0.7950 -0.1896
 9606TIP3    H250310   4.703   6.265   2.542  0.2314  0.5803 -0.2505
 9607TIP3   OH250311   0.638   5.377   5.900  0.5482 -0.0252  0.2612
 9607TIP3    H150312   0.720   5.355   5.855  0.3031  0.1614 -0.2814
 9607TIP3    H250313   0.663   5.386   5.992  0.7827 -1.9225  0.4228
 9608TIP3   OH250314   6.407   5.637  12.890  0.0943  0.2120  0.2932
 9608TIP3    H150315   6.316   5.635  12.918 -0.5648  0.5868 -1.6223
 9608TIP3    H250316   6.456   5.596  12.961 -1.4239  0.9799  1.8419
 9609TIP3   OH250317   1.847   4.929   0.528 -0.1320 -0.1809  0.4886
 9609TIP3    H150318   1.844   4.835   0.547 -0.3272 -0.2235  0.2443
 9609TIP3    H250319   1.910   4.936   0.457 -0.6994 -0.2138 -0.0204
 9610TIP3   OH250320   6.777   3.094  13.170  0.1803 -0.6483 -0.2399
 9610TIP3    H150321   6.722   3.164  13.137  0.2933 -1.5800 -2.6065
 9610TIP3    H250322   6.820   3.131  13.248  1.1413  2.3363 -2.0289
 9611TIP3   OH250323   6.528   3.986   6.151 -0.1845 -0.3999 -0.1761
 9611TIP3    H150324   6.607   3.960   6.198  0.1956  0.8424 -0.1110
 9611TIP3    H250325   6.510   3.913   6.092  1.7587 -0.1423 -1.1556
 9612TIP3   OH250326   4.912   5.498   1.424 -0.0332  0.7319 -0.1592
 9612TIP3    H150327   4.959   5.540   1.352 -0.6818 -0.4010 -1.3035
 9612TIP3    H250328   4.844   5.560   1.448  0.5092  1.3399 -0.1846
 9613TIP3   OH250329   1.411   5.461   2.774  0.3486 -0.1106  0.1539
 9613TIP3    H150330   1.341   5.421   2.827 -0.1534 -2.0133 -1.8063
 9613TIP3    H250331   1.480   5.395   2.772  1.2829  0.8403  0.1998
 9614TIP3   OH250332   2.857   3.090   5.457  0.3299 -0.8179  0.1937
 9614TIP3    H150333   2.943   3.048   5.455  0.9205  0.2219  1.9036
 9614TIP3    H250334   2.875   3.181   5.481 -1.1387 -0.1897 -0.9282
 9615TIP3   OH250335   6.613   5.390   5.738 -0.3665 -0.2659 -0.0557
 9615TIP3    H150336   6.632   5.302   5.704  0.9394 -0.2841  0.6722
 9615TIP3    H250337   6.659   5.449   5.679 -0.1093 -0.1504  0.2625
 9616TIP3   OH250338   2.227   5.740  13.983 -0.4365  0.0048  0.0011
 9616TIP3    H150339   2.298   5.735  14.047 -0.2531  1.2381 -0.0776
 9616TIP3    H250340   2.212   5.650  13.956  2.9654 -0.1427 -1.9646
 9617TIP3   OH250341   6.443   0.800  13.143 -0.0129  0.0909 -0.1275
 9617TIP3    H150342   6.378   0.859  13.107 -1.7253 -1.5773  0.0618
 9617TIP3    H250343   6.487   0.762  13.067 -0.6380 -0.2098 -0.3494
 9618TIP3   OH250344   4.026   1.436  15.550  0.2571  0.1970 -0.2882
 9618TIP3    H150345   3.946   1.489  15.558  0.4577  0.4401  0.1968
 9618TIP3    H250346   4.095   1.501  15.534  0.1518 -0.1293 -2.2660
 9619TIP3   OH250347   6.510   2.074   3.681 -0.4488 -0.0512 -0.1199
 9619TIP3    H150348   6.471   2.034   3.759 -0.1078 -2.5699 -1.1356
 9619TIP3    H250349   6.595   2.108   3.711 -0.4529 -0.7203  0.6669
 9620TIP3   OH250350   2.504   6.093  15.917  0.0163  0.4071  0.5748
 9620TIP3    H150351   2.441   6.133  15.857 -1.4962 -1.2759  0.9458
 9620TIP3    H250352   2.461   6.096  16.002  0.7341 -0.1952  0.9706
 9621TIP3   OH250353   4.722   4.766  12.900 -0.0752 -0.3425 -0.4474
 9621TIP3    H150354   4.774   4.715  12.837  0.8242 -0.9010  0.7163
 9621TIP3    H250355   4.653   4.706  12.927  1.1590 -1.1478  1.1530
 9622TIP3   OH250356   1.485   4.133  12.571  0.0594 -0.1485 -0.7699
 9622TIP3    H150357   1.442   4.218  12.558  1.2601  0.4800 -0.7394
 9622TIP3    H250358   1.412   4.071  12.582 -0.8330  0.9192 -0.4690
 9623TIP3   OH250359   3.486   3.031   1.925  0.5554  0.6772  0.1018
 9623TIP3    H150360   3.550   3.098   1.950 -0.4917  0.6197  3.3767
 9623TIP3    H250361   3.401   3.070   1.943 -0.4277  0.2911 -2.9953
 9624TIP3   OH250362   3.263   0.553   3.113 -0.1161 -0.8753  0.1000
 9624TIP3    H150363   3.292   0.503   3.038 -0.4822  1.0888 -1.4458
 9624TIP3    H250364   3.304   0.639   3.102 -2.8409  0.5556  0.2315
 9625TIP3   OH250365   5.083   2.976  14.186 -0.5846 -0.9128  0.4512
 9625TIP3    H150366   4.988   2.988  14.191 -0.6150 -1.2549  0.7012
 9625TIP3    H250367   5.114   3.054  14.139 -1.0633 -1.1320 -0.2438
 9626TIP3   OH250368   5.838   3.353   5.063  0.0899 -0.2727 -0.3556
 9626TIP3    H150369   5.799   3.367   5.149  0.5083  1.5557 -0.4185
 9626TIP3    H250370   5.824   3.436   5.017  4.1484  0.6206 -0.3213
 9627TIP3   OH250371   0.319   0.041   2.194  0.1515  0.1806  0.3634
 9627TIP3    H150372   0.355   0.112   2.247  1.2090 -0.1270  0.0760
 9627TIP3    H250373   0.369  -0.036   2.220 -0.3370 -0.2719 -0.0142
 9628TIP3   OH250374   4.056   5.317  12.396 -0.5103  0.1775  0.8217
 9628TIP3    H150375   4.063   5.373  12.473 -0.7412 -0.6217  1.4320
 9628TIP3    H250376   4.113   5.359  12.331 -1.8229  1.9715  0.7308
 9629TIP3   OH250377   4.196   3.169  12.708 -0.1247 -0.4994 -0.0788
 9629TIP3    H150378   4.128   3.228  12.676 -0.4292 -0.2773  0.9297
 9629TIP3    H250379   4.216   3.201  12.796  2.2849  0.2801 -0.8325
 9630TIP3   OH250380   4.181   5.987  13.313  0.3488 -0.0637  0.2807
 9630TIP3    H150381   4.120   6.061  13.322 -0.3448 -0.4431 -1.1359
 9630TIP3    H250382   4.243   6.015  13.246  0.2742 -0.6338 -0.0320
 9631TIP3   OH250383   2.303   6.797  11.195  0.0187  0.2882  0.6041
 9631TIP3    H150384   2.277   6.800  11.287 -0.3499  0.1069  0.5075
 9631TIP3    H250385   2.230   6.837  11.148  0.0783  0.1230  0.3661
 9632TIP3   OH250386   5.611   5.554  14.024  0.3449  1.1324 -0.0414
 9632TIP3    H150387   5.632   5.513  14.108 -0.4792 -0.6134 -0.6446
 9632TIP3    H250388   5.522   5.524  14.004  1.2933 -0.3336 -2.5404
 9633TIP3   OH250389   5.048   0.602   2.286 -0.0698 -0.0802 -0.3182
 9633TIP3    H150390   5.002   0.518   2.280  0.8775 -0.6648  0.4060
 9633TIP3    H250391   5.106   0.593   2.362  0.4647  1.0250 -0.5702
 9634TIP3   OH250392   4.143   0.558  12.172 -0.4760  0.0181 -0.5016
 9634TIP3    H150393   4.137   0.511  12.255 -1.3655  1.4481  0.2734
 9634TIP3    H250394   4.237   0.574  12.160 -0.3655  0.1175  0.4137
 9635TIP3   OH250395   3.999   3.849  14.402 -0.0951 -0.1920 -0.5164
 9635TIP3    H150396   4.040   3.912  14.343 -0.5569 -0.2158 -0.8669
 9635TIP3    H250397   4.067   3.828  14.466  0.1871  0.3527 -0.6379
 9636TIP3   OH250398   6.793   3.856  12.146 -0.2788  0.1131 -0.9539
 9636TIP3    H150399   6.815   3.911  12.221  0.5261  0.6546 -1.5703
 9636TIP3    H250400   6.757   3.916  12.081 -1.1218 -0.3732 -0.9497
 9637TIP3   OH250401   2.368   1.598  12.936  0.2736 -0.2123  0.3589
 9637TIP3    H150402   2.451   1.557  12.962 -0.7386 -2.6788  0.0499
 9637TIP3    H250403   2.308   1.524  12.927 -1.3507  1.2721 -1.7456
 9638TIP3   OH250404   5.614   5.972   0.727  0.0319 -0.2147  0.0615
 9638TIP3    H150405   5.533   5.956   0.777 -0.6272 -0.5358 -1.0837
 9638TIP3    H250406   5.667   5.894   0.743  0.2115  0.0798  0.9712
 9639TIP3   OH250407   1.287   2.451  12.313 -0.2648  0.4685 -0.5899
 9639TIP3    H150408   1.365   2.478  12.361 -1.4613 -0.3895  2.0416
 9639TIP3    H250409   1.314   2.373  12.265  0.8099  0.9605 -0.8190
 9640TIP3   OH250410   3.213   6.786  13.378  0.4850  0.4151  0.0811
 9640TIP3    H150411   3.189   6.724  13.310 -2.2740  0.6952  0.6778
 9640TIP3    H250412   3.130   6.809  13.420  1.9487  0.9746  2.9272
 9641TIP3   OH250413   3.874   3.859  11.742  0.2281 -0.2324 -0.5117
 9641TIP3    H150414   3.806   3.805  11.703  1.1265 -1.7770 -0.0293
 9641TIP3    H250415   3.874   3.834  11.835  0.4619  0.8249 -0.2116
 9642TIP3   OH250416   5.804   1.089   1.093  0.1579  0.3670  0.0352
 9642TIP3    H150417   5.747   1.162   1.067  1.9458  1.8891  0.1283
 9642TIP3    H250418   5.820   1.040   1.013 -0.2420  0.6823 -0.2405
 9643TIP3   OH250419   0.998   3.074  15.955  0.3349  0.1651  0.0854
 9643TIP3    H150420   0.952   3.157  15.943 -1.0029 -0.6484 -0.7752
 9643TIP3    H250421   1.087   3.099  15.981 -0.3514  1.8226  1.0123
 9644TIP3   OH250422   0.834   3.809   2.189 -0.0094 -0.2717  0.4836
 9644TIP3    H150423   0.854   3.898   2.162  0.7904 -0.5856  0.0138
 9644TIP3    H250424   0.760   3.783   2.135  0.2851 -0.1791  0.0304
 9645TIP3   OH250425   3.374   5.989  13.004 -0.2173 -0.4745 -0.2735
 9645TIP3    H150426   3.448   6.003  12.945  0.1848 -0.0149  0.3325
 9645TIP3    H250427   3.306   6.048  12.971  0.2266  0.2567  0.0918
 9646TIP3   OH250428   3.335   0.737   0.828 -0.0165 -0.8156 -0.2985
 9646TIP3    H150429   3.427   0.762   0.817 -0.0295 -0.9967 -0.8707
 9646TIP3    H250430   3.286   0.814   0.800 -0.0424 -0.7625 -0.1092
 9647TIP3   OH250431   5.508   5.649   3.704 -0.1781  0.2381 -0.1417
 9647TIP3    H150432   5.470   5.725   3.661  0.4335  0.5462 -0.1455
 9647TIP3    H250433   5.602   5.666   3.706 -0.2053  0.4523  1.7184
 9648TIP3   OH250434   4.880   0.320   3.134 -0.1638 -0.7093 -0.1141
 9648TIP3    H150435   4.934   0.348   3.060 -1.1822 -1.1510 -1.0571
 9648TIP3    H250436   4.840   0.400   3.167 -0.2759 -0.5988 -0.5156
 9649TIP3   OH250437   1.830   1.184   4.698  0.3809  0.2021 -0.1049
 9649TIP3    H150438   1.876   1.242   4.759  1.9388  0.0310 -1.0655
 9649TIP3    H250439   1.738   1.193   4.722  0.6981  2.0786  0.6068
 9650TIP3   OH250440   3.229   4.475   4.956  0.1596 -0.5047  0.5680
 9650TIP3    H150441   3.157   4.416   4.974 -1.2606  1.1706  0.6380
 9650TIP3    H250442   3.220   4.496   4.863  0.1960  0.1659  0.7120
 9651TIP3   OH250443   6.838   1.968   5.693 -0.1658 -0.2587 -0.3912
 9651TIP3    H150444   6.855   2.041   5.633 -0.2648  0.1920  0.1286
 9651TIP3    H250445   6.745   1.949   5.682 -0.3241  0.2409  0.0868
 9652TIP3   OH250446   6.250   5.428  11.180 -0.6526 -0.4138 -0.7141
 9652TIP3    H150447   6.289   5.420  11.093  1.5195  0.7792  0.0501
 9652TIP3    H250448   6.323   5.413  11.240 -1.7032  0.4777  0.8766
 9653TIP3   OH250449   1.645   3.855   5.296 -0.2698 -0.7127  0.0599
 9653TIP3    H150450   1.561   3.897   5.275 -1.2903 -1.3767  2.3999
 9653TIP3    H250451   1.698   3.866   5.218 -1.6258  2.0323 -0.5923
 9654TIP3   OH250452   6.694   1.927   0.725  0.1457  0.2536 -0.1849
 9654TIP3    H150453   6.634   1.852   0.726  0.3007  0.1260  0.4265
 9654TIP3    H250454   6.764   1.900   0.666 -0.2994  0.3309 -0.7625
 9655TIP3   OH250455   0.868   4.280  13.978  0.6977 -0.1770 -0.3570
 9655TIP3    H150456   0.848   4.249  14.066  0.9538 -2.0441 -0.9248
 9655TIP3    H250457   0.783   4.288  13.936  0.7145 -3.0978 -1.1314
 9656TIP3   OH250458   6.383   0.795  16.715  0.0934 -0.6752  0.3808
 9656TIP3    H150459   6.454   0.731  16.703  0.8440 -0.0035  1.0844
 9656TIP3    H250460   6.415   0.875  16.673  0.0045 -0.2063  1.1658
 9657TIP3   OH250461   1.119   2.214   6.147 -0.3090 -0.1173 -0.1147
 9657TIP3    H150462   1.147   2.259   6.068 -3.1328 -0.0255 -1.1883
 9657TIP3    H250463   1.200   2.189   6.191  1.3487  0.6580 -2.5426
 9658TIP3   OH250464   3.178   6.398   2.286 -0.2370  0.1065  0.5269
 9658TIP3    H150465   3.203   6.307   2.299  1.3576  0.7539  2.5614
 9658TIP3    H250466   3.250   6.436   2.236 -1.5974 -0.0311 -1.6348
 9659TIP3   OH250467   3.250   2.029  15.271  0.1536  0.1606 -0.6317
 9659TIP3    H150468   3.180   1.982  15.227  0.8264 -0.5561 -0.9489
 9659TIP3    H250469   3.267   1.979  15.351  0.7472 -0.0503 -0.8813
 9660TIP3   OH250470   2.584   6.259   1.057  0.2224 -0.5872 -0.6444
 9660TIP3    H150471   2.661   6.203   1.061 -0.5267 -1.7074 -1.3090
 9660TIP3    H250472   2.604   6.322   0.988  0.6965 -0.6169 -0.5365
 9661TIP3   OH250473   3.081   1.762  12.329 -0.1375  0.2147 -0.3444
 9661TIP3    H150474   3.058   1.675  12.296 -0.1953  1.2341 -3.2294
 9661TIP3    H250475   2.997   1.805  12.344 -0.1061  0.2271 -0.2030
 9662TIP3   OH250476   3.244   5.616  11.054 -0.0822  0.5790 -0.7590
 9662TIP3    H150477   3.305   5.599  11.125 -0.7699  1.7777  0.1595
 9662TIP3    H250478   3.288   5.584  10.976  1.1024  0.1127  0.0784
 9663TIP3   OH250479   2.168   2.819  14.872 -0.1882 -0.4245  0.5727
 9663TIP3    H150480   2.093   2.790  14.820 -0.0925  1.5711 -0.7704
 9663TIP3    H250481   2.175   2.754  14.942 -1.9921 -1.6987 -0.3520
 9664TIP3   OH250482   5.207   1.273   1.697  0.7045  0.1187  0.6303
 9664TIP3    H150483   5.275   1.338   1.677 -1.4747  3.1196  2.1697
 9664TIP3    H250484   5.126   1.325   1.705 -1.1230 -2.7537  2.4288
 9665TIP3   OH250485   3.345   6.334   5.268  0.5746  0.1426  0.0637
 9665TIP3    H150486   3.303   6.374   5.191 -0.9685 -1.0569  0.2376
 9665TIP3    H250487   3.390   6.407   5.311 -0.9295  1.4190 -0.4166
 9666TIP3   OH250488   3.773   0.986  14.957 -0.2474 -0.2227 -0.8108
 9666TIP3    H150489   3.692   0.960  15.001 -0.7027 -2.5960 -2.8247
 9666TIP3    H250490   3.842   0.948  15.011 -0.4632  1.0675  0.4363
 9667TIP3   OH250491   1.264   2.740   4.632 -0.0437 -0.2297  0.4389
 9667TIP3    H150492   1.354   2.773   4.621 -0.2447  0.1383 -0.2102
 9667TIP3    H250493   1.249   2.687   4.553 -1.6349  2.6724 -1.4030
 9668TIP3   OH250494   0.657   2.109  11.836 -0.0579 -0.1067 -0.2206
 9668TIP3    H150495   0.678   2.102  11.930 -0.7014 -1.7803 -0.1625
 9668TIP3    H250496   0.739   2.134  11.795  0.1731  0.9402  0.8128
 9669TIP3   OH250497   1.933   1.215  13.161  0.1936  0.4648  0.6130
 9669TIP3    H150498   1.914   1.147  13.226  3.1015 -0.2501  0.8386
 9669TIP3    H250499   1.951   1.166  13.080 -0.3131  1.1537  0.0751
 9670TIP3   OH250500   5.077   4.511   6.252  0.0699 -0.0659 -0.3217
 9670TIP3    H150501   5.107   4.489   6.340  0.8943 -2.0025 -1.0211
 9670TIP3    H250502   5.009   4.577   6.266  0.5206  0.0414  1.7192
 9671TIP3   OH250503   2.735   0.476  12.516 -0.1305 -0.2645  0.2036
 9671TIP3    H150504   2.650   0.496  12.476  0.4449  0.2845 -0.8007
 9671TIP3    H250505   2.756   0.387  12.487  0.4723  0.2816 -1.1056
 9672TIP3   OH250506   6.523   4.844   6.480  0.1785 -0.3980 -0.0639
 9672TIP3    H150507   6.519   4.923   6.426  0.8869 -0.0052  0.4272
 9672TIP3    H250508   6.567   4.873   6.560  0.6193 -1.3412  0.0446
 9673TIP3   OH250509   0.808   1.128   4.453  0.3676 -0.5451 -0.3519
 9673TIP3    H150510   0.890   1.119   4.404 -0.2582 -1.9786 -1.1904
 9673TIP3    H250511   0.792   1.223   4.454  1.0055 -0.3796 -1.9158
 9674TIP3   OH250512   3.053   3.992   6.140 -0.0790 -0.3337 -0.3658
 9674TIP3    H150513   3.031   4.058   6.206  1.2846  1.1115 -1.2771
 9674TIP3    H250514   3.147   3.978   6.151 -0.3284 -2.1434 -0.2299
 9675TIP3   OH250515   1.901   1.054  16.299 -0.2510 -0.1377  0.4422
 9675TIP3    H150516   1.809   1.031  16.309 -1.3064  2.7079 -1.2990
 9675TIP3    H250517   1.937   0.987  16.242 -2.5491  1.0590 -2.6939
 9676TIP3   OH250518   0.983   6.421  14.048 -0.3994  0.6634 -0.0785
 9676TIP3    H150519   0.967   6.409  13.955  0.6442 -0.2494 -0.1571
 9676TIP3    H250520   0.920   6.364  14.091 -1.6172  1.8818 -0.1550
 9677TIP3   OH250521   4.131   0.703  16.569  0.2364  0.2445  0.3618
 9677TIP3    H150522   4.199   0.737  16.511  1.5985  1.8212  2.7256
 9677TIP3    H250523   4.108   0.618  16.531  1.9465  0.6231 -1.7352
 9678TIP3   OH250524   5.889   3.641   5.323 -0.3390  0.5884  0.0796
 9678TIP3    H150525   5.985   3.651   5.327 -0.3197  0.5274 -0.2395
 9678TIP3    H250526   5.875   3.549   5.300 -0.4248  1.1263 -2.2395
 9679TIP3   OH250527   0.690   4.434   1.416 -0.0014 -0.0499 -0.3988
 9679TIP3    H150528   0.703   4.520   1.376  1.8152 -0.5557 -1.0039
 9679TIP3    H250529   0.773   4.415   1.459 -1.5703  0.0832  2.9805
 9680TIP3   OH250530   2.781   6.267  15.578  0.0427 -0.1517  0.0768
 9680TIP3    H150531   2.861   6.307  15.612 -0.0103  0.5860 -0.6391
 9680TIP3    H250532   2.762   6.195  15.639  1.2975 -0.4009  0.1913
 9681TIP3   OH250533   1.447   2.271  15.886  0.2736  0.1499  0.1721
 9681TIP3    H150534   1.430   2.229  15.971  0.4759  0.7224  0.5022
 9681TIP3    H250535   1.543   2.281  15.883  0.2856 -0.0778 -0.2247
 9682TIP3   OH250536   2.292   6.637  16.695 -0.7735  0.0826 -0.3697
 9682TIP3    H150537   2.230   6.595  16.636  0.9808 -1.4510 -1.1990
 9682TIP3    H250538   2.241   6.656  16.774 -2.5550 -0.0770 -1.4307
 9683TIP3   OH250539   5.588   6.416   6.142 -0.1620 -0.1886 -0.0269
 9683TIP3    H150540   5.540   6.373   6.071 -0.1492 -0.5395  0.1742
 9683TIP3    H250541   5.602   6.506   6.111 -1.1029 -0.0254 -0.0127
 9684TIP3   OH250542   2.355   5.129   1.307 -0.0824  0.2227  0.2770
 9684TIP3    H150543   2.313   5.073   1.242  1.0356  0.6605 -0.8650
 9684TIP3    H250544   2.317   5.216   1.291  1.0377  0.5781 -0.6244
 9685TIP3   OH250545   0.484   1.580  15.163  0.1855 -1.1258 -0.4021
 9685TIP3    H150546   0.525   1.557  15.247  0.8330  0.3506 -0.2836
 9685TIP3    H250547   0.552   1.565  15.098  0.0196 -1.2979 -0.5347
 9686TIP3   OH250548   3.233   0.881  14.434  0.3338  0.2898 -0.3291
 9686TIP3    H150549   3.207   0.930  14.357 -0.9232 -0.0638 -0.1447
 9686TIP3    H250550   3.329   0.875  14.427  0.2308  0.0553 -1.9745
 9687TIP3   OH250551   6.853   3.055  10.861  0.0219 -0.6571  0.1357
 9687TIP3    H150552   6.805   3.094  10.934  0.7812  1.4360 -0.4057
 9687TIP3    H250553   6.821   2.965  10.855 -3.4011  0.4386  0.1732
 9688TIP3   OH250554   1.224   4.542   4.606 -0.4330 -0.2413  0.0914
 9688TIP3    H150555   1.259   4.456   4.585 -0.8950  0.0385 -2.0600
 9688TIP3    H250556   1.299   4.601   4.596  0.1151 -0.4473  2.4809
 9689TIP3   OH250557   4.062   0.314   2.806 -0.3884 -0.5197 -0.0273
 9689TIP3    H150558   4.087   0.230   2.768  0.0197 -0.7898  0.8134
 9689TIP3    H250559   3.978   0.336   2.764 -0.2846 -1.1325 -0.5626
 9690TIP3   OH250560   5.702   3.824  10.390 -0.0637 -0.1183  0.3507
 9690TIP3    H150561   5.780   3.784  10.429  0.4187  0.0228 -0.4299
 9690TIP3    H250562   5.704   3.915  10.418 -0.6146 -0.3873  1.3099
 9691TIP3   OH250563   4.195   4.921  11.786  0.3463  0.5718  0.5858
 9691TIP3    H150564   4.113   4.950  11.747  1.0649  0.9562 -0.6926
 9691TIP3    H250565   4.242   5.002  11.805  0.0157  0.4009  2.3286
 9692TIP3   OH250566   4.727   6.067  17.091  0.1304 -0.6111 -0.2314
 9692TIP3    H150567   4.777   6.148  17.096 -0.4519 -0.2639  0.1683
 9692TIP3    H250568   4.789   5.998  17.117  0.6382 -0.3015 -0.6169
 9693TIP3   OH250569   0.348   2.916   1.516  0.0370  0.0776  0.0208
 9693TIP3    H150570   0.298   2.959   1.585 -0.5641  0.3431 -0.5708
 9693TIP3    H250571   0.311   2.950   1.434  0.4326 -0.5737 -0.4396
 9694TIP3   OH250572   0.067   2.388   4.025  0.5884 -0.8050 -0.5292
 9694TIP3    H150573   0.090   2.297   4.044  0.1114 -1.2570 -1.9358
 9694TIP3    H250574   0.068   2.432   4.110  4.0018 -1.3474 -0.1559
 9695TIP3   OH250575   5.112   0.648   2.027  0.2151  0.5521 -0.2651
 9695TIP3    H150576   5.125   0.740   2.005 -1.0705  0.7731 -0.1469
 9695TIP3    H250577   5.094   0.647   2.120  3.1589 -0.1505  0.4209
 9696TIP3   OH250578   3.347   0.276  12.985  0.0658 -0.1226 -0.1658
 9696TIP3    H150579   3.275   0.334  13.011 -0.3908 -0.3368 -0.9291
 9696TIP3    H250580   3.395   0.260  13.067 -0.7125  0.0741  0.3451
 9697TIP3   OH250581   5.784   5.727   3.704  0.0714  0.2790  0.3072
 9697TIP3    H150582   5.798   5.701   3.613 -0.8476  0.2641  0.1517
 9697TIP3    H250583   5.840   5.804   3.716 -0.1182  0.5414 -0.4043
 9698TIP3   OH250584   4.664   5.244  16.081 -0.0172 -0.0953 -0.1585
 9698TIP3    H150585   4.740   5.202  16.041 -0.5816 -0.4232 -0.9034
 9698TIP3    H250586   4.601   5.253  16.010 -0.0446  1.7258  0.0616
 9699TIP3   OH250587   4.577   4.954  16.234  0.2063 -0.6686  0.3923
 9699TIP3    H150588   4.669   4.945  16.260  0.5569  0.5649 -0.3257
 9699TIP3    H250589   4.576   4.928  16.142 -0.2996 -1.3397  0.5865
 9700TIP3   OH250590   3.606   2.803   2.086 -0.2261 -0.4666 -0.0497
 9700TIP3    H150591   3.638   2.725   2.040  2.4711  1.7281 -2.3103
 9700TIP3    H250592   3.538   2.838   2.028  0.6256  0.3490 -0.5968
 9701TIP3   OH250593   5.895   5.742  14.031 -0.4356  0.0958 -0.0488
 9701TIP3    H150594   5.886   5.739  13.935 -2.2398  0.0785  0.0803
 9701TIP3    H250595   5.897   5.650  14.057  2.2156  0.0489 -0.1777
 9702TIP3   OH250596   4.861   6.352  16.197 -0.3723  0.0933 -0.3527
 9702TIP3    H150597   4.925   6.315  16.136 -0.1293 -0.3790  0.1779
 9702TIP3    H250598   4.854   6.444  16.172  0.4880  0.1396 -0.4494
 9703TIP3   OH250599   5.650   5.064  15.666 -0.4705  0.0319 -0.1295
 9703TIP3    H150600   5.620   5.124  15.598  0.1341  0.8259  0.2809
 9703TIP3    H250601   5.670   4.983  15.620 -1.9265 -0.0721 -0.5996
 9704TIP3   OH250602   0.945   3.548   2.817  0.7022  0.0015  0.0982
 9704TIP3    H150603   1.032   3.583   2.799  0.6616  1.3796  2.1807
 9704TIP3    H250604   0.886   3.594   2.757  1.3873 -1.2254 -1.6003
 9705TIP3   OH250605   6.365   2.626   4.049 -0.5885 -0.4091 -0.5256
 9705TIP3    H150606   6.329   2.713   4.033 -1.6200 -0.8431 -0.6702
 9705TIP3    H250607   6.441   2.620   3.992 -0.5683  0.3634 -0.5875
 9706TIP3   OH250608   6.349   5.744   6.401 -0.2018 -0.3395 -0.6817
 9706TIP3    H150609   6.404   5.708   6.331  0.3980  0.8712 -0.8593
 9706TIP3    H250610   6.282   5.795   6.355  1.5066  2.3295 -0.3993
 9707TIP3   OH250611   4.336   2.801   0.529 -0.3914  0.3723 -0.7942
 9707TIP3    H150612   4.338   2.720   0.582 -3.2572 -0.5078 -1.8342
 9707TIP3    H250613   4.341   2.871   0.594  1.1700 -0.5711  0.2128
 9708TIP3   OH250614   3.394   6.516  14.240  0.0271 -0.2397 -0.4520
 9708TIP3    H150615   3.406   6.474  14.155  3.1706  2.1324 -1.3904
 9708TIP3    H250616   3.369   6.606  14.218 -0.7372 -0.0163  1.2194
 9709TIP3   OH250617   4.940   2.325  15.074  0.0379  0.2352  0.2412
 9709TIP3    H150618   4.915   2.239  15.110 -0.3897  0.8032  1.3328
 9709TIP3    H250619   4.881   2.338  15.000  0.6380 -0.7553 -0.4426
 9710TIP3   OH250620   1.568   5.692   1.072 -0.0438 -0.6275 -0.8075
 9710TIP3    H150621   1.656   5.729   1.076  0.3394 -1.5527  2.3782
 9710TIP3    H250622   1.514   5.763   1.038  1.6433  0.5862 -1.1009
 9711TIP3   OH250623   5.887   4.627   4.016  0.6010 -0.1179 -0.2677
 9711TIP3    H150624   5.895   4.581   4.100  0.3648 -0.2560 -0.3206
 9711TIP3    H250625   5.883   4.720   4.040 -0.9428 -0.2248 -0.0215
 9712TIP3   OH250626   0.382   3.908   6.047 -0.2002  0.3563  0.3017
 9712TIP3    H150627   0.386   4.003   6.053  2.3859  0.2600  1.4622
 9712TIP3    H250628   0.413   3.877   6.132 -2.0571 -1.5629  0.3636
 9713TIP3   OH250629   6.568   2.146  13.947 -0.3548  0.6678 -0.3536
 9713TIP3    H150630   6.474   2.161  13.948 -0.0741  2.9033  0.0015
 9713TIP3    H250631   6.592   2.148  13.855 -0.5193  1.3779 -0.3896
 9714TIP3   OH250632   5.277   5.636   3.986  0.4458 -0.1551 -0.4155
 9714TIP3    H150633   5.342   5.677   4.043  0.0137 -1.5463  1.1370
 9714TIP3    H250634   5.328   5.607   3.910  1.5135 -0.5041  0.4044
 9715TIP3   OH250635   6.356   1.052   3.600 -0.1106 -0.2073 -0.7164
 9715TIP3    H150636   6.439   1.053   3.553 -1.8953  1.7032 -4.2497
 9715TIP3    H250637   6.294   1.010   3.540 -2.4774  1.9727 -0.0148
 9716TIP3   OH250638   1.113   5.246   5.673  0.5232 -0.1805 -0.1497
 9716TIP3    H150639   1.126   5.156   5.643  0.8933  0.0466 -0.6909
 9716TIP3    H250640   1.195   5.270   5.716  0.3746 -0.1491  0.1178
 9717TIP3   OH250641   2.128   6.394  11.563  0.4980  0.4259  0.2570
 9717TIP3    H150642   2.190   6.435  11.503 -0.0877 -0.0015 -0.6741
 9717TIP3    H250643   2.053   6.370  11.507 -0.4177  0.7480  1.3100
 9718TIP3   OH250644   3.191   4.914   4.678  0.0681  0.3153 -0.5653
 9718TIP3    H150645   3.280   4.949   4.675 -0.2545  1.0791 -2.4861
 9718TIP3    H250646   3.142   4.978   4.730  0.6372 -0.1841  0.6281
 9719TIP3   OH250647   4.655   6.528   1.499 -0.6647 -0.7885 -0.2452
 9719TIP3    H150648   4.717   6.581   1.449  0.3817 -1.1461  0.6453
 9719TIP3    H250649   4.570   6.567   1.480  0.0761  1.3034  0.5014
 9720TIP3   OH250650   0.472   1.752   1.751 -0.1988 -0.0505 -0.4360
 9720TIP3    H150651   0.439   1.666   1.725  2.8553 -0.7367 -2.5713
 9720TIP3    H250652   0.490   1.743   1.845 -2.2810 -0.8248 -0.0502
 9721TIP3   OH250653   0.989   5.677   1.638 -0.3186  0.2243  0.7083
 9721TIP3    H150654   1.028   5.680   1.725 -2.0829  0.2374  1.5288
 9721TIP3    H250655   1.056   5.634   1.584 -0.3405 -2.6228  2.7094
 9722TIP3   OH250656   5.501   1.325  15.616  0.3032 -0.1582 -0.5303
 9722TIP3    H150657   5.535   1.413  15.597  0.6055 -0.0946  0.2413
 9722TIP3    H250658   5.407   1.332  15.604  0.2173  0.5367  0.4676
 9723TIP3   OH250659   3.461   6.598   0.662 -0.0511  0.5038  0.1127
 9723TIP3    H150660   3.543   6.624   0.620  0.2513  1.2511  1.1110
 9723TIP3    H250661   3.463   6.502   0.661  0.1244  0.5004 -1.1917
 9724TIP3   OH250662   4.180   4.510   5.484 -0.0966  0.4687 -0.3280
 9724TIP3    H150663   4.114   4.579   5.496 -0.6902 -0.2342  0.6408
 9724TIP3    H250664   4.254   4.539   5.537  0.0559  0.8678 -0.7597
 9725TIP3   OH250665   4.634   1.577   1.736 -0.1530 -0.0923 -0.3295
 9725TIP3    H150666   4.579   1.529   1.798  0.3800  0.7927  0.8762
 9725TIP3    H250667   4.705   1.517   1.715  0.6496  0.1962  1.3561
 9726TIP3   OH250668   1.198   6.573  14.637 -0.4124  0.1227 -0.4976
 9726TIP3    H150669   1.153   6.582  14.553 -0.2469  0.3313 -0.5653
 9726TIP3    H250670   1.220   6.480  14.643 -1.2924 -0.0826 -0.2343
 9727TIP3   OH250671   4.034   1.204   5.752  0.2506 -0.1776 -0.7149
 9727TIP3    H150672   4.003   1.213   5.662 -0.9054  0.9756 -0.2296
 9727TIP3    H250673   4.039   1.293   5.785  1.7257 -0.5052  0.0448
 9728TIP3   OH250674   6.791   3.875   3.650  0.0092  0.1053 -0.0710
 9728TIP3    H150675   6.696   3.875   3.638  0.1218  1.0455 -1.1137
 9728TIP3    H250676   6.807   3.803   3.712 -1.5298  1.0687  1.5405
 9729TIP3   OH250677   0.685   3.428  12.523 -0.3030  0.5054 -0.2335
 9729TIP3    H150678   0.685   3.341  12.565 -1.3325  0.7081  0.2133
 9729TIP3    H250679   0.732   3.484  12.585  0.9407  0.1594 -0.8161
 9730TIP3   OH250680   4.244   2.370  14.479 -0.3089  0.0599 -0.8249
 9730TIP3    H150681   4.334   2.398  14.461 -0.6127  1.0881 -0.8088
 9730TIP3    H250682   4.192   2.412  14.410 -1.0018  0.9889  0.2165
 9731TIP3   OH250683   2.091   2.505  10.761  0.3111  0.2946  0.0195
 9731TIP3    H150684   2.072   2.537  10.673  0.4880 -2.0314 -0.9294
 9731TIP3    H250685   2.174   2.459  10.752 -0.0017 -0.5571  1.2590
 9732TIP3   OH250686   0.864   2.607   2.840  0.4344  0.0210  0.2098
 9732TIP3    H150687   0.815   2.526   2.824  0.3120 -0.0228  0.7679
 9732TIP3    H250688   0.821   2.673   2.786 -0.2075 -0.0326  0.6415
 9733TIP3   OH250689   3.104   3.924  15.404  0.1471 -0.2644  0.5935
 9733TIP3    H150690   3.033   3.927  15.468  2.0909  0.2149  2.8548
 9733TIP3    H250691   3.133   3.832  15.404  0.6176 -0.1192  0.9585
 9734TIP3   OH250692   4.301   2.409  15.657 -0.4587  0.0699  0.6745
 9734TIP3    H150693   4.255   2.392  15.575  0.9023 -1.4380  0.1660
 9734TIP3    H250694   4.270   2.495  15.685 -2.1619 -0.0922 -0.5686
 9735TIP3   OH250695   5.094   0.088   0.749 -0.0747  0.3166  0.0410
 9735TIP3    H150696   5.068   0.047   0.666 -1.0307 -1.3509  1.1008
 9735TIP3    H250697   5.015   0.133   0.778  0.0804  0.4163  0.3080
 9736TIP3   OH250698   2.635   5.063  16.591 -0.1927  0.3724  0.6111
 9736TIP3    H150699   2.632   5.030  16.681  1.9097 -2.0329 -0.0486
 9736TIP3    H250700   2.659   5.155  16.600 -2.6483  0.9149  2.5256
 9737TIP3   OH250701   6.630   4.201  14.911  0.3401 -0.1934  0.4466
 9737TIP3    H150702   6.567   4.252  14.962  0.7959 -0.3867  1.2071
 9737TIP3    H250703   6.669   4.264  14.850  1.3115  0.5136  1.7610
 9738TIP3   OH250704   5.689   0.663   0.523 -0.3387  0.4490  0.2264
 9738TIP3    H150705   5.673   0.594   0.459 -2.0018 -0.0731  1.1494
 9738TIP3    H250706   5.780   0.688   0.509 -0.9152  1.1260 -3.0463
 9739TIP3   OH250707   1.627   1.839   0.551 -0.1562 -0.1199 -0.3469
 9739TIP3    H150708   1.625   1.788   0.632  1.4988 -0.2067 -0.3290
 9739TIP3    H250709   1.625   1.773   0.481 -1.4613 -0.0489 -0.4075
 9740TIP3   OH250710   1.785   2.007  15.924  0.4142 -0.1943  0.1765
 9740TIP3    H150711   1.823   2.092  15.903  0.0465  0.0936  0.6634
 9740TIP3    H250712   1.757   2.015  16.015 -0.5351 -0.5041 -0.0842
 9741TIP3   OH250713   2.128   6.149   1.795  0.4102 -0.4749 -0.5179
 9741TIP3    H150714   2.090   6.112   1.875  0.3970  0.0660 -0.2725
 9741TIP3    H250715   2.210   6.100   1.783  0.2675 -0.7628 -0.3413
 9742TIP3   OH250716   3.482   6.013  12.045  0.2548 -0.3912 -0.5596
 9742TIP3    H150717   3.418   5.993  12.113  1.6590 -2.1334  0.3262
 9742TIP3    H250718   3.454   5.961  11.969 -1.5936  1.9217 -1.6113
 9743TIP3   OH250719   3.970   1.819   0.492  0.5304 -0.3840  0.1206
 9743TIP3    H150720   3.932   1.780   0.414  0.6428  0.1299 -0.1927
 9743TIP3    H250721   3.896   1.854   0.541  0.5763  0.5415 -0.4477
 9744TIP3   OH250722   0.767   3.144  13.680  0.1083 -0.6767 -0.0378
 9744TIP3    H150723   0.787   3.062  13.634 -1.0707 -1.3682  0.6406
 9744TIP3    H250724   0.742   3.205  13.611  4.1853  0.2515 -0.9839
 9745TIP3   OH250725   0.107   4.807  13.726 -0.3459 -0.1387 -0.3297
 9745TIP3    H150726   0.171   4.854  13.779 -0.0044  0.6497 -1.3950
 9745TIP3    H250727   0.068   4.875  13.670 -2.2944 -0.5470  0.4403
 9746TIP3   OH250728   5.866   2.560   2.233 -0.1918 -0.5083 -0.0742
 9746TIP3    H150729   5.774   2.584   2.226 -0.5921 -2.2008 -1.4613
 9746TIP3    H250730   5.904   2.589   2.150  0.6435  0.4686  0.6162
 9747TIP3   OH250731   3.414   4.493  10.142 -0.0536 -0.0411 -0.2597
 9747TIP3    H150732   3.484   4.428  10.129  1.1903  1.1865  0.0939
 9747TIP3    H250733   3.437   4.565  10.084  0.0518  1.1967  1.2611
 9748TIP3   OH250734   3.371   2.136  14.858 -0.1980 -0.0670  0.3077
 9748TIP3    H150735   3.412   2.051  14.870 -0.2229  0.1075  1.7796
 9748TIP3    H250736   3.432   2.198  14.897 -1.0490  0.3755  0.9659
 9749TIP3   OH250737   1.756   5.754   5.459 -0.1611  0.3533 -0.7757
 9749TIP3    H150738   1.819   5.811   5.504 -2.0860  0.4147  2.1283
 9749TIP3    H250739   1.796   5.667   5.462  0.4039  0.6200 -0.2033
 9750TIP3   OH250740   0.748   2.782   5.262  0.2637  0.3494  0.1485
 9750TIP3    H150741   0.837   2.757   5.236  0.6018  1.2406  0.4159
 9750TIP3    H250742   0.748   2.877   5.259 -0.7216  0.3537  0.0467
 9751TIP3   OH250743   6.469   3.177   2.909  0.3595 -0.1585 -0.0257
 9751TIP3    H150744   6.388   3.198   2.865  0.2701 -3.2810 -1.6317
 9751TIP3    H250745   6.528   3.146   2.840  1.3949 -2.0124  1.5491
 9752TIP3   OH250746   6.305   0.881   5.341  0.1640  0.4209 -0.4035
 9752TIP3    H150747   6.236   0.922   5.288 -0.1050  0.1517 -0.2664
 9752TIP3    H250748   6.306   0.932   5.422 -1.1355 -0.6696  0.3521
 9753TIP3   OH250749   3.858   6.768   4.703  0.1415  0.5180 -0.1717
 9753TIP3    H150750   3.865   6.851   4.751 -1.9650  0.9993 -0.6139
 9753TIP3    H250751   3.845   6.793   4.612  0.6476 -0.3406 -0.4965
 9754TIP3   OH250752   2.053   1.394  12.951 -0.2708  0.2221  0.1214
 9754TIP3    H150753   2.057   1.448  13.029 -1.0520  0.4651 -0.0038
 9754TIP3    H250754   1.962   1.397  12.923 -0.0616 -0.0988 -0.6334
 9755TIP3   OH250755   1.320   4.011   4.691 -0.1960 -1.0816  0.0701
 9755TIP3    H150756   1.412   4.006   4.665  0.8021  0.7713  2.7691
 9755TIP3    H250757   1.322   4.011   4.786 -2.9333  0.0887  0.2198
 9756TIP3   OH250758   0.866   3.022   0.977  0.1071  0.1419  0.4645
 9756TIP3    H150759   0.908   3.107   0.967 -0.4220  0.3289 -0.2348
 9756TIP3    H250760   0.926   2.971   1.033  0.9010  0.6343  0.0641
 9757TIP3   OH250761   3.524   3.066  16.881  0.3925 -0.0436 -0.0849
 9757TIP3    H150762   3.498   3.157  16.864 -1.2376 -0.4184  0.2490
 9757TIP3    H250763   3.619   3.068  16.879  0.4184  1.8516  0.7590
 9758TIP3   OH250764   1.203   6.038  11.228 -0.2611  0.0333  0.9869
 9758TIP3    H150765   1.159   5.967  11.275 -1.6441  0.6510  0.6970
 9758TIP3    H250766   1.290   6.042  11.266 -0.6285 -0.8909  1.9820
 9759TIP3   OH250767   0.083   0.926  10.418 -0.2189  0.4597 -0.7184
 9759TIP3    H150768   0.051   0.836  10.427  1.7818 -0.1453  1.5465
 9759TIP3    H250769   0.148   0.921  10.348 -0.5109  0.2906 -0.9834
 9760TIP3   OH250770   6.463   4.228   2.141  0.3517 -0.7386 -0.4028
 9760TIP3    H150771   6.400   4.255   2.207  1.9008  0.6386  0.6018
 9760TIP3    H250772   6.419   4.159   2.092 -2.6168  1.3177 -0.9190
 9761TIP3   OH250773   5.098   2.585  16.351 -0.1504 -0.5049  0.1399
 9761TIP3    H150774   5.182   2.630  16.358 -0.6802  0.4072  0.7780
 9761TIP3    H250775   5.054   2.627  16.277  0.1949 -1.4182 -0.6120
 9762TIP3   OH250776   0.781   4.866  16.910  0.7188 -0.4817  0.0682
 9762TIP3    H150777   0.829   4.845  16.830  1.8497 -0.2662  0.6640
 9762TIP3    H250778   0.736   4.785  16.934  1.3705 -0.9105 -0.1269
 9763TIP3   OH250779   0.535   0.327   1.500 -0.0447  0.2101  0.5393
 9763TIP3    H150780   0.476   0.266   1.545 -1.0464 -0.6167 -1.7093
 9763TIP3    H250781   0.596   0.270   1.452  1.4846  1.0568  1.4085
 9764TIP3   OH250782   5.451   1.431   2.933  0.2985 -0.4079  0.2110
 9764TIP3    H150783   5.414   1.349   2.965  0.0088 -0.2034  0.4088
 9764TIP3    H250784   5.532   1.442   2.983 -1.3789  1.1917  2.8374
 9765TIP3   OH250785   5.864   4.838  15.813  0.6576  0.3721  0.3585
 9765TIP3    H150786   5.936   4.779  15.792  1.5966  0.9832  1.6990
 9765TIP3    H250787   5.812   4.842  15.733  1.5380 -0.8799 -0.3129
 9766TIP3   OH250788   1.217   6.306  10.715  0.5613  0.5045  0.3360
 9766TIP3    H150789   1.157   6.234  10.694  0.2193  1.4535 -2.4358
 9766TIP3    H250790   1.264   6.276  10.792 -1.0346 -1.7744  0.5509
 9767TIP3   OH250791   5.234   6.249   3.687 -0.1277 -0.2061 -0.2149
 9767TIP3    H150792   5.294   6.304   3.738 -0.0434 -0.5227  0.0349
 9767TIP3    H250793   5.150   6.294   3.693 -0.0467 -0.0710 -0.0652
 9768TIP3   OH250794   3.314   6.714   2.867 -0.2340  0.1516 -0.1343
 9768TIP3    H150795   3.312   6.764   2.948 -0.8146  0.7806 -0.5255
 9768TIP3    H250796   3.224   6.718   2.833 -0.3670 -1.4142 -0.0304
 9769TIP3   OH250797   1.741   6.647   1.566 -0.2648 -0.2983  0.4579
 9769TIP3    H150798   1.728   6.625   1.658 -2.1528 -1.7860 -0.1060
 9769TIP3    H250799   1.693   6.729   1.554 -0.6444 -0.4986  0.6184
 9770TIP3   OH250800   3.892   1.892   4.363 -0.0195 -0.1748  0.2958
 9770TIP3    H150801   3.802   1.885   4.332 -0.1170  2.6209 -0.2557
 9770TIP3    H250802   3.885   1.895   4.458 -0.3241 -1.5470  0.3401
 9771TIP3   OH250803   3.856   4.987   1.909  0.0139 -0.3345  0.2308
 9771TIP3    H150804   3.811   4.912   1.870  0.6999 -1.7492  1.9951
 9771TIP3    H250805   3.807   5.006   1.989 -0.5071  1.5429 -0.4739
 9772TIP3   OH250806   4.147   1.848   1.917 -0.2398  0.2074  0.6247
 9772TIP3    H150807   4.097   1.929   1.925  0.5195  0.9833 -1.5824
 9772TIP3    H250808   4.105   1.801   1.845  0.0890 -0.7945  1.0627
 9773TIP3   OH250809   1.493   0.254  14.192  0.0001 -0.2404 -0.0600
 9773TIP3    H150810   1.471   0.319  14.257 -0.1385 -0.5557  0.2132
 9773TIP3    H250811   1.472   0.170  14.233  0.2372 -0.4621 -0.3778
 9774TIP3   OH250812   1.363   4.078   0.858  0.2495 -0.1094 -0.4977
 9774TIP3    H150813   1.417   4.097   0.782  1.9016  1.2403  0.9401
 9774TIP3    H250814   1.420   4.093   0.933 -1.0991 -2.1035  1.0360
 9775TIP3   OH250815   6.255   2.253  13.560 -0.1077  0.4799  0.2909
 9775TIP3    H150816   6.169   2.212  13.550 -0.2375  0.5251  1.1459
 9775TIP3    H250817   6.273   2.248  13.654  1.5043 -0.8746 -0.0525
 9776TIP3   OH250818   6.751   0.516   1.976  0.5999 -0.4703 -0.6043
 9776TIP3    H150819   6.757   0.574   1.900  1.5608  0.4790  0.1612
 9776TIP3    H250820   6.672   0.545   2.022  0.8969  0.0285 -0.4010
 9777TIP3   OH250821   6.611   5.382  12.472  0.3568 -0.1114  0.1379
 9777TIP3    H150822   6.689   5.428  12.504  1.2689 -0.1115 -1.9716
 9777TIP3    H250823   6.541   5.410  12.532  1.3439  2.1836  0.3292
 9778TIP3   OH250824   1.406   0.832   3.686 -0.4766  0.3671 -0.6759
 9778TIP3    H150825   1.318   0.822   3.723 -0.2186  0.8813  0.0972
 9778TIP3    H250826   1.464   0.835   3.762  0.7610 -4.0978 -1.1326
 9779TIP3   OH250827   2.212   4.031  12.277  0.2113  0.5853  0.0570
 9779TIP3    H150828   2.287   4.089  12.275  2.4560 -2.0711  0.6243
 9779TIP3    H250829   2.212   3.995  12.366  0.5219 -2.0967 -0.9337
 9780TIP3   OH250830   6.725   2.973   5.715  0.1774  0.5044 -0.3803
 9780TIP3    H150831   6.789   2.936   5.655  0.8551 -0.3519  0.8223
 9780TIP3    H250832   6.643   2.929   5.694  0.5090 -0.1124 -0.4010
 9781TIP3   OH250833   5.904   2.508  12.190  0.1306  0.6738  0.1611
 9781TIP3    H150834   5.911   2.568  12.116 -1.2104  0.1122 -0.4449
 9781TIP3    H250835   5.908   2.421  12.151  0.1000  0.3657  0.8316
 9782TIP3   OH250836   0.888   4.789  16.661  0.5663 -0.1231  0.5499
 9782TIP3    H150837   0.916   4.709  16.616  1.4697 -0.0612  0.9740
 9782TIP3    H250838   0.893   4.857  16.594 -0.0184 -0.3877  0.2374
 9783TIP3   OH250839   3.118   4.956   0.637 -0.3031 -0.3783  0.6962
 9783TIP3    H150840   3.098   5.030   0.580  0.1648 -1.8587 -1.5118
 9783TIP3    H250841   3.146   4.996   0.719 -4.2469  1.8740  1.2278
 9784TIP3   OH250842   4.339   6.003   1.956 -0.0491  0.0792 -0.6590
 9784TIP3    H150843   4.275   6.040   2.016 -1.1600 -1.8006 -0.6024
 9784TIP3    H250844   4.390   5.942   2.009 -0.0579 -0.4933 -1.2934
 9785TIP3   OH250845   4.191   4.581  13.783 -0.0676 -0.1020 -0.0109
 9785TIP3    H150846   4.138   4.639  13.728 -0.9353 -0.8801 -0.0272
 9785TIP3    H250847   4.280   4.593  13.751 -0.6199 -1.0952 -2.1500
 9786TIP3   OH250848   5.201   5.694  11.256 -0.7513 -0.0484 -0.2397
 9786TIP3    H150849   5.108   5.677  11.245 -0.4986 -1.4949 -0.3155
 9786TIP3    H250850   5.219   5.673  11.347 -0.1179 -1.7978 -0.7374
 9787TIP3   OH250851   6.599   4.974  10.997 -1.0525  0.1172 -0.5862
 9787TIP3    H150852   6.694   4.964  10.998 -0.9912  0.5322  0.8995
 9787TIP3    H250853   6.568   4.909  10.934  0.3433  1.6648 -3.0049
 9788TIP3   OH250854   1.688   1.326   5.681 -0.6450  0.7584  0.4443
 9788TIP3    H150855   1.701   1.336   5.776 -0.4051 -0.6693  0.5777
 9788TIP3    H250856   1.644   1.242   5.671 -2.9151  1.9716 -0.5691
 9789TIP3   OH250857   5.286   5.406   1.967  0.6721 -0.5791  0.0988
 9789TIP3    H150858   5.366   5.381   2.014 -0.2568 -0.0321  2.1144
 9789TIP3    H250859   5.269   5.333   1.908  2.1614 -1.1181  0.2876
 9790TIP3   OH250860   2.437   0.511   0.544  0.3513 -0.2243  0.0304
 9790TIP3    H150861   2.421   0.440   0.606 -0.1283  0.1477  0.3367
 9790TIP3    H250862   2.530   0.530   0.554  0.3803 -0.4887  0.2899
 9791TIP3   OH250863   1.656   4.917   3.377 -0.2256  0.0253  0.1735
 9791TIP3    H150864   1.711   4.879   3.445  0.0575 -2.0529 -1.1058
 9791TIP3    H250865   1.699   4.999   3.354  0.7840 -0.2129  1.1097
 9792TIP3   OH250866   5.625   5.884  14.893 -0.2338 -0.3539 -0.7352
 9792TIP3    H150867   5.667   5.807  14.855 -2.3154 -1.4418 -0.9870
 9792TIP3    H250868   5.584   5.852  14.973  0.6340  1.0090  0.3072
 9793TIP3   OH250869   1.526   4.514  12.377 -0.1772 -0.2560 -0.2874
 9793TIP3    H150870   1.468   4.471  12.439  0.1200  1.0162  0.9089
 9793TIP3    H250871   1.467   4.557  12.314 -0.5143  0.0473  0.2345
 9794TIP3   OH250872   6.001   2.301  14.003 -0.1727 -0.0693 -0.2902
 9794TIP3    H150873   5.916   2.272  13.971  0.1643 -0.4716 -0.8508
 9794TIP3    H250874   6.057   2.224  13.995  0.3736  0.3328 -0.4055
 9795TIP3   OH250875   4.056   2.376  16.622  0.1774 -0.0833  0.5123
 9795TIP3    H150876   4.136   2.400  16.670  1.2661 -2.9651  0.3213
 9795TIP3    H250877   3.992   2.443  16.648  2.5729  2.2859  0.7518
 9796TIP3   OH250878   4.398   6.443   5.631 -0.1086 -0.1947  0.3014
 9796TIP3    H150879   4.471   6.491   5.672  0.8357 -2.1768  1.0864
 9796TIP3    H250880   4.362   6.389   5.702 -1.3393 -0.4211 -0.4678
 9797TIP3   OH250881   3.336   3.654  16.763 -0.6829 -0.5747  0.1397
 9797TIP3    H150882   3.395   3.605  16.706  1.0983  0.1512  1.2688
 9797TIP3    H250883   3.392   3.718  16.806 -2.1191 -0.4780  2.0035
 9798TIP3   OH250884   0.982   5.956   1.560 -0.0612 -0.1873 -0.3680
 9798TIP3    H150885   0.939   5.981   1.642 -1.7198  0.3848 -1.3540
 9798TIP3    H250886   0.993   5.861   1.567 -0.2137 -0.1531  0.4979
 9799TIP3   OH250887   3.709   2.346  14.399  0.1162  0.5446 -1.1392
 9799TIP3    H150888   3.628   2.338  14.449  0.8144 -0.1777 -0.0700
 9799TIP3    H250889   3.740   2.435  14.417  1.1813 -0.2083  1.0891
 9800TIP3   OH250890   0.875   1.032  15.908  0.4305 -0.5456 -0.3525
 9800TIP3    H150891   0.858   0.951  15.861 -0.4480 -0.0306 -0.9626
 9800TIP3    H250892   0.959   1.062  15.874 -0.5453  0.2135 -2.2289
 9801TIP3   OH250893   1.091   2.905   4.020  0.2257 -0.2464  0.1060
 9801TIP3    H150894   1.091   2.978   3.957  0.4991  2.0485  2.6152
 9801TIP3    H250895   1.182   2.876   4.022  0.3533  0.1349 -0.0258
 9802TIP3   OH250896   0.695   1.269  14.993  0.0659 -0.6709 -0.6988
 9802TIP3    H150897   0.778   1.247  15.036 -0.1890  1.6881  1.2043
 9802TIP3    H250898   0.635   1.198  15.019  0.8546 -1.1152 -0.0541
 9803TIP3   OH250899   3.794   6.592   2.554  0.2533  0.1687  0.1953
 9803TIP3    H150900   3.858   6.660   2.575 -0.4722  0.7545  0.5776
 9803TIP3    H250901   3.726   6.601   2.621 -0.7494  0.2580 -0.7973
 9804TIP3   OH250902   4.136   2.790  15.438 -0.3527  0.0101 -0.4242
 9804TIP3    H150903   4.130   2.755  15.527  0.8754  0.7627 -0.0147
 9804TIP3    H250904   4.211   2.744  15.400 -1.2140 -0.7195 -1.2913
 9805TIP3   OH250905   4.831   3.097  16.331 -0.4525  0.5507  0.2576
 9805TIP3    H150906   4.891   3.096  16.405  2.3784  0.4600 -1.8796
 9805TIP3    H250907   4.857   3.174  16.280 -0.6097 -0.7444 -1.8984
 9806TIP3   OH250908   6.738   2.399   1.698  0.7282  0.2381 -0.3158
 9806TIP3    H150909   6.828   2.430   1.696  1.0417 -0.6677 -0.3844
 9806TIP3    H250910   6.742   2.313   1.737  0.3593 -1.2825 -3.3050
 9807TIP3   OH250911   1.868   3.560  17.074  0.0582 -0.0979 -0.3782
 9807TIP3    H150912   1.785   3.590  17.037 -0.4289 -1.9828 -0.9145
 9807TIP3    H250913   1.935   3.608  17.025 -0.6732  0.9952 -0.3528
 9808TIP3   OH250914   0.860   1.602  13.390 -0.2012  0.0520  0.1918
 9808TIP3    H150915   0.782   1.658  13.392 -0.3316 -0.1213  0.0354
 9808TIP3    H250916   0.826   1.513  13.392 -0.0945 -0.0661 -1.5418
 9809TIP3   OH250917   3.601   2.309  15.696  0.2926 -0.0634 -0.2248
 9809TIP3    H150918   3.645   2.251  15.634  0.0734  0.9884 -1.3927
 9809TIP3    H250919   3.522   2.260  15.721  0.2641 -0.4110 -0.9537
 9810TIP3   OH250920   6.224   0.191   3.471  0.0400 -0.0830 -0.2628
 9810TIP3    H150921   6.248   0.264   3.414  0.4304 -0.8675 -1.1232
 9810TIP3    H250922   6.146   0.153   3.430 -0.1517 -0.1609  0.1674
 9811TIP3   OH250923   1.470   1.991  14.115 -0.0114 -0.0324  0.4947
 9811TIP3    H150924   1.466   1.908  14.163 -1.3585  0.2374  0.8724
 9811TIP3    H250925   1.433   1.972  14.030 -1.3085  0.4105  0.9418
 9812TIP3   OH250926   6.637   1.366   4.572 -0.2174  0.0394 -0.3285
 9812TIP3    H150927   6.541   1.360   4.571 -0.1835 -0.5028 -1.4229
 9812TIP3    H250928   6.657   1.405   4.657 -1.2917 -1.7980  0.8412
 9813TIP3   OH250929   3.876   5.057   0.645 -0.1447  0.8573  0.2660
 9813TIP3    H150930   3.955   5.070   0.698 -0.3591  0.6641  0.6381
 9813TIP3    H250931   3.813   5.017   0.705  0.0288 -0.5882 -0.4719
 9814TIP3   OH250932   1.546   6.649   1.113 -0.2021 -0.2638  0.2520
 9814TIP3    H150933   1.522   6.573   1.059 -0.7927  1.7614 -2.5805
 9814TIP3    H250934   1.631   6.676   1.079 -0.9600  1.5537 -0.2690
 9815TIP3   OH250935   6.724   2.229  12.344 -0.1566  0.5028  0.0948
 9815TIP3    H150936   6.805   2.208  12.390  2.3237  1.7205 -3.3055
 9815TIP3    H250937   6.657   2.177  12.388  2.8806 -2.5638  1.5358
 9816TIP3   OH250938   6.814   6.491  17.089  0.4987 -0.1540 -0.1317
 9816TIP3    H150939   6.874   6.516  17.159  1.6149  1.6428 -1.6718
 9816TIP3    H250940   6.822   6.559  17.023 -3.4226  0.3194 -0.3656
 9817TIP3   OH250941   5.748   1.628   5.549 -0.9871  0.1326 -0.2823
 9817TIP3    H150942   5.718   1.718   5.538 -3.1047 -0.3123  1.2246
 9817TIP3    H250943   5.722   1.604   5.638  0.7997 -1.5438 -0.1285
 9818TIP3   OH250944   4.687   6.427  12.480 -0.7908  0.1775  0.0227
 9818TIP3    H150945   4.715   6.509  12.439 -1.7151 -0.0824 -1.1860
 9818TIP3    H250946   4.601   6.409  12.442 -0.1350 -1.9409 -0.6148
 9819TIP3   OH250947   1.913   1.276   2.699 -0.3071 -0.1789 -0.0189
 9819TIP3    H150948   1.945   1.187   2.688  2.0404  0.7494 -1.6554
 9819TIP3    H250949   1.992   1.331   2.695 -1.8561  2.1791 -2.5206
 9820TIP3   OH250950   0.382   1.864   3.193  0.4199  0.1896 -0.4338
 9820TIP3    H150951   0.300   1.908   3.171  0.2040  0.0105  0.0025
 9820TIP3    H250952   0.387   1.790   3.132  0.4271  0.4031 -0.6895
 9821TIP3   OH250953   3.415   3.465  13.899 -0.1439  0.3897 -0.6990
 9821TIP3    H150954   3.460   3.414  13.832 -0.0768  0.9289 -1.0658
 9821TIP3    H250955   3.469   3.454  13.977 -1.3951 -2.0696 -0.0915
 9822TIP3   OH250956   6.368   1.400   4.572 -0.1120 -0.0645 -0.4203
 9822TIP3    H150957   6.275   1.424   4.577  0.0114  0.4708 -0.6694
 9822TIP3    H250958   6.413   1.481   4.551  0.1622 -0.7641 -2.8911
 9823TIP3   OH250959   5.170   0.576   4.818  0.2242 -0.1518 -0.3553
 9823TIP3    H150960   5.131   0.585   4.731 -1.0198 -0.6181  0.1441
 9823TIP3    H250961   5.118   0.508   4.861  0.7159  0.1941  0.8242
 9824TIP3   OH250962   6.100   1.887   2.664  0.0014 -0.4363 -0.4253
 9824TIP3    H150963   6.174   1.933   2.704 -0.3912  0.2251 -0.4528
 9824TIP3    H250964   6.095   1.921   2.575 -0.1471 -0.7088 -0.5233
 9825TIP3   OH250965   6.416   2.128   3.278  0.0801  0.0563 -0.0857
 9825TIP3    H150966   6.464   2.047   3.258  0.9599  0.5271  0.0844
 9825TIP3    H250967   6.351   2.135   3.208 -0.0560 -0.8290 -0.0657
 9826TIP3   OH250968   4.017   0.545  14.490 -0.2144 -0.3126 -0.1057
 9826TIP3    H150969   3.985   0.455  14.495  0.1938 -0.5051 -0.7988
 9826TIP3    H250970   3.938   0.598  14.483 -0.5800 -0.4183  2.3658
 9827TIP3   OH250971   6.393   5.068  14.507  0.7226  0.2585  0.1437
 9827TIP3    H150972   6.477   5.050  14.465 -0.1247 -0.8748 -1.0957
 9827TIP3    H250973   6.347   5.125  14.445 -0.1447 -0.6273 -0.0424
 9828TIP3   OH250974   1.867   5.036  14.732 -0.2834  0.0534  0.4081
 9828TIP3    H150975   1.904   4.976  14.668 -0.0061 -0.6941  1.2562
 9828TIP3    H250976   1.777   5.051  14.702 -0.1933 -0.3773 -0.0884
 9829TIP3   OH250977   3.293   0.463  13.997  0.3263 -0.5737  0.0001
 9829TIP3    H150978   3.201   0.472  14.022  0.3913 -1.3166  0.5724
 9829TIP3    H250979   3.323   0.552  13.980 -0.1822 -0.1969  0.9941
 9830TIP3   OH250980   1.686   1.800  12.778  0.2113 -0.1979 -0.0684
 9830TIP3    H150981   1.635   1.852  12.716  0.7924  0.6744  0.1711
 9830TIP3    H250982   1.713   1.723  12.728  0.7830  0.5582 -0.9552
 9831TIP3   OH250983   4.126   2.272  11.752 -0.4499  0.3520 -0.0482
 9831TIP3    H150984   4.059   2.279  11.683 -0.4283  0.3663 -0.0681
 9831TIP3    H250985   4.209   2.276  11.705 -0.4199  1.6229  0.0862
 9832TIP3   OH250986   5.275   5.953  13.700  0.2388 -0.1054  0.0410
 9832TIP3    H150987   5.186   5.930  13.726 -1.5503  1.6936 -3.7629
 9832TIP3    H250988   5.301   5.884  13.639  1.3259 -0.3830  0.7919
 9833TIP3   OH250989   1.400   6.563  13.838 -0.7393  0.1567 -0.2533
 9833TIP3    H150990   1.350   6.501  13.784 -1.3072  0.9655 -0.6683
 9833TIP3    H250991   1.422   6.513  13.917 -1.3913 -0.5010 -0.4745
 9834TIP3   OH250992   1.944   3.472   3.610  0.5468 -0.8194  0.1823
 9834TIP3    H150993   1.993   3.494   3.530  0.3192 -1.9933 -0.3061
 9834TIP3    H250994   1.854   3.458   3.579  0.3503 -0.7698  0.7310
 9835TIP3   OH250995   3.285   6.518  16.066 -0.2094  0.3835 -1.1300
 9835TIP3    H150996   3.242   6.601  16.087  0.6496  0.8919 -1.3380
 9835TIP3    H250997   3.378   6.540  16.058  0.2649 -0.8991  0.4080
 9836TIP3   OH250998   3.434   4.625  14.824  0.2727 -0.1719  0.0462
 9836TIP3    H150999   3.526   4.611  14.846  0.5453  0.4631 -0.6471
 9836TIP3    H251000   3.405   4.542  14.787  0.5845 -0.3553  0.2136
 9837TIP3   OH251001   3.683   3.530   4.574  0.0377 -0.0468  0.3982
 9837TIP3    H151002   3.635   3.611   4.559 -0.2812 -0.5721 -1.7302
 9837TIP3    H251003   3.617   3.469   4.607 -0.5743 -0.4475 -1.4638
 9838TIP3   OH251004   5.204   4.931  11.003  0.4163  0.3992 -0.0623
 9838TIP3    H151005   5.216   4.973  10.918  0.0028  1.2443  0.2883
 9838TIP3    H251006   5.280   4.873  11.011  0.7360  0.6940 -0.7767
 9839TIP3   OH251007   1.475   0.363   6.304  0.1906 -0.2226  0.5734
 9839TIP3    H151008   1.468   0.427   6.374 -1.4743  0.3341 -0.0575
 9839TIP3    H251009   1.558   0.383   6.261 -0.4055  1.7317  0.2220
 9840TIP3   OH251010   0.759   6.825  12.362 -0.4847  0.5703  0.3331
 9840TIP3    H151011   0.770   6.744  12.411  1.5808 -0.6165 -1.8628
 9840TIP3    H251012   0.690   6.873  12.409 -1.7423 -2.3794  1.7562
 9841TIP3   OH251013   4.450   6.310  13.826  0.4960 -0.0336  0.0515
 9841TIP3    H151014   4.511   6.379  13.853  2.3944 -1.7556  0.3202
 9841TIP3    H251015   4.363   6.351  13.836  1.4984  2.0610  0.9077
 9842TIP3   OH251016   0.222   5.757  11.600  0.1598  0.1894  0.0585
 9842TIP3    H151017   0.300   5.812  11.598 -0.3059  0.9309  1.0899
 9842TIP3    H251018   0.224   5.709  11.517  0.4478  1.9732 -1.0328
 9843TIP3   OH251019   4.457   1.636   2.631 -0.2876  0.1089 -0.4729
 9843TIP3    H151020   4.537   1.619   2.681 -0.2670 -1.9245 -1.1318
 9843TIP3    H251021   4.483   1.700   2.565  0.3788  0.6574  0.2981
 9844TIP3   OH251022   2.562   5.952   2.406  0.3916  0.6218 -0.2311
 9844TIP3    H151023   2.653   5.931   2.383 -0.1402 -0.6075 -1.3714
 9844TIP3    H251024   2.520   5.968   2.322 -0.9325 -0.9386  0.0850
 9845TIP3   OH251025   3.141   5.297   3.441 -0.5616  0.2018 -0.2283
 9845TIP3    H151026   3.230   5.311   3.473 -0.7574  0.8178  0.0573
 9845TIP3    H251027   3.139   5.204   3.417 -0.3395 -0.2473  1.3486
 9846TIP3   OH251028   5.078   4.240  15.634 -0.3406 -0.3638  0.0700
 9846TIP3    H151029   5.044   4.256  15.546 -0.1060  0.4200  0.1140
 9846TIP3    H251030   5.053   4.318  15.684 -0.0387 -0.5810  0.5660
 9847TIP3   OH251031   2.164   0.541  13.778 -0.9323 -0.3698  0.7454
 9847TIP3    H151032   2.070   0.524  13.777 -0.8150 -1.0929  1.0590
 9847TIP3    H251033   2.204   0.457  13.751 -0.3605 -0.2637  1.2334
 9848TIP3   OH251034   5.051   6.328   5.255  0.5363  0.2576 -0.8802
 9848TIP3    H151035   5.029   6.254   5.311  0.3724  0.2702 -0.9286
 9848TIP3    H251036   4.983   6.393   5.272  2.6254  1.9334  1.9149
 9849TIP3   OH251037   3.975   5.418  11.359 -0.4654  0.3853 -0.6013
 9849TIP3    H151038   4.018   5.492  11.315 -1.3090  1.2162 -0.0642
 9849TIP3    H251039   3.883   5.445  11.367 -0.6932 -0.5373  0.0020
 9850TIP3   OH251040   4.238   2.140  15.741 -0.0328 -0.5842  0.0589
 9850TIP3    H151041   4.255   2.225  15.702  0.8476 -0.5937  0.4044
 9850TIP3    H251042   4.262   2.077  15.673 -1.8607 -0.5700 -0.6620
 9851TIP3   OH251043   2.967   5.652   1.384  0.6533  0.6604 -0.5229
 9851TIP3    H151044   3.009   5.728   1.343 -1.0843  1.7965 -0.2920
 9851TIP3    H251045   3.033   5.617   1.443  0.9514  3.0494  0.6557
 9852TIP3   OH251046   2.511   5.422   5.520 -0.1405  0.4309 -0.2175
 9852TIP3    H151047   2.516   5.505   5.568  1.2132  0.6592 -0.7084
 9852TIP3    H251048   2.500   5.448   5.429 -1.8911  0.0085 -0.1695
 9853TIP3   OH251049   2.012   5.600   1.675 -0.1836 -0.5732  0.2802
 9853TIP3    H151050   2.059   5.660   1.732 -1.4316 -0.7660  1.5506
 9853TIP3    H251051   1.921   5.630   1.677 -0.8133 -2.4007  0.8364
 9854TIP3   OH251052   6.329   1.116  12.429 -0.3036  0.1102 -0.2852
 9854TIP3    H151053   6.288   1.045  12.380 -1.8492  0.9241 -0.2565
 9854TIP3    H251054   6.263   1.186  12.430  1.3417  1.7704 -0.7886
 9855TIP3   OH251055   1.143   5.049   6.013 -0.3455  0.2366 -0.0501
 9855TIP3    H151056   1.152   5.029   5.920 -2.6603 -1.5694  0.0097
 9855TIP3    H251057   1.080   5.121   6.017 -0.1142  0.4311  0.1157
 9856TIP3   OH251058   3.922   3.713  15.476  0.0685  0.0125 -0.7840
 9856TIP3    H151059   3.829   3.730  15.486  0.1621 -0.1985  0.6127
 9856TIP3    H251060   3.946   3.757  15.394 -1.2059  0.2223 -1.0629
 9857TIP3   OH251061   2.179   3.532   1.780  0.0449 -0.2076 -0.0891
 9857TIP3    H151062   2.179   3.609   1.837  1.2972 -1.0770  1.1355
 9857TIP3    H251063   2.267   3.495   1.789 -0.4003 -1.5570 -0.9728
 9858TIP3   OH251064   3.421   0.531   6.266  0.5213 -0.2475 -0.5222
 9858TIP3    H151065   3.351   0.522   6.330  1.3552  0.4207  0.5177
 9858TIP3    H251066   3.441   0.442   6.239  0.2902 -0.5562  0.2931
 9859TIP3   OH251067   6.701   1.562   5.234 -0.2485  0.3264  0.1514
 9859TIP3    H151068   6.785   1.526   5.263 -0.6433  0.5866  1.6880
 9859TIP3    H251069   6.636   1.519   5.290 -1.2860 -0.6691 -1.7074
 9860TIP3   OH251070   6.792   0.572   1.470 -0.5042 -0.1138  0.0255
 9860TIP3    H151071   6.845   0.651   1.460  0.0553 -0.7282 -2.7169
 9860TIP3    H251072   6.852   0.500   1.447 -2.3484 -0.8572 -2.9099
 9861TIP3   OH251073   5.729   4.805   4.296  0.1429 -0.2743  0.5387
 9861TIP3    H151074   5.723   4.736   4.362  0.8275  1.1022  2.1026
 9861TIP3    H251075   5.821   4.830   4.294 -0.2912  1.4972  0.9951
 9862TIP3   OH251076   2.413   6.780   4.955  0.7577 -0.4440 -0.6729
 9862TIP3    H151077   2.374   6.700   4.920  0.1595 -0.1451 -0.7150
 9862TIP3    H251078   2.368   6.794   5.039  0.6077  0.0253 -0.8264
 9863TIP3   OH251079   3.750   3.485   0.950 -0.2770 -0.4124 -0.6758
 9863TIP3    H151080   3.728   3.566   0.997 -0.2012 -0.6180 -0.2861
 9863TIP3    H251081   3.825   3.508   0.897 -1.3949  0.2970 -2.0069
 9864TIP3   OH251082   4.743   6.131   3.231 -0.7273  0.2559 -0.1992
 9864TIP3    H151083   4.744   6.041   3.197  0.4639  0.2256 -0.1299
 9864TIP3    H251084   4.728   6.120   3.325 -0.6565  0.1285 -0.2022
 9865TIP3   OH251085   4.171   0.434   6.298 -0.0520 -0.0818 -0.5155
 9865TIP3    H151086   4.083   0.396   6.304 -0.1651  0.1095 -0.9601
 9865TIP3    H251087   4.220   0.390   6.368 -0.0386 -1.4533 -1.3390
 9866TIP3   OH251088   6.801   0.132  12.444 -0.1675  0.2882  0.2107
 9866TIP3    H151089   6.781   0.226  12.448  1.8724  0.7459  0.9790
 9866TIP3    H251090   6.779   0.099  12.530  0.9175  0.5031  0.5910
 9867TIP3   OH251091   0.064   5.102   5.280 -0.2077  0.8870  0.0969
 9867TIP3    H151092   0.073   5.177   5.222 -1.5841  1.1829  0.2267
 9867TIP3    H251093  -0.003   5.130   5.344  0.5494  0.2086  1.2203
 9868TIP3   OH251094   0.143   0.484   3.999  0.4495  0.2129  0.2004
 9868TIP3    H151095   0.232   0.500   3.965  0.4193  0.1896  0.1100
 9868TIP3    H251096   0.105   0.572   4.007  0.2245  0.1776 -0.4574
 9869TIP3   OH251097   3.609   0.303  17.080  0.2926  0.5182  0.0264
 9869TIP3    H151098   3.584   0.381  17.031 -0.0858  0.5229  0.2199
 9869TIP3    H251099   3.610   0.232  17.016 -4.1369 -0.3283  0.5783
 9870TIP3   OH251100   0.420   6.672   2.269  0.0615  1.0850 -0.4616
 9870TIP3    H151101   0.352   6.615   2.232  0.9544 -1.8505  1.9497
 9870TIP3    H251102   0.496   6.659   2.212 -0.4226  1.8461 -1.3099
 9871TIP3   OH251103   0.977   4.343   5.203 -0.0575  0.2705  0.0871
 9871TIP3    H151104   1.032   4.376   5.273 -2.5496  0.8911  1.9164
 9871TIP3    H251105   1.006   4.390   5.125  0.5246  2.2079  1.4150
 9872TIP3   OH251106   2.813   6.513  15.816 -0.3563  0.0549 -1.0965
 9872TIP3    H151107   2.851   6.543  15.898 -1.2902 -0.3803 -0.4917
 9872TIP3    H251108   2.848   6.425  15.803 -0.2617  0.0977 -1.1299
 9873TIP3   OH251109   4.079   1.431  13.542  0.6515 -0.0532  0.3832
 9873TIP3    H151110   4.000   1.377  13.529  1.9559 -2.1086  0.5715
 9873TIP3    H251111   4.055   1.492  13.612 -0.7902 -0.5828  0.3847
 9874TIP3   OH251112   5.172   4.862  10.212  0.4916 -0.2324 -0.2983
 9874TIP3    H151113   5.246   4.825  10.163  0.6044 -1.4651  0.7419
 9874TIP3    H251114   5.095   4.838  10.161  0.4363 -3.1365  0.9318
 9875TIP3   OH251115   3.460   6.689   4.738  0.2334  0.0382 -0.1807
 9875TIP3    H151116   3.472   6.639   4.657 -0.5041 -1.1184  0.4003
 9875TIP3    H251117   3.505   6.637   4.805 -0.3237  0.2734  0.3872
 9876TIP3   OH251118   3.553   5.785  15.889 -0.0147 -0.2693 -0.3590
 9876TIP3    H151119   3.560   5.765  15.983 -1.2798 -0.8177 -0.3492
 9876TIP3    H251120   3.506   5.868  15.886 -0.3513 -0.4645 -0.5118
 9877TIP3   OH251121   3.752   4.220  14.135 -0.3545  0.0486  0.2235
 9877TIP3    H151122   3.807   4.156  14.090  0.4986 -0.2732  1.6809
 9877TIP3    H251123   3.694   4.253  14.066 -0.0762 -1.4702 -0.8023
 9878TIP3   OH251124   3.551   0.940   0.796  0.1037 -0.0566  0.3161
 9878TIP3    H151125   3.607   0.873   0.834 -1.1304 -2.4215 -1.7287
 9878TIP3    H251126   3.606   0.984   0.731  0.2617 -0.7655 -0.0337
 9879TIP3   OH251127   3.392   6.137   5.512  0.5990  0.1730 -0.0138
 9879TIP3    H151128   3.347   6.053   5.525 -0.8715  0.7362 -1.2365
 9879TIP3    H251129   3.440   6.126   5.430 -0.8076  1.0015 -0.9737
 9880TIP3   OH251130   2.786   0.207  11.707  0.2013  0.0397 -0.5515
 9880TIP3    H151131   2.782   0.259  11.627 -0.3029  1.2920  0.2545
 9880TIP3    H251132   2.811   0.270  11.775  0.1073 -0.8931  0.3646
 9881TIP3   OH251133   0.678   5.390   6.173 -0.0260  0.2406  0.4427
 9881TIP3    H151134   0.705   5.474   6.211 -0.9788  0.9108 -0.3154
 9881TIP3    H251135   0.754   5.333   6.186  1.0149  1.4886  0.1134
 9882TIP3   OH251136   5.100   0.733   5.098  0.5226  0.6500 -0.0532
 9882TIP3    H151137   5.167   0.690   5.151  0.7067  0.7353 -0.2161
 9882TIP3    H251138   5.027   0.747   5.159  0.4572  0.1014 -0.0004
 9883TIP3   OH251139   0.854   1.268  11.403  0.4761 -0.5671 -0.1493
 9883TIP3    H151140   0.838   1.181  11.440  2.1643 -0.9621 -0.2755
 9883TIP3    H251141   0.785   1.279  11.338 -2.1217 -0.1619  2.4727
 9884TIP3   OH251142   0.198   0.894   1.812 -0.4619 -1.1237  0.4278
 9884TIP3    H151143   0.285   0.855   1.822  0.1763  0.0118 -0.5602
 9884TIP3    H251144   0.138   0.823   1.836  0.7229 -1.7843  1.5869
 9885TIP3   OH251145   2.449   5.615  16.295 -0.3971  0.0649 -0.0299
 9885TIP3    H151146   2.391   5.641  16.367  0.5516  4.0081 -0.4691
 9885TIP3    H251147   2.435   5.681  16.227  0.4702 -2.1673 -2.5507
 9886TIP3   OH251148   0.846   4.860   0.469 -0.0981  0.6893 -0.5141
 9886TIP3    H151149   0.937   4.837   0.486 -0.3798  1.1811  1.9902
 9886TIP3    H251150   0.842   4.955   0.476 -0.6281  0.7862 -1.7512
 9887TIP3   OH251151   4.382   4.238  15.995  0.0201  0.3725 -0.0670
 9887TIP3    H151152   4.305   4.255  15.941  0.1345  1.0082 -0.0404
 9887TIP3    H251153   4.407   4.324  16.029 -0.0253  0.0005  0.9638
 9888TIP3   OH251154   5.774   0.224  15.482  0.7808  0.6597  0.1779
 9888TIP3    H151155   5.713   0.152  15.496  2.2785 -1.2978 -2.4153
 9888TIP3    H251156   5.820   0.233  15.566 -0.6431 -0.1775  1.0895
 9889TIP3   OH251157   5.645   1.098  15.778  0.2931 -0.3160  0.0298
 9889TIP3    H151158   5.681   1.076  15.693  1.1952  0.4446  0.1860
 9889TIP3    H251159   5.584   1.170  15.761 -0.4026 -0.9380 -0.1139
 9890TIP3   OH251160   3.700   1.075   0.545 -0.4075 -0.1961  0.4583
 9890TIP3    H151161   3.716   0.986   0.514 -1.2231  0.7373 -3.0533
 9890TIP3    H251162   3.787   1.113   0.555 -0.0454 -1.3447  2.1311
 9891TIP3   OH251163   6.119   1.052   3.052 -0.4378 -0.2447  0.0099
 9891TIP3    H151164   6.120   1.139   3.011  2.4187  0.7096  1.7412
 9891TIP3    H251165   6.029   1.040   3.082 -1.1451  1.6356 -1.1908
 9892TIP3   OH251166   3.300   0.836   1.488 -0.3377 -0.6967  0.0686
 9892TIP3    H151167   3.216   0.864   1.524 -1.4155 -1.0889 -2.0117
 9892TIP3    H251168   3.350   0.807   1.564 -1.9028 -0.0365  1.4082
 9893TIP3   OH251169   0.336   4.189  16.227 -0.4730 -0.0823  0.2926
 9893TIP3    H151170   0.241   4.186  16.221 -0.4453  0.4970 -0.6603
 9893TIP3    H251171   0.367   4.153  16.144  0.1787 -1.7920  1.2432
 9894TIP3   OH251172   2.184   2.409  12.629  0.2033  0.9059 -0.4122
 9894TIP3    H151173   2.101   2.384  12.590 -0.6741  1.5884  0.9253
 9894TIP3    H251174   2.234   2.328  12.634  0.1527  0.7143 -2.3985
 9895TIP3   OH251175   2.362   2.779   5.093  0.2852 -0.2329  0.0354
 9895TIP3    H151176   2.394   2.788   5.183 -0.1761  1.2993  0.0812
 9895TIP3    H251177   2.418   2.837   5.042  0.0929 -0.5590 -0.5560
 9896TIP3   OH251178   0.550   3.665   5.984 -0.3379 -1.0401 -0.3234
 9896TIP3    H151179   0.502   3.742   6.015 -1.1441 -0.0321 -3.6676
 9896TIP3    H251180   0.583   3.624   6.064 -2.2630  1.1826  1.7918
 9897TIP3   OH251181   6.391   2.397  11.294  0.1257  0.3768  0.1405
 9897TIP3    H151182   6.349   2.349  11.223 -1.5458  0.3006  1.1183
 9897TIP3    H251183   6.428   2.474  11.252 -2.6068  1.4051 -0.5870
 9898TIP3   OH251184   0.744   3.438  16.285 -0.0719 -0.1307 -0.1592
 9898TIP3    H151185   0.681   3.423  16.356  0.2915  2.0131  0.6964
 9898TIP3    H251186   0.710   3.514  16.238 -0.0380 -1.2075 -2.0428
 9899TIP3   OH251187   1.872   1.972  12.921  0.2022 -0.3315  0.4236
 9899TIP3    H151188   1.841   2.047  12.972  0.3500 -0.8493  1.2878
 9899TIP3    H251189   1.793   1.930  12.888  0.1278  1.4624 -1.9968
 9900TIP3   OH251190   5.095   6.422  14.881 -0.3999  0.4638 -0.2935
 9900TIP3    H151191   5.072   6.464  14.798 -1.2439 -0.3213 -0.4617
 9900TIP3    H251192   5.012   6.416  14.929 -0.4503 -1.6677 -0.5762
 9901TIP3   OH251193   1.573   2.531  13.786 -0.4185 -0.1002 -0.0595
 9901TIP3    H151194   1.614   2.458  13.832  0.9415 -0.7200 -2.1579
 9901TIP3    H251195   1.572   2.505  13.694  0.2563  2.5505 -0.9096
 9902TIP3   OH251196   3.257   4.178  13.428  0.4359  0.1741  0.0898
 9902TIP3    H151197   3.346   4.162  13.461 -0.0800 -1.8674  0.6787
 9902TIP3    H251198   3.240   4.103  13.370 -1.1322  0.1531  0.5232
 9903TIP3   OH251199   0.870   4.222   3.682  0.0931 -0.5230 -0.4444
 9903TIP3    H151200   0.897   4.170   3.606  0.6126  1.9560 -2.0632
 9903TIP3    H251201   0.942   4.284   3.696 -0.7071  0.1143  1.0816
 9904TIP3   OH251202   2.668   5.217   4.830 -0.0953 -0.0242 -0.2512
 9904TIP3    H151203   2.622   5.298   4.807  0.9385  0.5955 -0.1735
 9904TIP3    H251204   2.598   5.153   4.844 -0.9935  1.2057  1.0869
 9905TIP3   OH251205   1.414   3.893  12.791 -0.1625  0.7012  0.1879
 9905TIP3    H151206   1.357   3.876  12.717  0.1909  0.1041  0.0408
 9905TIP3    H251207   1.364   3.952  12.848 -1.1451 -0.2389  0.3335
 9906TIP3   OH251208   4.616   4.487  11.478  0.0701 -0.4228 -0.4494
 9906TIP3    H151209   4.572   4.571  11.469 -1.8292 -0.9563  2.3835
 9906TIP3    H251210   4.563   4.426  11.427 -0.7216 -0.4906  0.4167
 9907TIP3   OH251211   3.421   1.353   2.207 -0.2635 -0.6906  0.1645
 9907TIP3    H151212   3.491   1.396   2.256 -0.3530  0.0625 -0.3512
 9907TIP3    H251213   3.401   1.274   2.257  1.7030 -1.5052 -0.2416
 9908TIP3   OH251214   5.129   3.432  11.696  0.1550  0.4294  0.0958
 9908TIP3    H151215   5.207   3.487  11.686  0.9884 -0.7571 -0.2630
 9908TIP3    H251216   5.146   3.357  11.639 -0.0437 -1.1553  2.0108
 9909TIP3   OH251217   4.992   5.027  10.724  0.0275  0.0140  0.3316
 9909TIP3    H151218   5.081   5.023  10.690 -0.0839  1.7542 -0.2982
 9909TIP3    H251219   4.948   5.090  10.667 -1.0847  0.5861  1.7547
 9910TIP3   OH251220   6.449   1.697  11.489  0.7934  0.1409  0.1611
 9910TIP3    H151221   6.444   1.693  11.393  1.5374  0.4807  0.0995
 9910TIP3    H251222   6.393   1.626  11.519  0.5803  0.0098 -0.5301
 9911TIP3   OH251223   2.675   2.713   3.772 -0.4007  0.3139  0.5278
 9911TIP3    H151224   2.733   2.637   3.775 -2.2040 -1.1183  0.6566
 9911TIP3    H251225   2.588   2.677   3.756 -1.8399  2.0451  3.4777
 9912TIP3   OH251226   1.596   0.640  14.029 -0.1451 -0.1537 -0.1109
 9912TIP3    H151227   1.570   0.695  14.103 -0.0203  0.5839 -0.5981
 9912TIP3    H251228   1.513   0.616  13.987 -0.1365  1.9373 -1.4795
 9913TIP3   OH251229   6.602   4.873   1.254  0.2993  0.1639  0.7217
 9913TIP3    H151230   6.509   4.889   1.237  0.6536  0.7317 -0.8519
 9913TIP3    H251231   6.620   4.921   1.335 -1.0153 -0.8825  1.6791
 9914TIP3   OH251232   0.934   2.384   0.698  0.7415 -0.3799  0.3299
 9914TIP3    H151233   1.025   2.355   0.710  0.8944 -1.1207 -2.0932
 9914TIP3    H251234   0.936   2.436   0.617 -0.9005  0.1393  0.5862
 9915TIP3   OH251235   0.166   5.116  13.079  0.4324 -0.1690  0.3602
 9915TIP3    H151236   0.220   5.196  13.076 -1.0229  0.8731  0.6438
 9915TIP3    H251237   0.210   5.060  13.143  0.1365  1.4843  2.1121
 9916TIP3   OH251238   2.532   4.126   0.992  0.2511  0.1081 -0.5035
 9916TIP3    H151239   2.467   4.183   0.950  0.4878 -0.7016 -2.0240
 9916TIP3    H251240   2.531   4.046   0.940  1.4416 -0.4752  0.3326
 9917TIP3   OH251241   5.265   1.441  12.241  0.0548 -0.2912  0.1045
 9917TIP3    H151242   5.295   1.531  12.231 -0.8806  0.0846  0.5426
 9917TIP3    H251243   5.201   1.429  12.171 -0.3578 -0.3711  0.4895
 9918TIP3   OH251244   2.556   0.559  10.613 -0.0583  0.2406  0.0898
 9918TIP3    H151245   2.596   0.604  10.687  1.1678 -0.0717 -0.3604
 9918TIP3    H251246   2.497   0.624  10.574  1.4985  1.3984 -0.4077
 9919TIP3   OH251247   6.071   3.934  11.726  0.2587  0.2170 -0.3985
 9919TIP3    H151248   6.076   3.852  11.675 -0.7400 -0.3640  0.4091
 9919TIP3    H251249   6.026   3.995  11.668 -1.9246 -0.7748  0.1405
 9920TIP3   OH251250   1.898   6.138  15.566  0.1403  0.1485  0.5437
 9920TIP3    H151251   1.978   6.156  15.615 -0.3462  0.5206  1.2159
 9920TIP3    H251252   1.894   6.042  15.560 -0.4712  0.0213  2.4127
 9921TIP3   OH251253   6.523   0.900  11.869  0.5291 -0.2202 -0.0662
 9921TIP3    H151254   6.602   0.858  11.905 -0.6563 -0.9803  1.8051
 9921TIP3    H251255   6.497   0.843  11.797  0.7491 -0.9091  0.3877
 9922TIP3   OH251256   1.718   0.476   2.714  0.0202 -0.5176  0.0558
 9922TIP3    H151257   1.798   0.444   2.670  0.3129  0.2913 -0.0185
 9922TIP3    H251258   1.746   0.494   2.803  0.1575  0.5942 -0.1891
 9923TIP3   OH251259   3.832   5.255  15.517  0.6354  0.2354 -0.2717
 9923TIP3    H151260   3.835   5.275  15.610  1.1077  0.9354 -0.4317
 9923TIP3    H251261   3.769   5.183  15.510  0.4842  0.2775  0.5631
 9924TIP3   OH251262   6.790   3.048  11.493  0.5250  0.8607 -0.6239
 9924TIP3    H151263   6.713   3.104  11.487 -0.9742 -1.0847 -0.5376
 9924TIP3    H251264   6.775   2.980  11.428  2.0718  0.3007 -0.4368
 9925TIP3   OH251265   5.542   3.412  17.063 -0.2069  0.1412  0.4941
 9925TIP3    H151266   5.480   3.427  17.134 -0.5693  2.0975 -0.1848
 9925TIP3    H251267   5.502   3.343  17.010 -0.8745  0.0525  1.1032
 9926TIP3   OH251268   2.127   1.032   2.096 -0.0282  0.0418 -0.7894
 9926TIP3    H151269   2.126   1.118   2.055 -0.3600  0.5897  0.3263
 9926TIP3    H251270   2.110   1.049   2.189 -1.5741 -1.3400 -0.7588
 9927TIP3   OH251271   2.494   0.195  14.560 -0.2110  0.5908 -0.1081
 9927TIP3    H151272   2.485   0.102  14.582 -2.4701  0.8162  0.1057
 9927TIP3    H251273   2.510   0.237  14.645  0.0407  0.4785 -0.0997
 9928TIP3   OH251274   3.932   1.542  11.577 -1.0514  0.5838 -0.2238
 9928TIP3    H151275   4.007   1.595  11.604  0.1763 -0.7848 -0.8193
 9928TIP3    H251276   3.872   1.547  11.652 -0.0392  1.0886  0.5917
 9929TIP3   OH251277   5.196   1.072  11.333 -0.0218 -0.7200 -0.2083
 9929TIP3    H151278   5.256   1.028  11.272 -0.2364 -0.6218 -0.4940
 9929TIP3    H251279   5.201   1.164  11.308  0.5814 -0.5455  0.5220
 9930TIP3   OH251280   2.353   3.537   6.044  0.6139  0.3079  0.0481
 9930TIP3    H151281   2.402   3.500   5.971  2.0743 -1.3602  1.7478
 9930TIP3    H251282   2.410   3.604   6.081  1.0396 -0.6246  1.1529
 9931TIP3   OH251283   5.671   0.038   4.235  0.3564 -0.2453  0.3553
 9931TIP3    H151284   5.753  -0.011   4.231  0.6888  0.1836  1.5167
 9931TIP3    H251285   5.651   0.043   4.328  0.3281  1.8097  0.2798
 9932TIP3   OH251286   0.917   0.074   0.962 -0.7289 -0.1744 -0.0788
 9932TIP3    H151287   0.920   0.117   0.877 -1.2822 -0.6829 -0.3582
 9932TIP3    H251288   0.913   0.147   1.025  0.4478  0.2207 -0.4292
 9933TIP3   OH251289   3.999   2.069   1.857 -0.3656  0.1011 -0.2630
 9933TIP3    H151290   4.023   2.080   1.765 -1.5100  1.7470 -0.4080
 9933TIP3    H251291   4.060   2.126   1.905  2.4207 -3.1598  0.4393
 9934TIP3   OH251292   4.655   4.219  13.430  0.8641  0.2024 -0.6584
 9934TIP3    H151293   4.732   4.277  13.425  1.5887 -0.7245 -0.4675
 9934TIP3    H251294   4.688   4.139  13.470 -0.2760 -0.1121 -0.3204
 9935TIP3   OH251295   6.713   4.584   5.592 -0.2547  0.3010  0.7421
 9935TIP3    H151296   6.791   4.630   5.624 -0.5198  0.4728  1.1563
 9935TIP3    H251297   6.690   4.524   5.663 -0.2846 -0.0159  0.4667
 9936TIP3   OH251298   2.256   1.995  10.923 -0.1001  0.2902  0.0573
 9936TIP3    H151299   2.334   1.973  10.871 -0.7782  1.4667 -1.5340
 9936TIP3    H251300   2.199   1.919  10.915  0.3358 -0.0559  0.1791
 9937TIP3   OH251301   3.152   1.630   5.186 -0.4620  0.1443 -0.4333
 9937TIP3    H151302   3.236   1.648   5.228 -0.9509  0.2539  0.5282
 9937TIP3    H251303   3.090   1.620   5.259 -1.1017 -0.8962 -1.0889
 9938TIP3   OH251304   6.126   4.737  13.297 -0.0795  0.0777 -0.2074
 9938TIP3    H151305   6.122   4.645  13.325  1.5299  0.3093  0.8860
 9938TIP3    H251306   6.073   4.739  13.217 -2.0836 -1.2969  0.9965
 9939TIP3   OH251307   1.107   4.951  14.123 -0.4711 -0.0214  0.1186
 9939TIP3    H151308   1.019   4.985  14.104 -0.8999 -0.6357  0.9098
 9939TIP3    H251309   1.162   5.029  14.126 -1.2707  0.5344  1.0223
 9940TIP3   OH251310   4.258   0.894  15.265  0.0565 -0.2257 -0.2533
 9940TIP3    H151311   4.232   0.986  15.258  1.3129  0.0879 -1.1181
 9940TIP3    H251312   4.247   0.873  15.358 -0.0167  0.8641  0.0013
 9941TIP3   OH251313   3.792   4.846   5.770  0.0444 -0.0168 -0.0454
 9941TIP3    H151314   3.767   4.920   5.826  0.2319 -0.0116  0.0337
 9941TIP3    H251315   3.710   4.802   5.749  0.1972 -2.7789  3.9935
 9942TIP3   OH251316   3.937   6.225  13.968 -0.4083 -0.0084 -0.3382
 9942TIP3    H151317   3.876   6.283  13.922 -0.8557  0.3893  0.7146
 9942TIP3    H251318   4.023   6.262  13.951 -0.1356 -1.7299 -3.5755
 9943TIP3   OH251319   5.963   6.490  10.851 -0.0215 -0.2058 -0.5362
 9943TIP3    H151320   5.913   6.413  10.822 -0.6950  0.5907 -1.5862
 9943TIP3    H251321   5.958   6.550  10.776  1.9301  0.1874 -0.3899
 9944TIP3   OH251322   4.920   6.842   4.528  0.2626 -0.8524 -0.0792
 9944TIP3    H151323   4.830   6.851   4.496  0.1948 -0.7315  0.1454
 9944TIP3    H251324   4.910   6.816   4.619  0.4509 -2.8029 -0.5686
 9945TIP3   OH251325   6.487   4.964  13.199 -0.1462 -0.5063 -0.4900
 9945TIP3    H151326   6.512   4.933  13.286  0.6128  0.3473 -0.3939
 9945TIP3    H251327   6.442   4.889  13.160  0.5020 -1.2903  0.2075
 9946TIP3   OH251328   3.010   4.068  11.873 -0.6916  0.0054 -0.4221
 9946TIP3    H151329   2.974   4.008  11.807  0.9733 -0.2080 -1.2104
 9946TIP3    H251330   2.990   4.155  11.839 -1.0191 -0.1085 -0.5237
 9947TIP3   OH251331   6.509   1.189  11.824 -0.3172  0.1892 -0.1259
 9947TIP3    H151332   6.514   1.093  11.820 -0.4381  0.1987 -0.5737
 9947TIP3    H251333   6.423   1.210  11.786  0.1936  0.5380 -1.1208
 9948TIP3   OH251334   5.000   5.064   0.104  0.1856 -0.1930 -0.0584
 9948TIP3    H151335   5.071   5.125   0.085 -0.3390  0.2732 -0.5470
 9948TIP3    H251336   5.027   4.982   0.064  0.6207 -0.1165  0.0815
 9949TIP3   OH251337   6.480   1.413   5.314 -0.4469 -0.2361  0.5336
 9949TIP3    H151338   6.430   1.368   5.245  0.2570  0.1412 -0.2414
 9949TIP3    H251339   6.505   1.343   5.375  0.0763 -0.8158 -0.3117
 9950TIP3   OH251340   3.997   4.841  12.434 -0.3464  0.3505  1.0492
 9950TIP3    H151341   3.941   4.903  12.387 -0.2851 -0.4056 -0.0456
 9950TIP3    H251342   4.060   4.896  12.481  0.5845  1.1165 -0.9893
 9951TIP3   OH251343   1.512   0.673   6.210 -0.1777 -0.3248 -0.3733
 9951TIP3    H151344   1.570   0.605   6.175 -0.6409 -1.0457  0.2156
 9951TIP3    H251345   1.473   0.632   6.288 -0.0419  0.8243  0.3128
 9952TIP3   OH251346   5.867   2.766   4.761 -0.8492  0.5760  0.9125
 9952TIP3    H151347   5.836   2.680   4.735 -0.9081  0.1734  2.2397
 9952TIP3    H251348   5.787   2.814   4.784 -0.8309  1.0567  0.0261
 9953TIP3   OH251349   6.477   1.206   5.500 -0.1935  0.4934  0.1393
 9953TIP3    H151350   6.407   1.147   5.527 -0.5202  0.1463 -1.3442
 9953TIP3    H251351   6.550   1.149   5.478 -0.3584  0.6359 -0.8638
 9954TIP3   OH251352   1.938   4.847  14.489  0.0006  0.0395 -0.0183
 9954TIP3    H151353   1.859   4.843  14.434 -0.7641  2.4094  0.7623
 9954TIP3    H251354   1.977   4.760  14.482 -2.7012 -1.2501 -0.4046
 9955TIP3   OH251355   0.069   0.212  11.177 -0.5405  0.1757  0.0889
 9955TIP3    H151356   0.011   0.218  11.253 -0.1030  0.3135  0.4223
 9955TIP3    H251357   0.015   0.235  11.102 -1.6275 -2.2778  0.0143
 9956TIP3   OH251358   1.494   6.387   2.668 -0.0675  0.7010 -0.6576
 9956TIP3    H151359   1.429   6.348   2.727 -0.7495  1.9945 -0.5200
 9956TIP3    H251360   1.517   6.316   2.608 -1.0661  0.0098 -0.2544
 9957TIP3   OH251361   6.733   0.731  15.572  0.5695  0.1241 -0.7007
 9957TIP3    H151362   6.801   0.792  15.544 -0.2543  0.4954 -1.9765
 9957TIP3    H251363   6.670   0.785  15.619 -0.7017  0.5173 -2.7471
 9958TIP3   OH251364   2.314   2.689   0.485  0.4445  0.4591 -1.0763
 9958TIP3    H151365   2.313   2.595   0.464 -3.7671 -0.0784  0.6075
 9958TIP3    H251366   2.351   2.692   0.574 -1.7256 -0.0538 -0.0848
 9959TIP3   OH251367   2.284   4.863  16.863  0.7399  0.0320 -0.4181
 9959TIP3    H151368   2.206   4.841  16.912  1.2151  0.1848  0.4223
 9959TIP3    H251369   2.260   4.850  16.771  0.6565 -2.9594 -0.0664
 9960TIP3   OH251370   6.096   1.547  14.459 -0.2460  0.1217  0.0505
 9960TIP3    H151371   6.096   1.643  14.464 -1.3570  0.0982  0.8205
 9960TIP3    H251372   6.034   1.519  14.527  1.4944 -1.2344  1.1570
 9961TIP3   OH251373   4.313   3.752  13.972 -0.2145  0.4270 -0.4037
 9961TIP3    H151374   4.397   3.705  13.976  0.1859  1.1068 -0.7100
 9961TIP3    H251375   4.336   3.844  13.983 -1.0778  0.5031  0.9759
 9962TIP3   OH251376   0.338   1.163  13.281 -0.5925  0.0011  0.3442
 9962TIP3    H151377   0.366   1.241  13.233 -0.5550 -0.9698 -1.3035
 9962TIP3    H251378   0.249   1.147  13.250 -0.1891 -1.2583 -0.2655
 9963TIP3   OH251379   3.936   4.329   0.610  0.7527 -0.1742  0.7033
 9963TIP3    H151380   4.014   4.312   0.663  1.3260 -0.5219 -0.2421
 9963TIP3    H251381   3.874   4.369   0.672  1.7859  0.4121  1.3950
 9964TIP3   OH251382   2.699   4.618   2.604  0.0359 -0.2869  0.5361
 9964TIP3    H151383   2.617   4.611   2.653  0.8986  1.5433  2.3748
 9964TIP3    H251384   2.743   4.535   2.621 -0.6143 -0.5340  1.0887
 9965TIP3   OH251385   5.441   4.075  12.811 -0.1820  0.1360  0.0022
 9965TIP3    H151386   5.430   4.079  12.716 -0.0527 -1.7729 -0.1289
 9965TIP3    H251387   5.516   4.132  12.829 -0.3697  0.7206 -0.9968
 9966TIP3   OH251388   6.757   3.905   6.274 -0.3404  0.0702 -0.2124
 9966TIP3    H151389   6.738   3.821   6.318 -1.3444  0.2117 -0.3444
 9966TIP3    H251390   6.790   3.962   6.344  0.7770 -0.5531 -0.2043
 9967TIP3   OH251391   6.280   3.554   5.138  0.0060 -0.1632  0.2337
 9967TIP3    H151392   6.207   3.508   5.179 -0.1018  1.1668  1.6259
 9967TIP3    H251393   6.241   3.598   5.062  0.2046 -2.6181 -1.4130
 9968TIP3   OH251394   6.331   1.380  12.983 -0.1252  0.2377  0.0017
 9968TIP3    H151395   6.407   1.332  13.017  0.4477  0.7580 -0.5145
 9968TIP3    H251396   6.258   1.353  13.039  0.2660 -0.9239 -0.0256
 9969TIP3   OH251397   5.967   2.587   4.141  0.3495  0.2892  0.5030
 9969TIP3    H151398   5.892   2.646   4.144  0.7287  0.8978 -1.0337
 9969TIP3    H251399   5.970   2.557   4.050  3.3389  2.1309 -0.1385
 9970TIP3   OH251400   5.285   0.582   3.507  0.1792  0.7093 -0.4710
 9970TIP3    H151401   5.209   0.586   3.565  0.6947  0.9038  0.2126
 9970TIP3    H251402   5.298   0.489   3.490 -1.1033  0.7470 -1.8223
 9971TIP3   OH251403   1.408   5.775  11.789  0.1607  0.5261  0.4895
 9971TIP3    H151404   1.503   5.769  11.803  0.0578 -0.7468  0.6740
 9971TIP3    H251405   1.395   5.743  11.700 -0.1588  0.1665  0.6643
 9972TIP3   OH251406   5.790   2.771  12.498 -0.1055  0.5137 -0.4932
 9972TIP3    H151407   5.768   2.692  12.449 -0.5348 -0.5475  1.3211
 9972TIP3    H251408   5.713   2.789  12.551  1.1458  0.2073  1.5422
 9973TIP3   OH251409   0.586   5.121   4.062  0.1610  0.1290 -0.0624
 9973TIP3    H151410   0.598   5.164   3.977 -0.4180 -0.6740 -0.5640
 9973TIP3    H251411   0.513   5.061   4.049 -1.9182  2.0369  1.8025
 9974TIP3   OH251412   4.029   3.210  13.557 -0.3357  0.0771 -0.3003
 9974TIP3    H151413   4.070   3.225  13.472 -2.7228 -0.4392 -1.6416
 9974TIP3    H251414   4.016   3.116  13.561 -1.4574  0.2276 -0.0068
 9975TIP3   OH251415   6.029   2.494  15.072 -0.1231 -0.2566  0.2459
 9975TIP3    H151416   6.063   2.431  15.136 -0.8153 -0.3529  0.5300
 9975TIP3    H251417   5.960   2.446  15.027  1.5646 -0.8378 -1.9109
 9976TIP3   OH251418   5.658   5.588  16.817 -0.0689 -0.1876 -0.0097
 9976TIP3    H151419   5.751   5.587  16.792 -0.7223  0.2684 -2.8234
 9976TIP3    H251420   5.648   5.515  16.878  1.9018 -0.9729 -0.5599
 9977TIP3   OH251421   0.309   3.405   2.031  0.2149 -0.5515  0.2658
 9977TIP3    H151422   0.290   3.497   2.051 -0.2693 -0.9980  1.9479
 9977TIP3    H251423   0.405   3.400   2.031  0.2571  0.0136 -0.2387
 9978TIP3   OH251424   0.141   2.058  14.310  0.1049 -0.2716  0.6057
 9978TIP3    H151425   0.235   2.062  14.293 -0.0406 -0.6093 -0.3617
 9978TIP3    H251426   0.101   2.082  14.227 -0.6632 -0.3469  0.9488
 9979TIP3   OH251427   2.474   1.979   1.623  0.5219  0.1809  0.1197
 9979TIP3    H151428   2.492   2.007   1.533  0.2690 -0.6389 -0.1939
 9979TIP3    H251429   2.465   2.061   1.672 -1.3313  0.7027 -0.9858
 9980TIP3   OH251430   5.875   5.952  14.202  0.4973  0.3457  0.4886
 9980TIP3    H151431   5.873   5.883  14.136  0.7103 -0.5459  1.3877
 9980TIP3    H251432   5.968   5.960  14.226  0.3881  0.4635  0.8818
 9981TIP3   OH251433   1.255   1.355   3.650 -0.1728  0.1819 -0.2563
 9981TIP3    H151434   1.324   1.417   3.628 -0.3065  0.6632  0.6452
 9981TIP3    H251435   1.219   1.386   3.733 -0.9893 -0.4702 -0.3428
 9982TIP3   OH251436   4.068   6.424  13.379  0.0662  0.1760 -0.1533
 9982TIP3    H151437   4.013   6.499  13.405 -1.6362 -1.0268 -0.1227
 9982TIP3    H251438   4.157   6.457  13.388 -0.6056  2.0192  0.4558
 9983TIP3   OH251439   3.212   1.985  15.543 -0.4395  0.4639  0.4186
 9983TIP3    H151440   3.301   1.992  15.578 -0.3804  0.1501  0.3269
 9983TIP3    H251441   3.183   1.897  15.567 -0.9247  0.7543  0.9191
 9984TIP3   OH251442   4.549   0.386  16.650 -0.4355  0.1186  0.1149
 9984TIP3    H151443   4.527   0.292  16.655 -0.3700  0.0406 -0.9600
 9984TIP3    H251444   4.642   0.389  16.671 -0.1222 -0.2194 -1.1574
 9985TIP3   OH251445   3.418   5.770  13.461  0.5015  0.2304  0.0998
 9985TIP3    H151446   3.404   5.860  13.490  1.6576  0.9932 -1.5602
 9985TIP3    H251447   3.383   5.767  13.372  0.2743 -1.0349  0.2073
 9986TIP3   OH251448   5.066   6.330   0.149  0.3298  0.3820  0.1454
 9986TIP3    H151449   5.058   6.333   0.244  1.1575  2.5842  0.1973
 9986TIP3    H251450   5.133   6.265   0.132  1.5562  1.3139  1.2164
 9987TIP3   OH251451   3.576   3.178   2.338  0.1841  0.1756  0.1087
 9987TIP3    H151452   3.560   3.192   2.431  1.0689 -0.4643  0.3740
 9987TIP3    H251453   3.571   3.083   2.327 -0.0709  0.2619 -0.5242
 9988TIP3   OH251454   0.273   3.737  11.411 -0.3639 -0.5805 -0.7198
 9988TIP3    H151455   0.269   3.694  11.326  2.3943 -1.8515 -0.3103
 9988TIP3    H251456   0.282   3.830  11.391 -0.5753 -0.7808 -1.7792
 9989TIP3   OH251457   2.596   2.385   2.206  0.4560  0.0532  0.1629
 9989TIP3    H151458   2.617   2.308   2.153  1.4846 -1.2593  2.3243
 9989TIP3    H251459   2.644   2.371   2.287  0.0855  2.6644  0.9172
 9990TIP3   OH251460   2.955   4.230  12.717 -0.3180 -0.0205 -0.4438
 9990TIP3    H151461   2.885   4.189  12.667 -0.4459  0.7719 -0.9354
 9990TIP3    H251462   3.028   4.168  12.711 -1.4230 -1.5877  1.3771
 9991TIP3   OH251463   4.320   5.369  14.869 -0.3779  0.1955 -0.0241
 9991TIP3    H151464   4.278   5.372  14.955 -0.5425  1.3062 -0.1189
 9991TIP3    H251465   4.372   5.289  14.870 -2.9052 -1.5796 -0.1136
 9992TIP3   OH251466   0.949   3.557  15.860 -0.4848  0.3482 -0.2301
 9992TIP3    H151467   1.018   3.582  15.799 -1.4604 -0.8997 -1.9335
 9992TIP3    H251468   0.873   3.610  15.836 -0.6938  0.3414  0.3723
 9993TIP3   OH251469   0.340   4.684   5.701  0.3071  0.0993 -0.0040
 9993TIP3    H151470   0.391   4.610   5.668  0.7257 -0.4116  1.7309
 9993TIP3    H251471   0.253   4.672   5.663  0.9808  0.0567 -1.6387
 9994TIP3   OH251472   2.114   2.282   5.216 -0.0808  0.7974 -0.0426
 9994TIP3    H151473   2.044   2.281   5.152  1.4999  2.3073 -1.8959
 9994TIP3    H251474   2.192   2.311   5.168  1.7170 -0.2067  2.0359
 9995TIP3   OH251475   4.541   3.822   1.316  0.1852  0.3575 -0.9040
 9995TIP3    H151476   4.625   3.820   1.363 -0.5691  0.8684  0.5268
 9995TIP3    H251477   4.565   3.818   1.224  1.6809 -2.3384 -0.5028
 9996TIP3   OH251478   5.803   1.713   5.846  0.2398  0.5340 -0.4211
 9996TIP3    H151479   5.818   1.631   5.895 -1.1481  0.6398  0.2441
 9996TIP3    H251480   5.891   1.742   5.821  1.1177  0.6693  2.3601
 9997TIP3   OH251481   3.389   4.868  15.211 -0.4286 -0.2497  0.2625
 9997TIP3    H151482   3.375   4.856  15.117  0.7162  1.4764 -0.1825
 9997TIP3    H251483   3.404   4.962  15.221  1.0817 -0.6117  1.9312
 9998TIP3   OH251484   4.387   3.394  14.017  0.3654  0.4076 -0.5196
 9998TIP3    H151485   4.454   3.461  14.005 -0.8717  1.8185  0.1133
 9998TIP3    H251486   4.432   3.312  14.000  2.2229  1.3131 -0.2302
 9999TIP3   OH251487   2.672   4.099   1.719 -0.2477 -0.2993 -0.1398
 9999TIP3    H151488   2.703   4.050   1.642  0.6841  0.7407 -0.4626
 9999TIP3    H251489   2.589   4.138   1.691 -0.1800 -0.3645 -0.4338
10000TIP3   OH251490   1.722   1.475  13.457  0.0150 -0.2909  0.7799
10000TIP3    H151491   1.683   1.455  13.372  0.3666 -1.5479  0.8829
10000TIP3    H251492   1.782   1.547  13.440 -1.3514  0.7782  0.3687
10001TIP3   OH251493   2.621   1.567  13.027 -0.6383  0.4515 -0.0126
10001TIP3    H151494   2.635   1.654  12.990  0.6448  0.0870 -0.4416
10001TIP3    H251495   2.660   1.572  13.115  2.6869 -0.5968 -1.2494
10002TIP3   OH251496   2.235   0.850   5.784  0.0560 -0.3226  0.1165
10002TIP3    H151497   2.187   0.807   5.855  0.4614  0.1423  0.6859
10002TIP3    H251498   2.199   0.939   5.783  0.6670 -0.0679  0.3279
10003TIP3   OH251499   3.616   1.377  15.948 -0.2893 -0.5513  0.2955
10003TIP3    H151500   3.560   1.307  15.980 -1.0133 -0.4594 -0.7196
10003TIP3    H251501   3.597   1.451  16.006 -1.0510 -0.5927  0.1110
10004TIP3   OH251502   5.163   0.306   1.155 -0.1914  1.0285  0.0860
10004TIP3    H151503   5.255   0.312   1.131  0.2967  1.8815  1.9714
10004TIP3    H251504   5.147   0.384   1.208 -1.7237  0.3762  0.6520
10005TIP3   OH251505   0.742   2.273   5.065  0.3422 -0.4583  0.0636
10005TIP3    H151506   0.748   2.362   5.028  0.1409 -0.1648  0.7226
10005TIP3    H251507   0.711   2.219   4.992  1.4344 -0.1801 -0.6353
10006TIP3   OH251508   0.006   0.136  13.085  0.8898 -0.3556 -0.1731
10006TIP3    H151509   0.084   0.087  13.112 -0.0678 -1.7506  0.2098
10006TIP3    H251510   0.006   0.130  12.989  1.3703 -0.1622 -0.1850
10007TIP3   OH251511   0.276   4.297   1.946 -0.0173  0.0731 -0.1268
10007TIP3    H151512   0.338   4.365   1.921  0.3356  0.7015  2.1865
10007TIP3    H251513   0.191   4.329   1.916 -0.2184  2.7431  2.7455
10008TIP3   OH251514   2.742   0.156  15.795 -0.2335  0.1427 -0.1658
10008TIP3    H151515   2.825   0.118  15.766 -0.1924  1.1171 -1.4012
10008TIP3    H251516   2.732   0.125  15.885  0.5507 -1.4958 -0.5916
10009TIP3   OH251517   4.800   4.958  15.396 -0.2639  0.2624 -0.6805
10009TIP3    H151518   4.816   4.881  15.341 -0.1755 -0.7135  0.6709
10009TIP3    H251519   4.732   4.931  15.457  0.4136  0.9310  0.4126
10010TIP3   OH251520   5.731   6.031  15.757  0.7456  0.1302  0.3933
10010TIP3    H151521   5.712   5.938  15.745 -1.0411  0.5440 -0.2997
10010TIP3    H251522   5.707   6.049  15.848  0.6980  0.0035  0.4060
10011TIP3   OH251523   1.765   2.240  11.295 -0.2648 -0.4135  0.1156
10011TIP3    H151524   1.692   2.204  11.245 -1.3284 -0.2005  1.4668
10011TIP3    H251525   1.760   2.197  11.380  0.8854 -0.0158  0.4065
10012TIP3   OH251526   4.592   6.360  14.374  0.3657  0.4104  0.2414
10012TIP3    H151527   4.635   6.366  14.289 -0.2690  1.0288 -0.0406
10012TIP3    H251528   4.656   6.316  14.430  1.0296  0.5586 -0.3926
10013TIP3   OH251529   1.628   5.333  16.537 -0.0052  0.1228  0.5539
10013TIP3    H151530   1.638   5.300  16.627 -1.2615  1.1967  1.1196
10013TIP3    H251531   1.565   5.274  16.497  1.0547 -0.7616  0.1306
10014TIP3   OH251532   1.290   0.931  16.669  0.3858  0.6547 -0.4442
10014TIP3    H151533   1.212   0.977  16.637 -2.6315 -2.1421  2.1083
10014TIP3    H251534   1.318   0.981  16.745 -1.1770 -0.0640  0.6736
10015TIP3   OH251535   0.710   5.729  16.220 -0.1746 -0.2630  0.2972
10015TIP3    H151536   0.735   5.640  16.195  0.3009 -0.0414 -0.0290
10015TIP3    H251537   0.690   5.772  16.137  1.7442  0.5816  0.2204
10016TIP3   OH251538   4.648   4.404   1.212  0.1159 -0.1595 -0.2641
10016TIP3    H151539   4.680   4.316   1.194  2.0181  0.4743 -0.2236
10016TIP3    H251540   4.710   4.439   1.277 -1.1482  0.8829  0.4223
10017TIP3   OH251541   4.269   6.186  12.428 -0.0467 -0.1020 -0.0824
10017TIP3    H151542   4.255   6.187  12.333  0.4289  1.6689 -0.1732
10017TIP3    H251543   4.181   6.182  12.465 -0.3283  0.7279 -0.6241
10018TIP3   OH251544   2.277   2.993   5.486  0.2067  0.2983 -0.7638
10018TIP3    H151545   2.231   2.909   5.482 -0.7905  0.7900 -0.1125
10018TIP3    H251546   2.307   3.008   5.397  0.4591 -0.7871 -0.8690
10019TIP3   OH251547   1.332   2.019  17.022 -0.2450  0.0806 -0.3068
10019TIP3    H151548   1.274   1.945  17.004 -0.4795 -0.6149  2.7408
10019TIP3    H251549   1.282   2.096  16.998 -0.2992 -0.6252 -2.7986
10020TIP3   OH251550   4.237   3.863   2.064  0.1458 -0.0637  0.2194
10020TIP3    H151551   4.231   3.771   2.090 -0.9693  0.2284  1.0862
10020TIP3    H251552   4.281   3.861   1.979  2.0785 -1.2297  1.1582
10021TIP3   OH251553   1.798   3.596  11.511  0.2023  0.1051 -0.1848
10021TIP3    H151554   1.781   3.602  11.417 -2.5258 -1.2501  0.1319
10021TIP3    H251555   1.738   3.659  11.551  3.0959  2.5584  0.6288
10022TIP3   OH251556   1.990   1.979   5.584  0.2227  0.0252  0.2105
10022TIP3    H151557   2.032   2.031   5.652 -0.0501 -1.8754  1.9512
10022TIP3    H251558   1.896   1.992   5.599  0.1449  0.7014 -0.7544
10023TIP3   OH251559   5.396   5.352  15.352  0.7386 -0.2896 -0.1477
10023TIP3    H151560   5.405   5.393  15.266  1.9272  1.8987  0.9233
10023TIP3    H251561   5.303   5.360  15.373  1.0396  3.2419  0.5220
10024TIP3   OH251562   0.918   1.506  11.546 -0.5201 -0.2326  0.4691
10024TIP3    H151563   0.872   1.576  11.500  0.1155 -0.7840 -1.0909
10024TIP3    H251564   0.903   1.428  11.492 -0.5132 -1.1246  1.7094
10025TIP3   OH251565   2.893   2.542   3.875  0.6175  0.5835  0.4520
10025TIP3    H151566   2.942   2.515   3.797 -0.1964 -1.0389  0.4643
10025TIP3    H251567   2.930   2.489   3.946  0.5376  1.1706  0.9370
10026TIP3   OH251568   3.850   3.243  11.049 -0.0382 -0.5004  0.5350
10026TIP3    H151569   3.871   3.335  11.067  0.2144 -0.3022 -0.6477
10026TIP3    H251570   3.759   3.233  11.076 -0.9448  0.8431 -1.7195
10027TIP3   OH251571   0.728   3.056  12.247  0.1358 -0.0143 -0.4353
10027TIP3    H151572   0.715   2.975  12.197  0.2137 -0.3884  0.1432
10027TIP3    H251573   0.670   3.048  12.323  0.7706  0.0832  0.0708
10028TIP3   OH251574   2.139   0.369   4.498  0.7941  0.5456 -0.0548
10028TIP3    H151575   2.135   0.449   4.550  0.6682 -0.5017  1.6218
10028TIP3    H251576   2.069   0.378   4.433  0.1011  1.3345  0.7919
10029TIP3   OH251577   2.692   2.640   5.323 -0.2664  0.1021 -0.0259
10029TIP3    H151578   2.777   2.671   5.292 -0.3749 -0.4630 -0.9279
10029TIP3    H251579   2.701   2.637   5.419  1.2522 -1.4142 -0.1804
10030TIP3   OH251580   2.432   4.130  15.109 -0.0914 -0.0039 -0.4036
10030TIP3    H151581   2.527   4.134  15.097 -0.2736  0.0146 -2.2055
10030TIP3    H251582   2.399   4.202  15.056 -1.0817  0.6017  0.9906
10031TIP3   OH251583   4.745   3.672   5.182  0.3398  0.0212  0.9016
10031TIP3    H151584   4.701   3.598   5.141  2.2028 -0.5124 -0.2396
10031TIP3    H251585   4.720   3.747   5.128 -0.3095 -0.0122  1.1412
10032TIP3   OH251586   4.834   3.836   1.338  0.1243  0.9140 -0.3453
10032TIP3    H151587   4.848   3.887   1.258  2.2029  0.9377 -0.0408
10032TIP3    H251588   4.898   3.872   1.400  1.7128 -1.9707 -0.1192
10033TIP3   OH251589   0.762   5.620  11.380  0.7664 -0.5035  0.1754
10033TIP3    H151590   0.828   5.602  11.313 -0.2889  0.3494 -1.1305
10033TIP3    H251591   0.732   5.709  11.362 -0.6419 -0.8125  0.8224
10034TIP3   OH251592   6.353   6.626   6.603 -0.3894  0.0212 -0.4168
10034TIP3    H151593   6.311   6.699   6.650  1.7527  0.2125  1.4173
10034TIP3    H251594   6.401   6.668   6.532  0.9105  0.5048  0.6868
10035TIP3   OH251595   1.014   6.834   2.464 -0.6351 -0.4475  0.4633
10035TIP3    H151596   0.969   6.777   2.526 -0.5659 -1.2122 -0.1763
10035TIP3    H251597   1.070   6.890   2.519  0.5494 -2.0993  1.0220
10036TIP3   OH251598   5.445   3.651   2.742  0.0165  0.2465  0.2730
10036TIP3    H151599   5.434   3.738   2.704  0.1529  0.8065  1.5090
10036TIP3    H251600   5.494   3.602   2.675 -0.9366  0.7859 -0.8711
10037TIP3   OH251601   3.200   4.952   0.358  0.1141 -0.6216 -0.3988
10037TIP3    H151602   3.292   4.926   0.368  0.9779  2.2200 -0.1654
10037TIP3    H251603   3.167   4.959   0.448 -0.4747 -1.9734 -0.4895
10038TIP3   OH251604   3.358   6.022  13.978  0.1657 -0.6693 -0.0898
10038TIP3    H151605   3.351   5.939  14.026 -0.0442 -1.1812 -0.9963
10038TIP3    H251606   3.269   6.042  13.952 -0.2126  1.1995  2.3190
10039TIP3   OH251607   1.999   2.109  16.321 -0.2720 -0.4500 -0.0272
10039TIP3    H151608   2.092   2.092  16.310 -0.6839 -1.6467 -2.5085
10039TIP3    H251609   1.961   2.023  16.338 -1.0306 -0.1265 -0.0389
10040TIP3   OH251610   3.428   2.959  16.161  0.4463 -0.3124  0.2135
10040TIP3    H151611   3.490   2.990  16.227  1.1421 -2.1522  0.4918
10040TIP3    H251612   3.479   2.900  16.106 -0.6496 -0.4935 -0.6463
10041TIP3   OH251613   5.290   3.418  12.074  0.0553  0.2281  0.4912
10041TIP3    H151614   5.326   3.505  12.091 -0.1373  0.7594 -1.5494
10041TIP3    H251615   5.256   3.389  12.159 -0.6033  2.4697  1.0584
10042TIP3   OH251616   5.135   0.628  13.470 -0.4411 -0.0169  0.0138
10042TIP3    H151617   5.220   0.585  13.481 -0.4747 -0.3984 -1.0504
10042TIP3    H251618   5.157   0.719  13.451  0.1033 -0.8387 -4.7544
10043TIP3   OH251619   5.603   0.752  15.923 -1.4012  0.2726  0.2794
10043TIP3    H151620   5.653   0.738  15.842 -0.9088 -0.2642  0.6682
10043TIP3    H251621   5.534   0.687  15.919 -1.9231  0.8377 -0.1301
10044TIP3   OH251622   5.807   5.410   1.147  0.0546  0.0096 -0.1935
10044TIP3    H151623   5.724   5.458   1.150 -0.5094 -0.9251 -0.5366
10044TIP3    H251624   5.837   5.410   1.238  0.2273  1.2585 -0.2282
10045TIP3   OH251625   3.772   4.913  13.223  0.1009  0.0079 -0.4075
10045TIP3    H151626   3.781   4.849  13.151 -0.8580 -3.0135  1.9300
10045TIP3    H251627   3.862   4.938  13.244  0.6449 -1.6573 -0.5778
10046TIP3   OH251628   0.529   4.739   1.890  0.3152  0.4073  0.2815
10046TIP3    H151629   0.487   4.820   1.922  1.1144  1.0524 -0.2690
10046TIP3    H251630   0.456   4.685   1.861 -0.1794  1.3738 -0.3462
10047TIP3   OH251631   3.494   5.781  16.460  0.0490 -0.1533 -0.3886
10047TIP3    H151632   3.535   5.695  16.473 -1.6045 -1.2727 -2.0498
10047TIP3    H251633   3.400   5.764  16.473 -0.2996  1.4464 -0.6644
10048TIP3   OH251634   2.822   4.791  11.384 -0.0755  0.7686 -0.1351
10048TIP3    H151635   2.772   4.758  11.459 -1.1144  3.6920  0.5811
10048TIP3    H251636   2.781   4.749  11.308 -1.9526  1.1140  0.6325
10049TIP3   OH251637   6.849   4.876   2.659 -0.1259  0.2654  0.0670
10049TIP3    H151638   6.872   4.933   2.733  0.5670  1.9886 -1.4009
10049TIP3    H251639   6.761   4.903   2.635 -0.2430 -0.1006  0.0812
10050TIP3   OH251640   4.739   1.538  11.666 -0.0914 -0.3095  0.1674
10050TIP3    H151641   4.756   1.501  11.579 -0.4788  0.2385 -0.1469
10050TIP3    H251642   4.725   1.631  11.650  1.4889  0.1065  1.0291
10051TIP3   OH251643   4.873   3.156   1.628  0.4186  0.3600 -0.0601
10051TIP3    H151644   4.892   3.084   1.688  0.5050  0.7863  0.4375
10051TIP3    H251645   4.785   3.186   1.654  0.0550 -0.0622 -0.7771
10052TIP3   OH251646   0.724   2.153   3.671  0.1276 -0.0457  0.4040
10052TIP3    H151647   0.668   2.226   3.644 -1.1535 -0.7328  1.1040
10052TIP3    H251648   0.768   2.185   3.750 -0.6384 -0.0903  0.8699
10053TIP3   OH251649   4.843   6.026  14.836 -0.5075 -0.1895  0.4235
10053TIP3    H151650   4.795   6.098  14.877  0.6671  0.4339  0.7529
10053TIP3    H251651   4.792   5.948  14.857 -1.8469  0.5313  0.0051
10054TIP3   OH251652   4.535   6.030   4.028  0.1698 -0.3421 -0.1914
10054TIP3    H151653   4.549   6.064   4.117  1.2630  0.4918 -0.6647
10054TIP3    H251654   4.623   6.012   3.995 -0.2477 -0.9798 -0.9931
10055TIP3   OH251655   0.392   2.713  14.786  0.2054  0.1119 -0.1336
10055TIP3    H151656   0.406   2.662  14.706  0.6073 -0.1910  0.1274
10055TIP3    H251657   0.296   2.722  14.791  0.1192 -0.6439 -0.1732
10056TIP3   OH251658   4.732   6.802  14.091 -0.4735 -0.0971 -0.2260
10056TIP3    H151659   4.789   6.763  14.157 -1.1119  1.7458  1.4892
10056TIP3    H251660   4.699   6.727  14.041  0.1638 -1.5425  1.4274
10057TIP3   OH251661   0.091   4.915  16.337 -0.5181 -0.2019  0.6609
10057TIP3    H151662   0.055   4.833  16.304  0.2208 -0.4523  0.4768
10057TIP3    H251663   0.084   4.975  16.262  1.9271 -0.9952 -0.2908
10058TIP3   OH251664   1.715   0.112  15.478  0.7153 -0.1669 -0.6342
10058TIP3    H151665   1.759   0.196  15.483  0.7849 -0.2242 -0.2803
10058TIP3    H251666   1.761   0.056  15.541 -0.8783  0.2242  0.9723
10059TIP3   OH251667   6.010   0.505  16.694  0.3862  0.4743  0.0941
10059TIP3    H151668   5.943   0.446  16.662  0.8660 -0.5178  0.8717
10059TIP3    H251669   5.987   0.520  16.786  1.0186  0.4176  0.2663
10060TIP3   OH251670   0.916   2.967   3.354  0.1845  0.3345 -0.0269
10060TIP3    H151671   0.822   2.971   3.369  0.1387  2.2183 -0.4731
10060TIP3    H251672   0.926   2.912   3.276 -0.4972 -0.2089  0.2617
10061TIP3   OH251673   6.741   2.636   0.658 -0.5348  0.7620 -0.4303
10061TIP3    H151674   6.832   2.653   0.682 -0.6807  2.6542 -1.0955
10061TIP3    H251675   6.722   2.551   0.699  1.2320  0.7456  0.4829
10062TIP3   OH251676   3.716   0.228  15.625 -0.3692  0.8186 -0.3641
10062TIP3    H151677   3.709   0.323  15.635  0.5817  0.8864 -0.2837
10062TIP3    H251678   3.739   0.195  15.712  0.9850  0.7005 -0.7445
10063TIP3   OH251679   2.809   6.373   5.634 -0.1052  0.1406 -0.3061
10063TIP3    H151680   2.888   6.423   5.654  0.7870 -1.4414  0.3215
10063TIP3    H251681   2.772   6.350   5.719 -0.2548 -0.6025 -0.5574
10064TIP3   OH251682   0.672   4.575   0.423 -0.1681  0.3658  0.1513
10064TIP3    H151683   0.643   4.586   0.333  0.2547 -2.0844 -0.3593
10064TIP3    H251684   0.619   4.502   0.457  1.1999 -0.2134  1.1410
10065TIP3   OH251685   4.533   3.313   1.055  0.2395  0.0905 -0.1826
10065TIP3    H151686   4.575   3.231   1.081 -0.2177 -0.7106 -1.8534
10065TIP3    H251687   4.563   3.328   0.965 -3.7526 -1.1059 -1.9332
10066TIP3   OH251688   4.314   0.081  14.044  0.3972 -0.3275 -0.4417
10066TIP3    H151689   4.247   0.087  13.976 -0.0905  0.3588  0.0839
10066TIP3    H251690   4.383   0.027  14.005  0.4057  0.5590 -1.7002
10067TIP3   OH251691   6.341   4.164  12.942  0.3734 -0.1100 -0.1605
10067TIP3    H151692   6.333   4.069  12.946  1.2717 -0.2256 -0.8760
10067TIP3    H251693   6.402   4.180  12.870 -2.1528  1.1292 -2.2132
10068TIP3   OH251694   1.990   1.636   1.951  0.4691  0.5084 -0.2071
10068TIP3    H151695   2.029   1.723   1.957  0.2648  0.5754  0.1660
10068TIP3    H251696   1.991   1.616   1.857  0.9145  0.7283 -0.2498
10069TIP3   OH251697   4.147   5.078   1.947 -0.0271  0.0051  0.3125
10069TIP3    H151698   4.242   5.083   1.936 -0.1201  1.2107 -0.0643
10069TIP3    H251699   4.119   5.008   1.888  0.2402  2.0467 -2.4061
10070TIP3   OH251700   1.740   4.866   1.247 -0.8121 -0.3099 -0.5041
10070TIP3    H151701   1.767   4.785   1.205 -1.0735 -0.8413  0.3380
10070TIP3    H251702   1.667   4.842   1.304 -0.1292  0.2816  0.6640
10071TIP3   OH251703   3.369   6.429  14.712 -0.3017  0.3905 -0.0107
10071TIP3    H151704   3.427   6.392  14.779  0.4070  0.3761 -0.6115
10071TIP3    H251705   3.420   6.422  14.631 -0.8851  1.0112 -0.4381
10072TIP3   OH251706   4.342   5.831  11.429 -0.6935 -0.2190  0.2783
10072TIP3    H151707   4.437   5.835  11.419 -0.7365  0.2646  0.0319
10072TIP3    H251708   4.309   5.901  11.373 -1.1077  0.7214  1.6545
10073TIP3   OH251709   6.699   6.853  13.601  0.5169  0.1479 -0.2958
10073TIP3    H151710   6.628   6.824  13.544 -0.9361  1.1330  0.9293
10073TIP3    H251711   6.687   6.804  13.682  4.1172 -3.2181 -1.4946
10074TIP3   OH251712   3.116   5.949  14.255 -0.4372 -0.0505  0.2841
10074TIP3    H151713   3.147   6.025  14.304  1.1573 -1.0256  0.8786
10074TIP3    H251714   3.195   5.898  14.237 -1.0394 -0.1809 -2.6218
10075TIP3   OH251715   2.826   4.199  12.076  0.1155 -0.0097 -0.0560
10075TIP3    H151716   2.860   4.136  12.139 -1.0277  0.7042  1.3423
10075TIP3    H251717   2.901   4.219  12.019  0.9629 -1.2733  0.5727
10076TIP3   OH251718   4.875   5.698  14.183  1.3655  0.0062  0.4070
10076TIP3    H151719   4.875   5.756  14.259  1.3872 -0.3687  0.6956
10076TIP3    H251720   4.835   5.617  14.214  0.7309  0.0914 -0.1739
10077TIP3   OH251721   2.448   6.024   2.150  0.3249  0.3970  0.0086
10077TIP3    H151722   2.404   6.109   2.142 -0.0121  0.3078  0.8863
10077TIP3    H251723   2.529   6.035   2.100 -0.6732  0.5587 -1.6486
10078TIP3   OH251724   6.340   4.605  15.755  0.0861  0.0824 -0.8445
10078TIP3    H151725   6.306   4.694  15.764  2.2777  0.7929  1.6551
10078TIP3    H251726   6.390   4.606  15.673  0.5090  1.3540 -0.5903
10079TIP3   OH251727   0.502   0.168  13.717  0.4178  0.0292  0.1710
10079TIP3    H151728   0.479   0.260  13.719  3.5144  1.0438 -2.1482
10079TIP3    H251729   0.443   0.129  13.651  0.8063  0.9970 -0.7755
10080TIP3   OH251730   1.437   0.975  16.949  0.4597  0.4395  0.0665
10080TIP3    H151731   1.420   0.882  16.960  0.1301  0.3488 -1.0379
10080TIP3    H251732   1.532   0.983  16.949  0.4941  0.0402 -0.2515
10081TIP3   OH251733   0.966   4.631   5.669 -0.4066 -0.0418 -0.4076
10081TIP3    H151734   1.012   4.681   5.601 -2.1350  2.2699 -0.0002
10081TIP3    H251735   0.906   4.574   5.620  0.8476 -1.0261 -0.8527
10082TIP3   OH251736   3.074   4.300   4.688 -0.9277 -0.3262  0.3840
10082TIP3    H151737   3.007   4.304   4.620 -1.1012 -2.0223  0.4201
10082TIP3    H251738   3.119   4.385   4.683 -0.5343 -0.6094 -2.2546
10083TIP3   OH251739   6.403   4.216   0.990  0.2952 -0.6139  0.7394
10083TIP3    H151740   6.337   4.230   1.058 -0.2974  0.3992 -0.0162
10083TIP3    H251741   6.402   4.122   0.974 -0.1614 -0.7499  1.5248
10084TIP3   OH251742   1.663   0.897   3.333 -0.3136 -0.2384  0.4109
10084TIP3    H151743   1.582   0.845   3.340  0.7981 -1.9240  1.3876
10084TIP3    H251744   1.695   0.879   3.244  0.5462 -2.0516  1.0442
10085TIP3   OH251745   2.557   3.516   6.532  0.4099  0.1026 -0.1615
10085TIP3    H151746   2.557   3.600   6.486 -0.2821  1.9268  2.8900
10085TIP3    H251747   2.600   3.534   6.615 -0.7463 -2.2685  1.0570
10086TIP3   OH251748   4.494   3.085  12.032 -0.7300 -0.2271  1.0568
10086TIP3    H151749   4.500   3.094  11.937  0.1150  1.0685  1.1991
10086TIP3    H251750   4.426   3.019  12.046  0.0811 -1.4501 -0.4644
10087TIP3   OH251751   3.042   5.147   2.091  0.0186 -0.2914  0.0141
10087TIP3    H151752   3.133   5.178   2.087  0.1760 -0.8036 -0.3963
10087TIP3    H251753   3.048   5.052   2.080 -0.6744 -0.1832 -1.4280
10088TIP3   OH251754   0.509   3.849  13.448 -0.5947 -0.0127  0.0318
10088TIP3    H151755   0.507   3.849  13.544 -1.1406  2.4160  0.0873
10088TIP3    H251756   0.549   3.765  13.425  2.6823  0.6691  2.4662
10089TIP3   OH251757   6.470   2.639  11.180  0.3959 -0.3776  0.2316
10089TIP3    H151758   6.556   2.660  11.146  0.1906 -0.7627 -0.5620
10089TIP3    H251759   6.409   2.668  11.112 -0.0340 -1.0580  0.3059
10090TIP3   OH251760   6.302   4.490   5.268  0.7137  0.3350 -0.7039
10090TIP3    H151761   6.336   4.509   5.356 -0.2958  0.5708 -0.3618
10090TIP3    H251762   6.208   4.504   5.274  0.2220 -2.2352 -1.0988
10091TIP3   OH251763   3.154   1.198  15.823 -0.5447 -0.3267  0.5168
10091TIP3    H151764   3.112   1.196  15.909 -1.4716  0.5163  0.1002
10091TIP3    H251765   3.171   1.290  15.805  0.5600 -0.5691  0.2125
10092TIP3   OH251766   1.751   1.053  16.717  0.9009  0.2232  0.3420
10092TIP3    H151767   1.810   1.107  16.665  0.8493  0.8686  0.9394
10092TIP3    H251768   1.737   0.974  16.664 -0.1578  1.3850 -1.2219
10093TIP3   OH251769   1.901   0.551   5.299 -0.3343  0.0928 -0.1556
10093TIP3    H151770   1.890   0.645   5.283 -1.7651  0.5397  2.7154
10093TIP3    H251771   1.996   0.539   5.302 -0.0975  1.0921 -2.0894
10094TIP3   OH251772   3.842   1.657  14.950 -0.0483 -0.2612 -0.1531
10094TIP3    H151773   3.829   1.701  14.866 -1.9381 -2.5028 -1.1303
10094TIP3    H251774   3.822   1.725  15.015 -1.1989  0.7961 -1.5534
10095TIP3   OH251775   6.264   4.278  14.614 -0.4296 -0.0627 -0.0757
10095TIP3    H151776   6.274   4.354  14.671  1.4437 -2.6706  3.4749
10095TIP3    H251777   6.250   4.205  14.674  0.3399 -2.9102 -3.0866
10096TIP3   OH251778   6.043   2.471   4.854  0.5199 -0.0195  0.2470
10096TIP3    H151779   6.065   2.545   4.797 -0.1293 -1.0508 -1.4065
10096TIP3    H251780   5.963   2.498   4.899  2.7129  2.1424  3.3066
10097TIP3   OH251781   1.398   5.972   3.297  0.2277 -0.0039 -0.2515
10097TIP3    H151782   1.437   5.995   3.213  1.7865  0.0554  0.4577
10097TIP3    H251783   1.466   5.923   3.343 -0.8843 -0.7377  0.6746
10098TIP3   OH251784   0.265   0.349   2.089 -0.0224 -0.1951 -0.1437
10098TIP3    H151785   0.215   0.430   2.081 -0.6670 -0.7614 -3.1388
10098TIP3    H251786   0.236   0.311   2.172 -1.5006  1.4662  0.1654
10099TIP3   OH251787   4.521   2.493   5.009  0.9129 -0.0001 -0.6979
10099TIP3    H151788   4.507   2.581   5.045  2.7667 -0.7228  2.0481
10099TIP3    H251789   4.582   2.451   5.070 -0.1724 -3.3454 -1.7098
10100TIP3   OH251790   2.340   2.776  11.037 -0.1654  0.3066 -0.1581
10100TIP3    H151791   2.314   2.798  10.947 -0.6828  3.1418  0.5763
10100TIP3    H251792   2.433   2.798  11.041  0.0033 -0.3887 -0.1339
10101TIP3   OH251793   6.303   2.857   6.304  0.1709  0.1747  0.3110
10101TIP3    H151794   6.305   2.948   6.275  1.1329  0.1287  0.2007
10101TIP3    H251795   6.219   2.824   6.274  0.7115  0.4020 -1.5661
10102TIP3   OH251796   4.604   0.043  14.487 -0.0805 -0.6042  0.2178
10102TIP3    H151797   4.552  -0.036  14.478  0.9028 -1.2107 -0.4093
10102TIP3    H251798   4.618   0.073  14.397  0.0529 -0.0544  0.4161
10103TIP3   OH251799   4.692   4.995   3.467  0.3593 -0.4034  0.0074
10103TIP3    H151800   4.622   5.055   3.441 -0.4294 -1.3492 -0.0885
10103TIP3    H251801   4.761   5.053   3.501  0.0792  0.6405 -1.1032
10104TIP3   OH251802   5.988   4.767  11.326 -0.1712 -0.2421 -0.2562
10104TIP3    H151803   5.978   4.799  11.415  0.5896 -1.1599  0.1753
10104TIP3    H251804   6.080   4.784  11.304 -0.5374  0.6986 -1.1695
10105TIP3   OH251805   5.620   0.993  13.893 -0.3630 -0.0676  0.1628
10105TIP3    H151806   5.713   1.003  13.915 -0.2352  0.9469 -0.7039
10105TIP3    H251807   5.611   1.039  13.809 -1.2748 -1.7634 -0.7139
10106TIP3   OH251808   5.158   5.912   2.523 -0.2450  0.3907  0.5761
10106TIP3    H151809   5.203   5.948   2.446 -1.9769  1.1061 -0.1354
10106TIP3    H251810   5.225   5.914   2.592  0.8733  1.2278 -0.4826
10107TIP3   OH251811   6.821   0.830  10.810  0.0181  0.4231  0.7187
10107TIP3    H151812   6.788   0.860  10.725  0.4362 -0.4958  0.2198
10107TIP3    H251813   6.763   0.872  10.874  1.3529  3.4108  0.1750
10108TIP3   OH251814   1.410   4.389   0.745  0.4190 -0.0846 -0.3102
10108TIP3    H151815   1.352   4.431   0.681 -0.7575 -0.6727  0.3517
10108TIP3    H251816   1.431   4.304   0.706 -0.6613 -0.6310  0.2571
10109TIP3   OH251817   4.825   6.275  11.816 -0.4855 -0.3526 -0.5684
10109TIP3    H151818   4.827   6.282  11.912 -0.8740 -0.0671 -0.5753
10109TIP3    H251819   4.747   6.222  11.798  0.7927 -2.2854 -0.6446
10110TIP3   OH251820   5.541   3.618  15.422 -0.0255  0.2144  0.0607
10110TIP3    H151821   5.491   3.574  15.353  0.1196  1.1932 -0.6887
10110TIP3    H251822   5.614   3.558  15.440  0.6782  0.5191 -1.5771
10111TIP3   OH251823   2.584   1.330   3.983  0.4438 -0.1313 -0.7231
10111TIP3    H151824   2.516   1.264   3.965  0.4751 -0.5282  0.5687
10111TIP3    H251825   2.563   1.363   4.070  0.6193  1.3576 -1.2166
10112TIP3   OH251826   2.999   0.956  11.856  1.0600 -0.1493  0.2116
10112TIP3    H151827   3.055   1.025  11.819 -1.1471  1.8000  0.2627
10112TIP3    H251828   3.029   0.948  11.947  0.4916  1.8603  0.6434
10113TIP3   OH251829   2.313   1.253  14.258 -0.0293 -0.3933 -0.2466
10113TIP3    H151830   2.318   1.299  14.174 -1.6196 -0.9379 -0.6752
10113TIP3    H251831   2.276   1.167  14.236  0.3766 -0.8854  0.9008
10114TIP3   OH251832   0.723   1.366   3.067 -0.5186  0.2314 -0.2759
10114TIP3    H151833   0.784   1.439   3.063 -1.1861  0.8337  0.2456
10114TIP3    H251834   0.761   1.307   3.133 -0.5095  0.6133  0.0624
10115TIP3   OH251835   3.309   6.128  11.359  0.5667  0.3457  0.3009
10115TIP3    H151836   3.344   6.039  11.353  0.1200 -0.1101  3.0650
10115TIP3    H251837   3.366   6.172  11.423  0.4614  1.9197 -0.6249
10116TIP3   OH251838   3.804   1.133   3.317  0.0176  0.1630 -0.6740
10116TIP3    H151839   3.770   1.206   3.368  1.1261 -0.2237  0.6751
10116TIP3    H251840   3.893   1.161   3.293 -0.0964 -0.1269 -1.4522
10117TIP3   OH251841   3.715   2.425   2.832 -0.2420  0.3188  0.5610
10117TIP3    H151842   3.717   2.374   2.751 -0.2803 -0.1406  0.8499
10117TIP3    H251843   3.778   2.496   2.816  0.1486 -0.0750  0.3295
10118TIP3   OH251844   2.428   5.195  14.400 -0.4293  0.1947 -0.0148
10118TIP3    H151845   2.469   5.113  14.372 -3.1896 -0.7084 -1.7762
10118TIP3    H251846   2.411   5.243  14.319 -0.2531  1.8477  0.8818
10119TIP3   OH251847   2.630   4.513   4.120 -0.5599 -0.0227  0.0758
10119TIP3    H151848   2.673   4.432   4.147 -1.7153 -1.3616 -1.8176
10119TIP3    H251849   2.640   4.514   4.025 -2.2891  1.0108 -0.1335
10120TIP3   OH251850   5.267   5.653   0.724  0.6026 -0.2411 -0.2263
10120TIP3    H151851   5.358   5.627   0.707  0.6993 -0.1637  0.1547
10120TIP3    H251852   5.275   5.731   0.779  0.3033 -0.2925 -0.1086
10121TIP3   OH251853   5.900   2.675  11.023 -0.5748  0.6549 -0.0722
10121TIP3    H151854   5.952   2.603  10.986  1.1074  0.5925  2.1948
10121TIP3    H251855   5.964   2.730  11.069 -2.2913  1.5871  1.3452
10122TIP3   OH251856   5.618   1.477  11.609  0.2014  0.3825 -0.3847
10122TIP3    H151857   5.636   1.439  11.523 -0.0276  0.5568 -0.5111
10122TIP3    H251858   5.649   1.568  11.601  0.1824  0.3976 -0.2826
10123TIP3   OH251859   1.426   6.122   3.858 -0.7460  0.0533  0.1987
10123TIP3    H151860   1.516   6.124   3.890 -0.5482  0.6480 -0.3591
10123TIP3    H251861   1.373   6.150   3.932 -0.3456  0.9317  0.1733
10124TIP3   OH251862   1.918   0.199  16.672  0.2699 -0.1110 -0.0321
10124TIP3    H151863   1.953   0.284  16.646  1.9891 -1.4241 -2.4558
10124TIP3    H251864   1.996   0.149  16.698 -0.5501 -1.3467  0.1314
10125TIP3   OH251865   5.079   4.878  12.544  0.0379 -0.3430 -0.2918
10125TIP3    H151866   5.081   4.802  12.485 -0.7745 -1.4773  1.0632
10125TIP3    H251867   5.145   4.858  12.611  0.7869  0.8118 -0.6547
10126TIP3   OH251868   6.271   6.268  14.511 -0.1182  0.1582  0.6282
10126TIP3    H151869   6.257   6.360  14.532  2.3628  0.3966  1.5609
10126TIP3    H251870   6.366   6.258  14.506 -0.3103 -1.6977 -2.6302
10127TIP3   OH251871   6.694   3.068  11.735  0.0393 -0.1696 -0.2802
10127TIP3    H151872   6.767   3.077  11.674 -0.8276 -1.3058 -1.5264
10127TIP3    H251873   6.674   2.974  11.736 -0.6878 -0.0320  0.9190
10128TIP3   OH251874   3.801   3.621  14.807  0.1790  0.0417 -0.4960
10128TIP3    H151875   3.712   3.595  14.827  0.1144  1.8814  2.1241
10128TIP3    H251876   3.842   3.635  14.893  1.6071  3.4655 -1.5767
10129TIP3   OH251877   1.833   2.211  16.144 -1.1855  0.2397  0.9100
10129TIP3    H151878   1.761   2.149  16.143 -1.0371 -0.0446  3.2092
10129TIP3    H251879   1.895   2.176  16.208  0.0678  1.4914  0.4420
10130TIP3   OH251880   3.738   5.335  14.337 -0.2886  0.4667  0.6605
10130TIP3    H151881   3.690   5.411  14.304 -0.5261  0.0697  0.0744
10130TIP3    H251882   3.730   5.341  14.432  0.6588  1.8050  0.6866
10131TIP3   OH251883   2.952   1.743   5.015  0.5427  0.0369  0.2129
10131TIP3    H151884   3.035   1.711   5.049  0.8745 -0.5639 -1.1148
10131TIP3    H251885   2.921   1.806   5.081  0.5761 -1.9034  2.1699
10132TIP3   OH251886   0.996   1.826  13.430 -0.1189  0.2910 -0.0050
10132TIP3    H151887   0.958   1.740  13.415  0.0882  0.2563 -0.3343
10132TIP3    H251888   0.923   1.887  13.419 -0.4070  0.1183  0.8490
10133TIP3   OH251889   0.215   2.700  15.644  0.3532  0.5421 -0.5736
10133TIP3    H151890   0.308   2.706  15.668  1.5081 -2.8852 -3.3577
10133TIP3    H251891   0.205   2.764  15.573  1.2447 -0.4990 -1.6869
10134TIP3   OH251892   4.003   5.642  10.746  0.3325 -0.3806 -0.4704
10134TIP3    H151893   3.956   5.701  10.687  1.3365 -0.9178 -1.8374
10134TIP3    H251894   3.972   5.555  10.723 -1.4021 -0.4608  1.7745
10135TIP3   OH251895   5.948   4.611  14.951 -0.1867 -0.0952 -0.4486
10135TIP3    H151896   6.012   4.580  14.887  1.0367  0.9499  0.2159
10135TIP3    H251897   5.947   4.542  15.018  0.6089  0.0809 -0.2359
10136TIP3   OH251898   1.480   1.843   5.721  0.2845 -0.2004 -0.3131
10136TIP3    H151899   1.395   1.887   5.714  1.8496  2.9714 -1.5439
10136TIP3    H251900   1.513   1.868   5.807  0.5789 -0.1796 -0.4307
10137TIP3   OH251901   2.178   4.424  10.897  0.4748 -0.1139  0.0584
10137TIP3    H151902   2.176   4.333  10.865 -2.4431  0.2943 -1.1987
10137TIP3    H251903   2.093   4.460  10.874  1.0888  2.6375  1.6013
10138TIP3   OH251904   0.580   4.567   2.139 -0.1609  0.0812 -0.0869
10138TIP3    H151905   0.562   4.661   2.140 -0.2070  0.0799  1.2233
10138TIP3    H251906   0.630   4.553   2.059  0.1326  1.2782 -0.1337
10139TIP3   OH251907   2.303   1.921   0.649 -0.7749 -0.1813 -0.5635
10139TIP3    H151908   2.209   1.911   0.665 -0.9409  2.8441  1.0423
10139TIP3    H251909   2.345   1.899   0.732 -0.1516 -0.4828 -0.9472
10140TIP3   OH251910   4.078   3.759   1.077  0.0176  0.3143 -1.0014
10140TIP3    H151911   4.018   3.717   1.138 -0.4683  0.7182 -1.1913
10140TIP3    H251912   4.081   3.850   1.105  1.7422  0.0030 -0.0488
10141TIP3   OH251913   4.686   3.316   1.900  0.0901 -0.2542 -0.2466
10141TIP3    H151914   4.664   3.247   1.837  1.1894 -1.3506  0.5240
10141TIP3    H251915   4.657   3.282   1.984  1.6467 -0.2983  0.3080
10142TIP3   OH251916   6.332   1.333   3.996  0.4265 -0.0347 -0.2773
10142TIP3    H151917   6.402   1.277   4.032 -1.0076 -1.7034  0.0665
10142TIP3    H251918   6.338   1.320   3.901 -0.0992 -1.0861 -0.1830
10143TIP3   OH251919   4.953   3.998  15.129  0.3469  0.1566 -0.0465
10143TIP3    H151920   4.987   3.922  15.177 -0.7947  0.8425  1.9839
10143TIP3    H251921   4.886   4.034  15.187 -1.1378  1.0765 -2.2023
10144TIP3   OH251922   3.158   1.506  12.108 -0.5982  0.0866  0.0856
10144TIP3    H151923   3.075   1.459  12.111 -1.0263  0.7332 -1.0755
10144TIP3    H251924   3.135   1.594  12.079  0.2763  0.8365  1.5287
10145TIP3   OH251925   0.851   2.922  13.548 -0.0962  0.1816  0.0414
10145TIP3    H151926   0.802   2.889  13.472  0.7440  0.1742 -0.5109
10145TIP3    H251927   0.876   2.842  13.595  1.7515 -0.0220 -1.1800
10146TIP3   OH251928   3.683   0.791   2.877  0.0325  0.0124 -0.6693
10146TIP3    H151929   3.605   0.843   2.858  0.4919  1.1627  0.4387
10146TIP3    H251930   3.696   0.801   2.972  0.6597 -1.3987 -0.5837
10147TIP3   OH251931   5.775   6.603   4.225 -0.0732 -0.0064  0.1047
10147TIP3    H151932   5.689   6.596   4.267  0.0759 -1.6240  0.2107
10147TIP3    H251933   5.832   6.547   4.278  0.6145 -0.3908 -1.0082
10148TIP3   OH251934   5.571   5.177   2.637 -0.5832 -0.0046 -0.0816
10148TIP3    H151935   5.495   5.119   2.646 -1.5694  0.9422 -1.6877
10148TIP3    H251936   5.572   5.200   2.544  1.3798  0.4323  0.0185
10149TIP3   OH251937   0.032   3.594  17.066  0.4583 -0.2844 -0.0483
10149TIP3    H151938   0.095   3.573  17.135  1.7789  1.1144 -0.7714
10149TIP3    H251939   0.007   3.685  17.084 -0.5206 -0.4707 -0.4183
10150TIP3   OH251940   5.761   5.931   2.110  0.3059 -0.0612  0.1673
10150TIP3    H151941   5.709   5.853   2.088  1.1959 -0.1019 -2.0490
10150TIP3    H251942   5.851   5.904   2.094  0.6921  1.1862  0.1738
10151TIP3   OH251943   4.227   6.464  11.018 -0.1624 -0.6716  0.7524
10151TIP3    H151944   4.287   6.458  10.944  1.1245 -0.4276  1.7530
10151TIP3    H251945   4.178   6.382  11.017  1.2018 -1.5109  0.7651
10152TIP3   OH251946   4.685   5.053  11.771 -0.2027  0.6177  0.2322
10152TIP3    H151947   4.716   5.040  11.860  0.2225 -0.4478 -0.0473
10152TIP3    H251948   4.765   5.064  11.719 -0.4097  0.5999 -0.0969
10153TIP3   OH251949   3.103   0.407   1.847  0.3506  0.1418  0.3948
10153TIP3    H151950   3.138   0.323   1.877 -0.4559  0.0058  0.9703
10153TIP3    H251951   3.058   0.443   1.923  0.8615  1.1981  0.2166
10154TIP3   OH251952   5.328   4.267   4.974 -0.7818 -0.2407  0.3257
10154TIP3    H151953   5.265   4.214   4.924 -0.5102 -1.8740  1.6145
10154TIP3    H251954   5.298   4.260   5.065  0.3830  0.2220  0.7669
10155TIP3   OH251955   5.077   1.517  14.364  0.5939 -0.2203 -0.1540
10155TIP3    H151956   4.992   1.548  14.395 -0.3340 -0.4069 -2.3198
10155TIP3    H251957   5.128   1.597  14.349  0.0829  0.0136 -0.6967
10156TIP3   OH251958   2.551   0.689  14.878  0.1125 -0.0273 -0.2938
10156TIP3    H151959   2.512   0.655  14.798 -1.8926  0.5283  0.4044
10156TIP3    H251960   2.507   0.643  14.949  2.2199 -0.8985  0.5488
10157TIP3   OH251961   6.617   2.656   0.392 -0.3786 -0.3576 -0.0912
10157TIP3    H151962   6.626   2.665   0.486  1.2085 -0.7883 -0.1701
10157TIP3    H251963   6.684   2.593   0.367 -0.9296 -0.4404 -1.4817
10158TIP3   OH251964   2.102   2.935   4.308  0.3234  0.6351 -0.4510
10158TIP3    H151965   2.117   2.877   4.233 -3.2127 -0.5629 -0.3981
10158TIP3    H251966   2.046   3.005   4.274 -2.9609 -0.9267  1.2507
10159TIP3   OH251967   1.339   2.968  15.603  0.3603 -0.4891 -0.0713
10159TIP3    H151968   1.249   2.944  15.627  0.7641 -2.0055  0.0567
10159TIP3    H251969   1.329   3.026  15.528 -0.7071 -3.5790 -2.5501
10160TIP3   OH251970   1.588   6.361  10.540  0.0449 -0.5265 -0.4681
10160TIP3    H151971   1.553   6.447  10.516 -1.4908 -0.0259  2.9579
10160TIP3    H251972   1.530   6.299  10.497 -0.7170  0.2173 -0.5478
10161TIP3   OH251973   0.882   6.373  12.110  0.1893 -0.8193 -0.1255
10161TIP3    H151974   0.949   6.439  12.129  0.3084 -1.1402  0.5934
10161TIP3    H251975   0.931   6.293  12.094  0.1625 -0.3840 -2.8052
10162TIP3   OH251976   1.733   2.887   0.343  0.4319 -0.6116  0.7492
10162TIP3    H151977   1.639   2.877   0.328  0.5731  0.9747 -1.8575
10162TIP3    H251978   1.740   2.968   0.395  0.3306 -1.4881  2.1657
10163TIP3   OH251979   5.526   4.870  15.137  0.1063 -0.2793  0.0281
10163TIP3    H151980   5.471   4.946  15.118  0.2274 -0.0889  0.4227
10163TIP3    H251981   5.507   4.849  15.229 -0.9097 -1.5359 -0.4312
10164TIP3   OH251982   0.950   4.142  14.545  0.6630 -0.2209 -0.0421
10164TIP3    H151983   0.984   4.093  14.469 -0.1560 -0.8240 -0.0366
10164TIP3    H251984   0.971   4.233  14.526  0.8715 -0.4112 -0.7765
10165TIP3   OH251985   0.894   4.076   2.091  0.1583  0.1770 -0.0094
10165TIP3    H151986   0.886   4.147   2.028  0.5331 -0.5102 -0.8542
10165TIP3    H251987   0.987   4.073   2.113  0.0168  0.4692  0.6509
10166TIP3   OH251988   4.583   2.737  16.705 -0.0041 -0.0658 -0.3032
10166TIP3    H151989   4.640   2.799  16.660  1.9293 -0.8661  0.9416
10166TIP3    H251990   4.538   2.790  16.771  1.2080  0.1357  0.3775
10167TIP3   OH251991   3.298   4.701  17.075 -0.0241  0.0503 -0.7019
10167TIP3    H151992   3.393   4.692  17.079 -0.0814  0.0152  1.4647
10167TIP3    H251993   3.282   4.796  17.081 -0.1480 -0.0080 -0.0571
10168TIP3   OH251994   5.677   4.068  13.428  0.1692  0.2076 -0.5148
10168TIP3    H151995   5.679   4.007  13.502 -1.8790  0.2441 -0.3712
10168TIP3    H251996   5.731   4.027  13.361  1.6270 -0.0844  0.7863
10169TIP3   OH251997   5.576   2.958  12.345 -0.3892  0.8733 -0.0330
10169TIP3    H151998   5.531   2.962  12.429 -0.7162  0.4120 -0.1832
10169TIP3    H251999   5.666   2.936  12.367 -0.7818 -0.6752  0.1107
10170TIP3   OH252000   4.465   5.133  13.294  0.5036 -0.4326  0.2193
10170TIP3    H152001   4.513   5.051  13.306 -1.9224 -2.4381 -2.3156
10170TIP3    H252002   4.512   5.178  13.224  2.4645  1.0403  2.3198
10171TIP3   OH252003   4.378   3.070  16.911 -0.3084  0.2069 -0.4866
10171TIP3    H152004   4.455   3.126  16.917 -0.0172 -0.1304 -1.0067
10171TIP3    H252005   4.361   3.062  16.817 -1.6245  1.1506 -0.3567
10172TIP3   OH252006   6.631   2.621   3.962 -0.6184 -0.0702  0.0603
10172TIP3    H152007   6.628   2.709   3.998 -0.3637  0.1693 -0.4871
10172TIP3    H252008   6.684   2.571   4.024 -0.7139  0.1754  0.3419
10173TIP3   OH252009   2.562   5.332  14.910  0.1219 -0.1813 -0.0627
10173TIP3    H152010   2.600   5.372  14.831 -0.0162  1.0316  0.4590
10173TIP3    H252011   2.475   5.304  14.883 -1.1642  2.9604  0.3263
10174TIP3   OH252012   5.189   2.148  14.718  0.0770 -0.0571  0.4325
10174TIP3    H152013   5.255   2.197  14.768  1.4086 -0.9669 -0.3665
10174TIP3    H252014   5.150   2.212  14.659  1.0394  0.2625  0.1351
10175TIP3   OH252015   1.034   3.509  15.045  0.4136 -0.0747  0.1807
10175TIP3    H152016   0.966   3.451  15.010  1.5303 -0.1867 -1.9694
10175TIP3    H252017   1.092   3.451  15.094 -0.2186 -0.2069  0.8024
10176TIP3   OH252018   4.760   6.593  11.487 -0.2675 -0.2242  0.3428
10176TIP3    H152019   4.706   6.613  11.563 -0.1246  0.0282  0.3797
10176TIP3    H252020   4.847   6.627  11.510  0.1819 -1.5328  0.7190
10177TIP3   OH252021   4.072   2.127  13.045 -0.2030  0.2357 -0.2824
10177TIP3    H152022   4.086   2.171  13.129  0.5752  1.2882 -0.9261
10177TIP3    H252023   4.147   2.068  13.036  0.0112  0.5358 -0.4821
10178TIP3   OH252024   4.341   3.459  15.114  0.3299 -0.4011  0.4273
10178TIP3    H152025   4.275   3.507  15.165  0.2144 -0.8664  0.7166
10178TIP3    H252026   4.424   3.488  15.151  0.5143  2.3321 -1.7207
10179TIP3   OH252027   4.747   6.856  16.056  0.5738 -0.2881  0.1370
10179TIP3    H152028   4.692   6.931  16.033 -0.7299  0.1741  4.0000
10179TIP3    H252029   4.687   6.782  16.062  1.2639 -0.8998 -0.2643
10180TIP3   OH252030   0.072   4.178  15.131 -0.4198 -0.0712 -0.4776
10180TIP3    H152031   0.159   4.169  15.170 -0.9368 -1.4099  0.4586
10180TIP3    H252032   0.068   4.269  15.102  0.7319  0.4499  0.8601
10181TIP3   OH252033   5.793   3.836  11.547 -0.4403  0.2257  0.1313
10181TIP3    H152034   5.823   3.777  11.616 -1.1781 -0.1887  0.1214
10181TIP3    H252035   5.801   3.784  11.467  0.8231  0.8532 -0.1724
10182TIP3   OH252036   2.890   1.157   1.401 -0.1237 -0.6313  0.5010
10182TIP3    H152037   2.897   1.252   1.413  0.6512 -0.4947 -0.8102
10182TIP3    H252038   2.958   1.120   1.457  0.6266 -0.2949 -0.1631
10183TIP3   OH252039   2.167   2.030  11.980 -0.2887 -0.2451 -0.1982
10183TIP3    H152040   2.081   2.063  12.007 -0.8795 -1.3376 -0.6610
10183TIP3    H252041   2.153   1.999  11.890  0.6869 -0.1254 -0.3986
10184TIP3   OH252042   5.092   1.102  14.380  0.2779 -0.4390  0.2742
10184TIP3    H152043   5.143   1.025  14.355  0.2483  0.7891 -4.5073
10184TIP3    H252044   5.005   1.068  14.401  0.1129 -1.7696 -2.2400
10185TIP3   OH252045   4.715   2.874  12.387 -0.0298 -0.2828 -0.5619
10185TIP3    H152046   4.681   2.811  12.450 -0.7827  1.0160  0.3718
10185TIP3    H252047   4.742   2.821  12.313 -0.7646 -1.6900  0.1351
10186TIP3   OH252048   1.539   0.603   1.602  0.2462  0.1184  0.4777
10186TIP3    H152049   1.555   0.555   1.684 -1.4324  1.3895  1.6115
10186TIP3    H252050   1.445   0.621   1.603 -0.0221 -0.7156 -2.2780
10187TIP3   OH252051   4.083   5.094  12.527  0.1826 -0.6148  0.3111
10187TIP3    H152052   4.102   5.114  12.619 -0.3796  0.6698  0.1581
10187TIP3    H252053   4.080   5.179  12.483 -0.2936 -1.1615 -0.7604
10188TIP3   OH252054   3.601   2.735  14.783  0.4876  0.3390  0.4801
10188TIP3    H152055   3.625   2.643  14.776 -0.4193  0.0482  1.0637
10188TIP3    H252056   3.532   2.747  14.718 -0.1165  0.3348  1.0959
10189TIP3   OH252057   0.100   5.629  12.509  0.1337 -0.0016  0.3157
10189TIP3    H152058   0.131   5.719  12.516 -1.2732  0.5079  0.1725
10189TIP3    H252059   0.070   5.607  12.597 -0.9315  0.2000  0.0094
10190TIP3   OH252060   0.510   4.256   4.094 -0.2903 -0.0620 -0.3750
10190TIP3    H152061   0.524   4.287   4.005  1.5222  0.5731  0.0876
10190TIP3    H252062   0.468   4.330   4.138  0.8725  0.4892 -0.1546
10191TIP3   OH252063   4.669   5.419  15.710  0.5827 -0.3673  0.3042
10191TIP3    H152064   4.622   5.502  15.700  1.9657  0.5687  1.2375
10191TIP3    H252065   4.674   5.384  15.621 -1.2167 -0.1622  0.0796
10192TIP3   OH252066   4.361   1.008  12.741 -0.2013 -0.5683 -0.2985
10192TIP3    H152067   4.407   0.973  12.665 -0.9176 -1.2668 -0.4156
10192TIP3    H252068   4.409   0.973  12.816 -0.8924 -1.8064 -0.4147
10193TIP3   OH252069   2.334   1.597  14.529 -0.0727 -0.7428  0.4171
10193TIP3    H152070   2.340   1.502  14.535  0.4783 -0.7346  0.1403
10193TIP3    H252071   2.245   1.618  14.555  0.1924 -1.2235  1.8112
10194TIP3   OH252072   2.795   1.023   3.329  0.8230  0.3519 -0.8227
10194TIP3    H152073   2.881   1.065   3.325  0.8846  0.4902  1.0735
10194TIP3    H252074   2.800   0.965   3.406 -0.4117 -0.4810 -1.3373
10195TIP3   OH252075   0.550   3.508   2.165 -0.0868  0.2959  0.3346
10195TIP3    H152076   0.480   3.565   2.133 -0.1162  0.9370  1.4713
10195TIP3    H252077   0.629   3.543   2.124 -0.3879 -0.3393 -0.8362
10196TIP3   OH252078   2.617   4.397  15.721 -0.6410 -0.4917 -0.5131
10196TIP3    H152079   2.623   4.406  15.816  1.2145  0.9842 -0.7065
10196TIP3    H252080   2.601   4.486  15.689 -1.2722 -0.9700 -1.5950
10197TIP3   OH252081   0.559   1.185   0.417  0.1641  0.2388 -0.0166
10197TIP3    H152082   0.611   1.106   0.426 -0.0438  0.0011 -0.8031
10197TIP3    H252083   0.588   1.223   0.334  1.4107  1.8496  1.0879
10198TIP3   OH252084   6.497   6.724  13.439 -0.2876  0.2862  0.0934
10198TIP3    H152085   6.484   6.631  13.420 -0.2986  0.2981  0.0425
10198TIP3    H252086   6.500   6.766  13.353 -0.9879  0.4304  0.1343
10199TIP3   OH252087   2.413   1.115  16.691 -0.4541 -0.2864  0.5618
10199TIP3    H152088   2.391   1.084  16.779 -0.1447 -2.5833 -0.1013
10199TIP3    H252089   2.485   1.059  16.663 -0.5217  0.4243 -1.1521
10200TIP3   OH252090   1.973   5.790   4.374  0.3011 -0.7526 -0.2299
10200TIP3    H152091   1.910   5.769   4.443  0.1755  0.9943  0.2250
10200TIP3    H252092   2.018   5.868   4.405  1.6812 -1.1014 -1.2253
10201TIP3   OH252093   6.077   6.272  13.167 -0.1481 -0.0251  0.6847
10201TIP3    H152094   5.998   6.278  13.221 -0.9317  2.2937 -0.5929
10201TIP3    H252095   6.052   6.212  13.096 -0.5208  0.1518  0.6614
10202TIP3   OH252096   6.373   1.913   0.421  0.1443 -0.2684  0.8259
10202TIP3    H152097   6.447   1.911   0.361  0.6979  0.1513  1.4853
10202TIP3    H252098   6.374   1.827   0.463 -0.6191 -0.8015 -0.1810
10203TIP3   OH252099   5.654   2.454  10.657  0.0170  0.0331  0.4816
10203TIP3    H152100   5.748   2.442  10.670 -0.0132 -0.7097  0.0341
10203TIP3    H252101   5.647   2.513  10.582  0.1178 -0.3260  0.1922
10204TIP3   OH252102   6.690   4.849  12.984 -0.5861  0.4983  0.3844
10204TIP3    H152103   6.727   4.929  12.948 -0.1598  0.3312  0.4473
10204TIP3    H252104   6.602   4.874  13.014 -0.5322  0.8895  0.2176
10205TIP3   OH252105   6.190   2.067  14.294  0.3616 -0.1897 -0.1224
10205TIP3    H152106   6.214   2.099  14.207  1.0013 -0.6408 -0.1251
10205TIP3    H252107   6.274   2.050  14.337  0.0719  0.4851  0.7666
10206TIP3   OH252108   5.468   6.856  11.602  0.1316 -0.1489  0.0680
10206TIP3    H152109   5.458   6.843  11.507  2.8193  0.3903 -0.3551
10206TIP3    H252110   5.518   6.938  11.610  1.2303 -0.9371  1.8872
10207TIP3   OH252111   5.718   5.413   3.173 -0.0474  0.4211  0.0992
10207TIP3    H152112   5.640   5.459   3.204 -0.7420  0.3564 -1.4724
10207TIP3    H252113   5.684   5.346   3.113  1.2119  0.4778 -0.7082
10208TIP3   OH252114   0.770   5.256  16.369  0.1553 -0.3324 -0.0429
10208TIP3    H152115   0.851   5.205  16.360  0.1476 -0.3667  0.0836
10208TIP3    H252116   0.795   5.345  16.345  0.0162 -0.5217 -0.9262
10209TIP3   OH252117   5.446   4.834   4.320 -0.4989  0.6935 -0.0253
10209TIP3    H152118   5.540   4.839   4.334 -0.5543  1.5952  0.1191
10209TIP3    H252119   5.427   4.741   4.310 -0.0326  0.1426  3.0269
10210TIP3   OH252120   5.901   1.520  11.326  0.2554  1.0776 -0.0060
10210TIP3    H152121   5.810   1.491  11.330 -0.5965  3.4374 -0.9469
10210TIP3    H252122   5.940   1.487  11.408 -0.6408 -2.2179 -0.7350
10211TIP3   OH252123   3.836   5.207   2.977  0.5640 -0.0769  0.0427
10211TIP3    H152124   3.777   5.281   2.962  1.5822  0.9068  0.6815
10211TIP3    H252125   3.903   5.217   2.909  0.1960 -1.0014 -0.4799
10212TIP3   OH252126   6.008   1.852   0.992 -0.0144  0.0718 -0.3202
10212TIP3    H152127   5.948   1.798   0.941  0.0709  0.5717 -0.9608
10212TIP3    H252128   6.094   1.813   0.978 -0.2212 -0.8722  0.9007
10213TIP3   OH252129   4.271   0.847  10.618 -0.2102  0.6408 -0.3407
10213TIP3    H152130   4.316   0.900  10.553  1.5281  0.8557  0.9499
10213TIP3    H252131   4.200   0.902  10.650 -2.4181 -0.1905 -3.3677
10214TIP3   OH252132   1.627   4.348   1.988 -0.2770 -0.2387 -0.1613
10214TIP3    H152133   1.683   4.373   1.915 -0.6286 -1.5089 -0.9002
10214TIP3    H252134   1.688   4.329   2.059  0.0618  1.0765 -0.0755
10215TIP3   OH252135   2.245   0.001  11.923  0.5503  0.4886  0.0060
10215TIP3    H152136   2.261  -0.046  11.841  1.9010  1.6176 -0.3975
10215TIP3    H252137   2.193   0.077  11.898 -0.6052 -0.1184  0.4869
10216TIP3   OH252138   1.312   3.520   5.467  0.4443 -0.2267 -0.3339
10216TIP3    H152139   1.279   3.595   5.416 -0.3059 -0.0076  0.4392
10216TIP3    H252140   1.389   3.554   5.512 -0.1267  0.2217  0.3334
10217TIP3   OH252141   3.131   2.101   3.677  0.0798 -0.1415 -0.6621
10217TIP3    H152142   3.160   2.189   3.704  1.6387 -0.2461 -1.8562
10217TIP3    H252143   3.095   2.113   3.589 -0.0136 -0.6534 -0.6975
10218TIP3   OH252144   5.988   5.798  10.901  0.0906 -0.1741 -0.0410
10218TIP3    H152145   6.018   5.784  10.811  0.9232 -0.8162  0.3212
10218TIP3    H252146   6.016   5.720  10.948 -0.9043 -0.1390  0.6509
10219TIP3   OH252147   5.187   2.204   1.544  0.3038  0.4667 -0.3880
10219TIP3    H152148   5.283   2.207   1.534  0.4965 -0.2085  1.0455
10219TIP3    H252149   5.154   2.237   1.461  1.7735 -0.6140 -1.4542
10220TIP3   OH252150   3.054   2.273  16.273 -0.5493 -0.3836 -0.6611
10220TIP3    H152151   3.112   2.305  16.204  1.0856 -0.9140  0.4248
10220TIP3    H252152   3.085   2.316  16.352  0.8269 -3.4374  0.6039
10221TIP3   OH252153   0.212   3.204   1.574  0.3931 -0.1570  0.2713
10221TIP3    H152154   0.292   3.171   1.616  1.4363  0.0324 -1.4793
10221TIP3    H252155   0.200   3.291   1.614  1.4930  0.1190  0.0523
10222TIP3   OH252156   0.499   1.381  12.076 -0.0306 -0.0974  0.5354
10222TIP3    H152157   0.405   1.395  12.076  0.2212  1.8423  0.8074
10222TIP3    H252158   0.535   1.453  12.025  1.3586 -0.4215  0.9954
10223TIP3   OH252159   2.974   4.500  16.092  0.3644  0.4975  0.2101
10223TIP3    H152160   3.061   4.528  16.063 -0.1017  1.5163 -0.2534
10223TIP3    H252161   2.980   4.498  16.187  1.1855 -0.4482  0.1570
10224TIP3   OH252162   5.072   2.981   5.402 -0.2455  0.3853 -0.9655
10224TIP3    H152163   5.140   3.049   5.402 -0.1365  0.3997  1.6300
10224TIP3    H252164   5.090   2.928   5.325  1.9836  1.1046 -1.0012
10225TIP3   OH252165   2.699   2.301  12.764 -0.1996 -0.1081  0.7123
10225TIP3    H152166   2.745   2.231  12.718 -2.6132 -1.8700  0.8108
10225TIP3    H252167   2.719   2.286  12.856  0.4045  0.2358  0.6489
10226TIP3   OH252168   1.595   6.202  12.260  0.3460 -0.2167  0.7060
10226TIP3    H152169   1.537   6.217  12.335  1.4123  2.2197  1.1524
10226TIP3    H252170   1.556   6.256  12.190 -0.3880 -2.1124 -0.4239
10227TIP3   OH252171   2.678   1.963   4.655  0.6248 -0.3578  0.4343
10227TIP3    H152172   2.758   1.967   4.603  1.2991 -1.5101  1.3163
10227TIP3    H252173   2.612   1.930   4.594  1.4552 -1.9154  0.3209
10228TIP3   OH252174   6.336   2.068  11.195  0.1133 -0.6090 -0.3693
10228TIP3    H152175   6.325   2.004  11.124 -1.0367 -0.9300  0.0802
10228TIP3    H252176   6.314   2.152  11.155  1.4000 -0.4993 -0.8991
10229TIP3   OH252177   1.504   3.609   5.639 -0.1767 -0.2285 -0.3841
10229TIP3    H152178   1.532   3.625   5.729  1.5764  1.6433 -1.1709
10229TIP3    H252179   1.585   3.613   5.588 -1.4251  2.0039 -2.4199
10230TIP3   OH252180   1.945   6.600   5.030 -0.2034  0.0443 -0.3324
10230TIP3    H152181   1.949   6.678   4.975  0.4211 -0.3469 -0.8553
10230TIP3    H252182   1.882   6.623   5.099 -1.0603  0.5164 -1.2364
10231TIP3   OH252183   0.370   4.275  13.873  0.2748  0.1345  0.1075
10231TIP3    H152184   0.290   4.248  13.918 -0.6351  1.1655 -0.8401
10231TIP3    H252185   0.344   4.290  13.782  1.7935 -0.6151 -0.4980
10232TIP3   OH252186   0.174   5.661   2.257  0.2559 -0.6823  0.1430
10232TIP3    H152187   0.130   5.584   2.220 -0.2066 -0.4206  0.1484
10232TIP3    H252188   0.112   5.697   2.320 -0.0883  0.4513 -0.7940
10233TIP3   OH252189   3.531   4.047  12.369 -0.1847 -0.0460  0.0904
10233TIP3    H152190   3.468   4.104  12.414 -1.0571 -0.1966 -0.8919
10233TIP3    H252191   3.617   4.079  12.396 -0.6503  1.6956 -0.3971
10234TIP3   OH252192   3.324   1.673   4.247  0.4488 -0.6267 -0.4231
10234TIP3    H152193   3.276   1.637   4.322 -2.3188  1.1884 -1.1355
10234TIP3    H252194   3.256   1.684   4.180  1.7592  2.5507 -1.3864
10235TIP3   OH252195   5.545   1.214  15.368 -0.7715 -0.7491 -0.4932
10235TIP3    H152196   5.490   1.273  15.316  1.1374  1.7955  0.2000
10235TIP3    H252197   5.527   1.240  15.459  1.5873  0.2864 -0.2534
10236TIP3   OH252198   2.234   0.986   1.554 -0.2130  0.7431  0.1127
10236TIP3    H152199   2.294   0.997   1.627  0.3460  1.1843 -0.4009
10236TIP3    H252200   2.236   1.070   1.508 -0.0461  0.2647 -0.7835
10237TIP3   OH252201   1.819   0.058  12.427 -0.2942 -0.0008 -0.4017
10237TIP3    H152202   1.867   0.079  12.347 -0.0621  0.7978 -0.0601
10237TIP3    H252203   1.829   0.135  12.482 -2.6398  0.5318 -0.6164
10238TIP3   OH252204   4.048   6.856  13.510 -0.2064 -0.4850  0.0902
10238TIP3    H152205   3.975   6.882  13.567 -1.2382 -1.7370 -0.6038
10238TIP3    H252206   4.125   6.861  13.567 -0.4287  2.8921  0.3059
10239TIP3   OH252207   0.512   0.365   2.612 -0.4765 -0.1526 -0.2908
10239TIP3    H152208   0.568   0.358   2.689 -0.0435 -1.0556 -0.6759
10239TIP3    H252209   0.433   0.408   2.644  0.6909  1.7953  0.1154
10240TIP3   OH252210   3.927   5.757   4.581 -0.2105 -0.2635 -0.3067
10240TIP3    H152211   3.957   5.671   4.609  0.8214 -0.2342 -1.2573
10240TIP3    H252212   3.863   5.783   4.648  3.0438  0.4089  2.8388
10241TIP3   OH252213   3.420   4.944  12.849 -0.0540 -0.2659 -0.1223
10241TIP3    H152214   3.424   4.880  12.778 -1.4153 -0.7597  0.2194
10241TIP3    H252215   3.489   5.008  12.828  0.1245 -0.8607 -1.4212
10242TIP3   OH252216   2.518   4.554  13.547  0.3343 -0.1655 -0.0200
10242TIP3    H152217   2.472   4.585  13.469  0.7497  1.3397  0.3079
10242TIP3    H252218   2.603   4.597  13.544  0.8002 -0.9972  0.6730
10243TIP3   OH252219   3.041   6.532   4.864 -0.1650 -0.1711 -0.3001
10243TIP3    H152220   3.061   6.552   4.772 -0.9922  2.6106  0.0497
10243TIP3    H252221   3.050   6.615   4.910 -3.6503 -0.5518  1.4154
10244TIP3   OH252222   5.770   6.365   2.311  0.4775 -0.5968  0.0383
10244TIP3    H152223   5.824   6.294   2.345  0.6700  0.7482  2.8817
10244TIP3    H252224   5.688   6.358   2.360 -0.6529 -0.6068 -1.7957
10245TIP3   OH252225   2.867   1.304  15.562 -0.4224 -0.6259  0.2244
10245TIP3    H152226   2.804   1.307  15.489 -0.2463  0.0095  0.0948
10245TIP3    H252227   2.823   1.250  15.628 -0.4150 -1.5549 -0.5025
10246TIP3   OH252228   1.147   6.591   0.495  0.5222  0.2637 -0.1304
10246TIP3    H152229   1.064   6.612   0.451 -1.2017 -2.7862  1.3230
10246TIP3    H252230   1.145   6.643   0.575 -0.7789 -0.7707  0.5696
10247TIP3   OH252231   3.614   1.549  11.823  0.2597  0.0336 -0.8481
10247TIP3    H152232   3.528   1.586  11.806  0.0322  1.2593  2.2419
10247TIP3    H252233   3.596   1.465  11.865  0.3296  1.4942  2.3786
10248TIP3   OH252234   2.486   1.900  14.702 -0.1282  0.1682  0.5087
10248TIP3    H152235   2.391   1.893  14.715 -0.0896 -0.5698  0.4454
10248TIP3    H252236   2.521   1.819  14.739  0.0303 -2.0098 -3.7893
10249TIP3   OH252237   1.149   3.147  13.199 -0.3183  0.2063  0.4185
10249TIP3    H152238   1.102   3.163  13.281 -0.5258  0.1136  0.3186
10249TIP3    H252239   1.200   3.227  13.184  1.5906 -0.6707  1.8661
10250TIP3   OH252240   6.134   6.739  16.766 -0.0791  0.5769  0.0433
10250TIP3    H152241   6.080   6.708  16.839  0.8834 -0.7486  0.2247
10250TIP3    H252242   6.178   6.816  16.800 -1.7959  1.6695 -0.0938
10251TIP3   OH252243   0.003   1.573  13.207 -0.1441 -0.3752 -0.1736
10251TIP3    H152244  -0.027   1.484  13.192 -1.0385 -0.1893  0.4370
10251TIP3    H252245   0.008   1.612  13.119 -2.6083 -0.1502 -0.2947
10252TIP3   OH252246   3.801   2.744   1.242 -0.2826  0.0691 -0.1432
10252TIP3    H152247   3.841   2.675   1.190 -0.7152  0.9073 -1.6788
10252TIP3    H252248   3.714   2.709   1.265  0.2166 -0.6229  0.7268
10253TIP3   OH252249   4.494   2.534  15.879 -0.0561 -0.0522  0.2852
10253TIP3    H152250   4.527   2.601  15.819 -1.9602  2.4549  1.8468
10253TIP3    H252251   4.524   2.452  15.841  0.8158  1.5227 -2.7961
10254TIP3   OH252252   4.025   4.228  14.021 -0.5271  0.6799 -0.4349
10254TIP3    H152253   4.048   4.300  14.080 -0.5359  0.2425  0.1098
10254TIP3    H252254   4.072   4.248  13.940  2.6797 -0.6351  0.8867
10255TIP3   OH252255   0.176   6.330   3.171 -0.2521  0.2589 -0.8790
10255TIP3    H152256   0.121   6.404   3.196  1.0597  1.1845 -0.6420
10255TIP3    H252257   0.242   6.368   3.112  0.7077 -0.6185 -0.4023
10256TIP3   OH252258   6.452   4.646   1.792  0.3979  0.1352  0.1087
10256TIP3    H152259   6.365   4.680   1.771 -0.1034 -0.3680  1.2833
10256TIP3    H252260   6.440   4.600   1.875  1.4301 -1.3741 -0.5385
10257TIP3   OH252261   2.996   4.297   5.088 -0.2860 -0.2655 -0.5165
10257TIP3    H152262   2.997   4.226   5.153 -1.1015 -1.7423 -2.0394
10257TIP3    H252263   2.908   4.334   5.096 -0.2089 -0.1042 -0.4218
10258TIP3   OH252264   2.861   4.918  10.644  0.0006  0.0304  0.6013
10258TIP3    H152265   2.875   5.008  10.674  1.9579 -0.8033  2.4257
10258TIP3    H252266   2.768   4.915  10.621 -0.0127  2.6235  0.0137
10259TIP3   OH252267   2.716   5.279  13.309  0.9088  0.4081 -0.2821
10259TIP3    H152268   2.709   5.373  13.323 -0.8913  0.0886  1.3438
10259TIP3    H252269   2.779   5.249  13.375 -0.6907  0.1282  1.1714
10260TIP3   OH252270   0.871   4.427  12.233  0.3790  0.3203 -0.0781
10260TIP3    H152271   0.873   4.427  12.328 -0.1131  0.6998 -0.0664
10260TIP3    H252272   0.927   4.353  12.208  1.6769  1.0847  0.4802
10261TIP3   OH252273   2.993   0.084   2.479  0.3371  0.3890 -0.2184
10261TIP3    H152274   3.086   0.079   2.501  0.0891  0.8199  1.0579
10261TIP3    H252275   2.958  -0.000   2.506  0.3151  0.3111 -0.4896
10262TIP3   OH252276   6.629   2.864   4.083 -0.1239  0.1788 -0.0127
10262TIP3    H152277   6.683   2.943   4.091 -0.6857  0.6391 -0.6564
10262TIP3    H252278   6.562   2.874   4.150  1.2343 -0.9617  1.6071
10263TIP3   OH252279   3.960   1.332   1.108 -0.3004  0.5636 -0.0504
10263TIP3    H152280   4.013   1.369   1.178 -0.5581 -0.5758  0.7771
10263TIP3    H252281   3.987   1.379   1.029 -0.6867  2.5514  0.9381
10264TIP3   OH252282   2.319   0.380   2.278 -0.2535 -0.0129 -0.2878
10264TIP3    H152283   2.307   0.316   2.348  0.6798  0.4350  0.2998
10264TIP3    H252284   2.254   0.356   2.212 -1.1807 -0.4072  0.7525
10265TIP3   OH252285   3.125   0.848  15.257 -0.3369 -0.5463 -0.2173
10265TIP3    H152286   3.174   0.767  15.272 -2.2557 -1.9504 -1.0746
10265TIP3    H252287   3.084   0.837  15.171 -1.8855  0.6546  0.3045
10266TIP3   OH252288   3.323   1.195   3.204 -0.0122 -0.1646  0.4148
10266TIP3    H152289   3.378   1.248   3.263 -0.2002 -1.3358  1.6817
10266TIP3    H252290   3.381   1.174   3.131  0.2547  1.2382  0.1929
10267TIP3   OH252291   4.745   6.409  16.809  1.1900  0.7638 -0.1873
10267TIP3    H152292   4.810   6.464  16.765  0.2679  0.7458 -1.6153
10267TIP3    H252293   4.693   6.371  16.738  1.0406 -1.0333  0.8082
10268TIP3   OH252294   3.155   4.469  12.756 -0.0343 -0.2973  0.1134
10268TIP3    H152295   3.067   4.490  12.724 -0.5952  0.3124  1.9129
10268TIP3    H252296   3.147   4.381  12.791  0.7400 -1.2193 -1.8817
10269TIP3   OH252297   5.297   5.385   4.856  0.1083  0.4595  0.3359
10269TIP3    H152298   5.235   5.443   4.813 -0.3931 -0.7890 -0.6983
10269TIP3    H252299   5.243   5.317   4.896  0.6857  0.6176  1.4250
10270TIP3   OH252300   0.970   6.019   1.819 -0.0315  0.1183 -0.1026
10270TIP3    H152301   0.923   6.092   1.858 -1.2217 -1.2941  1.2248
10270TIP3    H252302   0.904   5.951   1.806  1.2865 -1.2739  0.1171
10271TIP3   OH252303   3.797   4.749   0.204 -0.2243  0.1353  0.2150
10271TIP3    H152304   3.832   4.834   0.179  1.1131 -0.3428  0.4043
10271TIP3    H252305   3.731   4.730   0.137  0.3466  0.7507 -0.5377
10272TIP3   OH252306   1.538   3.118  13.156 -0.4556  0.1057 -0.1735
10272TIP3    H152307   1.445   3.111  13.175 -0.3097 -1.5732  0.1094
10272TIP3    H252308   1.580   3.055  13.215  0.9067  1.0700 -0.0521
10273TIP3   OH252309   0.536   1.494  11.524 -0.1620  0.1029  0.1233
10273TIP3    H152310   0.583   1.437  11.585 -0.1419 -0.6372 -0.5739
10273TIP3    H252311   0.522   1.440  11.447  0.0983  1.1348 -0.6612
10274TIP3   OH252312   2.927   3.911  11.663  0.2056  0.0908  0.0597
10274TIP3    H152313   2.968   3.941  11.582  0.8780  0.3517  0.4958
10274TIP3    H252314   2.838   3.886  11.636  0.6174 -0.4322 -0.8798
10275TIP3   OH252315   2.761   1.687  15.866 -0.0521  0.6578  0.4364
10275TIP3    H152316   2.802   1.602  15.851 -0.1004  0.8432 -0.8233
10275TIP3    H252317   2.831   1.742  15.902 -0.1959 -0.0825  1.9320
10276TIP3   OH252318   2.935   0.603   5.675  0.0764 -0.0701  0.0784
10276TIP3    H152319   2.840   0.600   5.679  0.1475 -0.8160  2.2741
10276TIP3    H252320   2.956   0.697   5.683 -0.4565  0.0520  0.0733
10277TIP3   OH252321   0.405   5.501  12.787 -0.4460 -0.1701 -0.5054
10277TIP3    H152322   0.418   5.594  12.805  0.9882 -0.2619 -0.9418
10277TIP3    H252323   0.423   5.492  12.693 -1.1083 -0.8132 -0.5853
10278TIP3   OH252324   4.361   1.596   3.557  0.1909 -0.4623 -0.0625
10278TIP3    H152325   4.390   1.507   3.536  0.4811 -1.3317  3.3814
10278TIP3    H252326   4.439   1.650   3.550  0.7436 -1.1254  0.7975
10279TIP3   OH252327   2.220   4.337  17.076 -0.5712  0.6618 -0.2708
10279TIP3    H152328   2.238   4.311  16.985  0.8593 -2.5905  0.7792
10279TIP3    H252329   2.136   4.296  17.097  0.0410 -0.2876  0.4030
10280TIP3   OH252330   2.997   4.399  13.537 -0.1212  0.1116  0.3515
10280TIP3    H152331   2.954   4.373  13.456  2.2844 -0.9486 -0.6770
10280TIP3    H252332   3.010   4.317  13.585  2.4038  0.1027 -0.2624
10281TIP3   OH252333   2.082   4.934  16.513 -0.5140 -0.0132  0.6068
10281TIP3    H152334   2.029   4.996  16.562 -0.2525 -0.2086  1.1511
10281TIP3    H252335   2.024   4.860  16.496 -0.8015  0.3337  0.0284
10282TIP3   OH252336   5.355   6.030  14.896 -0.0559  0.7957  0.1668
10282TIP3    H152337   5.260   6.022  14.893  0.1083 -1.9048 -2.3588
10282TIP3    H252338   5.387   5.940  14.890  2.6105  1.7301 -1.3115
10283TIP3   OH252339   2.179   0.840   5.184  0.2301  0.4614  0.2494
10283TIP3    H152340   2.242   0.851   5.113  0.4594 -0.2625  0.3264
10283TIP3    H252341   2.232   0.806   5.257 -0.3866 -1.0286  0.0309
10284TIP3   OH252342   5.938   3.236  11.339  0.2614 -0.1910  0.4230
10284TIP3    H152343   5.885   3.191  11.273  0.0577 -0.6705  0.9136
10284TIP3    H252344   5.883   3.310  11.367 -0.4753 -1.0909  1.4524
10285TIP3   OH252345   1.044   1.516  13.729 -0.7386 -0.0636  0.0304
10285TIP3    H152346   1.011   1.456  13.663  0.7204 -1.0881  0.1871
10285TIP3    H252347   1.108   1.571  13.682 -0.3192 -0.2358  0.3892
10286TIP3   OH252348   4.391   1.345  14.756  0.2727 -0.4203  0.6656
10286TIP3    H152349   4.337   1.267  14.748  0.1136 -0.4435  1.7729
10286TIP3    H252350   4.415   1.348  14.849  0.1210  0.9420  0.6849
10287TIP3   OH252351   0.401   4.752  12.056  0.1596 -0.0872 -0.5832
10287TIP3    H152352   0.317   4.721  12.089 -0.0739 -0.1877 -1.2666
10287TIP3    H252353   0.383   4.783  11.968  0.9041 -0.4150 -0.8601
10288TIP3   OH252354   2.888   3.206   3.739 -0.1699  1.0301  0.5245
10288TIP3    H152355   2.979   3.222   3.714 -1.0301  1.2062 -3.0634
10288TIP3    H252356   2.884   3.112   3.758  0.6555  0.9175  0.1756
10289TIP3   OH252357   3.949   1.624  14.527  0.3728 -0.4038  0.4069
10289TIP3    H152358   3.885   1.578  14.582 -0.0580 -1.3990 -0.8918
10289TIP3    H252359   3.907   1.707  14.505  0.1092 -0.4532  0.7136
10290TIP3   OH252360   6.570   3.924   1.912 -0.1349  0.8003 -0.4318
10290TIP3    H152361   6.512   3.973   1.971 -0.0481 -0.5473  0.8401
10290TIP3    H252362   6.512   3.862   1.868 -0.3086  2.2067 -2.3169
10291TIP3   OH252363   6.272   2.051   6.533  0.5324  0.2889  0.0651
10291TIP3    H152364   6.239   1.962   6.521  0.6735  0.2900 -0.3772
10291TIP3    H252365   6.195   2.107   6.523  0.6661  0.2964 -1.0295
10292TIP3   OH252366   2.715   5.742   4.237 -0.2201 -0.3094  0.4250
10292TIP3    H152367   2.694   5.835   4.230  0.2970 -0.2580 -0.4787
10292TIP3    H252368   2.654   5.699   4.178 -0.5003 -0.5619  0.8890
10293TIP3   OH252369   0.337   3.714  16.493  0.4761 -0.1763  0.2990
10293TIP3    H152370   0.293   3.717  16.578 -1.0603 -2.1533 -0.3515
10293TIP3    H252371   0.308   3.794  16.448  0.5592  0.4137  1.2697
10294TIP3   OH252372   1.948   6.599  13.185 -0.0110  0.0369  0.1766
10294TIP3    H152373   2.011   6.572  13.251  0.2285  1.0355  0.3694
10294TIP3    H252374   1.913   6.682  13.216 -1.7852 -0.6978  0.3126
10295TIP3   OH252375   1.124   2.024   2.113  0.2231  0.3441 -0.1081
10295TIP3    H152376   1.172   1.942   2.123  0.0415  0.0003 -1.7948
10295TIP3    H252377   1.048   2.014   2.171 -0.3784 -1.1474 -1.0960
10296TIP3   OH252378   3.422   5.917   1.083  0.3047 -0.3179 -0.1677
10296TIP3    H152379   3.436   5.837   1.133 -1.4864 -0.2574  0.5021
10296TIP3    H252380   3.354   5.964   1.131  1.4600  1.7441 -0.4129
10297TIP3   OH252381   2.888   4.555   5.756  0.2436  0.0654  0.0732
10297TIP3    H152382   2.818   4.569   5.821 -2.0283  0.2343 -2.2439
10297TIP3    H252383   2.962   4.605   5.790 -1.1264  0.8594  2.0954
10298TIP3   OH252384   3.820   5.966  10.961  0.3126  0.0320  0.2552
10298TIP3    H152385   3.888   5.935  11.020 -0.0856  1.2461  1.3874
10298TIP3    H252386   3.865   6.021  10.897  0.5360 -0.0649  0.3302
10299TIP3   OH252387   4.159   1.886   3.074 -0.4674  0.7821 -0.1017
10299TIP3    H152388   4.110   1.839   3.007  1.5754 -0.1811 -0.9773
10299TIP3    H252389   4.239   1.836   3.086  0.2479  2.1896  1.4383
10300TIP3   OH252390   0.874   2.173  13.837  0.1274 -0.4712  0.2216
10300TIP3    H152391   0.887   2.095  13.784  1.8194 -1.5556  2.0759
10300TIP3    H252392   0.860   2.244  13.774 -1.9180 -2.2820 -1.5086
10301TIP3   OH252393   5.459   6.564  14.979 -0.0709 -0.0961 -0.7421
10301TIP3    H152394   5.375   6.562  15.025  0.6219 -2.3277  0.5495
10301TIP3    H252395   5.525   6.566  15.048  0.9714 -2.2028 -1.5948
10302TIP3   OH252396   2.826   5.666  16.296 -0.5477  0.2901  0.6771
10302TIP3    H152397   2.782   5.740  16.337 -0.5035  1.2757 -0.9727
10302TIP3    H252398   2.773   5.590  16.320 -3.2875  1.4350 -1.2907
10303TIP3   OH252399   1.942   3.294   4.956 -0.0773  0.0780 -0.2831
10303TIP3    H152400   1.964   3.223   5.016  1.2702  1.4902  1.0189
10303TIP3    H252401   2.019   3.302   4.899 -0.2128  0.4736 -0.4149
10304TIP3   OH252402   5.909   6.262   5.098  0.0601  0.0131  0.6052
10304TIP3    H152403   5.900   6.270   5.193 -1.1196  0.3760  0.4908
10304TIP3    H252404   5.839   6.202   5.073 -1.1599  1.7042 -0.2566
10305TIP3   OH252405   6.574   0.026  10.964 -0.5668 -0.6100  0.4245
10305TIP3    H152406   6.563  -0.033  10.890 -0.8994  0.8634 -0.7433
10305TIP3    H252407   6.645   0.085  10.937 -0.2717 -0.4247  1.5445
10306TIP3   OH252408   3.579   1.185   4.416  0.0352 -0.2146 -0.2259
10306TIP3    H152409   3.487   1.207   4.427 -0.0378 -0.8492  0.5416
10306TIP3    H252410   3.614   1.255   4.361 -1.0889 -0.4311 -1.2645
10307TIP3   OH252411   4.481   5.211   6.572  0.0515 -0.4470  0.7449
10307TIP3    H152412   4.556   5.175   6.619 -0.2981  0.4370  2.0090
10307TIP3    H252413   4.499   5.305   6.566 -0.3556 -0.4144 -0.0706
10308TIP3   OH252414   5.771   0.320   2.244 -0.1764 -0.0334  0.0860
10308TIP3    H152415   5.691   0.346   2.290  0.2822  0.5299  0.5768
10308TIP3    H252416   5.804   0.401   2.205  0.0053 -0.3175 -0.3599
10309TIP3   OH252417   2.963   0.234  11.194 -0.6513 -0.2924  0.1660
10309TIP3    H152418   2.979   0.303  11.260  0.1024  0.0061 -0.3154
10309TIP3    H252419   2.897   0.178  11.234 -0.8903  0.4171  0.7922
10310TIP3   OH252420   4.825   6.656   1.300  0.0748  0.4285  0.0002
10310TIP3    H152421   4.777   6.708   1.236 -0.0701  0.1620 -0.1075
10310TIP3    H252422   4.827   6.568   1.263 -1.1633 -0.0288  0.9764
10311TIP3   OH252423   5.763   3.129  12.149 -0.1994  0.7250  0.7993
10311TIP3    H152424   5.762   3.200  12.084 -2.3397 -0.5404 -0.6932
10311TIP3    H252425   5.671   3.103  12.157  0.3955 -1.2078  2.0873
10312TIP3   OH252426   2.447   3.373  14.883 -0.6812 -0.2481 -0.4358
10312TIP3    H152427   2.378   3.402  14.942  0.0865  0.5569  0.0919
10312TIP3    H252428   2.463   3.282  14.907 -1.0646 -0.2232 -0.0779
10313TIP3   OH252429   1.165   0.809   0.045  0.2228 -0.0568 -0.4145
10313TIP3    H152430   1.251   0.791   0.006  0.3301  0.0233 -0.2166
10313TIP3    H252431   1.152   0.902   0.031  0.2346 -0.0397 -0.3139
10314TIP3   OH252432   0.351   5.657   5.436 -0.5734  0.2521 -0.2608
10314TIP3    H152433   0.271   5.708   5.451 -1.0313 -0.7967  1.1047
10314TIP3    H252434   0.378   5.679   5.347 -0.8681  2.6770  0.1861
10315TIP3   OH252435   0.924   3.868  11.227 -0.4832 -0.3354 -0.0085
10315TIP3    H152436   0.994   3.898  11.169  0.1278  0.1421  0.9463
10315TIP3    H252437   0.860   3.939  11.226  0.0003  0.1250  0.6586
10316TIP3   OH252438   1.331   4.446  11.070 -0.7637 -0.7262  0.8105
10316TIP3    H152439   1.237   4.453  11.053 -0.8103  1.1784  1.5285
10316TIP3    H252440   1.372   4.467  10.986 -0.9335 -2.8465  0.1477
10317TIP3   OH252441   5.815   6.513   6.017 -0.9048  0.2452 -0.2874
10317TIP3    H152442   5.894   6.521   6.071 -0.1130  0.6009 -1.4554
10317TIP3    H252443   5.789   6.604   6.000 -0.5385  0.1560 -1.3547
10318TIP3   OH252444   4.992   5.265   0.790 -0.1598  0.2702  0.5767
10318TIP3    H152445   4.906   5.258   0.749  0.0598 -1.1471  0.2966
10318TIP3    H252446   4.973   5.268   0.884 -0.5163 -0.2382  0.5271
10319TIP3   OH252447   4.106   4.799   4.245 -0.0412  0.3474 -0.2273
10319TIP3    H152448   4.061   4.871   4.289  0.2877  0.2954  0.2040
10319TIP3    H252449   4.176   4.774   4.306 -0.5160 -0.7323 -0.0905
10320TIP3   OH252450   1.981   1.696  15.056 -0.4903  0.1133  0.3761
10320TIP3    H152451   1.952   1.638  14.986  0.6408 -0.0259  0.0001
10320TIP3    H252452   2.032   1.763  15.012 -0.2686  0.3612  1.0058
10321TIP3   OH252453   1.397   4.223   1.806  0.1937 -0.2855  0.1536
10321TIP3    H152454   1.475   4.276   1.819 -0.5039  1.1969 -1.3415
10321TIP3    H252455   1.426   4.149   1.753  0.3269  1.1435 -1.8781
10322TIP3   OH252456   1.752   4.656  16.102 -0.1834  0.1950  0.8881
10322TIP3    H152457   1.818   4.709  16.058 -0.4099 -0.3974 -0.2021
10322TIP3    H252458   1.770   4.667  16.196  0.2938  1.5033  0.6573
10323TIP3   OH252459   2.767   6.528  11.953  0.1243  0.1821 -0.0461
10323TIP3    H152460   2.844   6.551  11.901  0.7844  0.2340  0.9277
10323TIP3    H252461   2.698   6.586  11.920 -0.0593 -1.1642 -2.2585
10324TIP3   OH252462   3.827   1.431   0.141 -0.1103  0.2743 -0.1309
10324TIP3    H152463   3.854   1.519   0.168  0.2229 -0.7407  3.2025
10324TIP3    H252464   3.904   1.394   0.099  0.3640  0.9116  0.1724
10325TIP3   OH252465   2.074   2.479  11.408  0.0365 -0.4618 -0.2267
10325TIP3    H152466   2.137   2.501  11.339  0.0055  1.0645  0.1789
10325TIP3    H252467   2.004   2.544  11.397  0.3966  0.3048  1.6595
10326TIP3   OH252468   4.973   6.021  16.012  0.1306  0.7398  0.4425
10326TIP3    H152469   5.065   6.046  15.999  0.3469  0.4969  1.4205
10326TIP3    H252470   4.973   5.926  16.000 -0.3335  0.9398 -1.3391
10327TIP3   OH252471   6.656   2.554  10.979  0.4120  0.0332 -0.0384
10327TIP3    H152472   6.719   2.494  11.019 -0.9359 -0.0547  2.1110
10327TIP3    H252473   6.613   2.503  10.912 -0.2977 -1.2800  1.3558
10328TIP3   OH252474   5.378   6.481  15.869 -0.7582 -0.3813  0.2250
10328TIP3    H152475   5.303   6.486  15.929  1.1402  1.6460  2.6474
10328TIP3    H252476   5.428   6.405  15.900  0.0015  0.4071  0.9611
10329TIP3   OH252477   2.624   6.597   5.147  0.0185 -0.0260 -0.3969
10329TIP3    H152478   2.571   6.542   5.205  0.6518  0.3795  0.5954
10329TIP3    H252479   2.691   6.537   5.113 -1.8093 -0.8778 -2.7399
10330TIP3   OH252480   2.103   0.540  13.094  0.1242 -0.2362  0.1062
10330TIP3    H152481   2.111   0.446  13.082  0.4219 -0.2886  0.6999
10330TIP3    H252482   2.014   0.553  13.126  1.0168 -0.6398  2.9727
10331TIP3   OH252483   2.712   1.388  16.063 -0.1267 -0.6646  0.6927
10331TIP3    H152484   2.693   1.354  15.975 -0.9155 -0.2413  0.6897
10331TIP3    H252485   2.714   1.310  16.119 -0.3880 -0.8630  0.4266
10332TIP3   OH252486   2.339   1.883  16.073 -0.2470 -0.3822 -0.6176
10332TIP3    H152487   2.297   1.802  16.100 -1.4800  0.3511 -0.2873
10332TIP3    H252488   2.433   1.866  16.082 -0.5371 -1.1952  1.1034
10333TIP3   OH252489   5.686   0.219  16.283 -0.1558 -0.1160 -0.2673
10333TIP3    H152490   5.776   0.243  16.304 -0.0829 -0.9871  0.4718
10333TIP3    H252491   5.657   0.164  16.356 -1.0660 -0.3924 -0.8047
10334TIP3   OH252492   1.878   6.348   5.815  0.0053  0.3484  0.2703
10334TIP3    H152493   1.907   6.362   5.905 -0.0872  0.8898  0.2182
10334TIP3    H252494   1.894   6.255   5.799  2.4577  0.7287  0.0103
10335TIP3   OH252495   5.985   4.150  12.266  0.0034  0.0724 -0.0670
10335TIP3    H152496   5.998   4.241  12.238 -0.1358 -0.2388 -1.1741
10335TIP3    H252497   5.897   4.127  12.235  0.9395 -1.2002 -2.0027
10336TIP3   OH252498   2.550   6.177   0.004 -0.5449  0.2345  0.5274
10336TIP3    H152499   2.515   6.181  -0.085 -1.7248  2.2511  1.0274
10336TIP3    H252500   2.627   6.120  -0.003 -0.2832  0.7853 -1.8890
10337TIP3   OH252501   1.159   3.720  13.419  0.6002  0.7752  0.2512
10337TIP3    H152502   1.242   3.677  13.440  0.0678  0.0865  0.9934
10337TIP3    H252503   1.121   3.741  13.504 -1.4332 -1.7542  0.1093
10338TIP3   OH252504   2.302   1.220  13.455 -0.0797  0.1723  0.4951
10338TIP3    H152505   2.334   1.236  13.366  0.5665  1.2656  0.9008
10338TIP3    H252506   2.377   1.185  13.502  0.1703  1.4465  1.0973
10339TIP3   OH252507   1.769   3.526   2.023  0.2810  0.4577  0.6672
10339TIP3    H152508   1.823   3.545   1.946  0.8047  0.2131  0.9717
10339TIP3    H252509   1.828   3.480   2.083 -1.1770 -3.2722 -0.4892
10340TIP3   OH252510   1.060   5.837   3.999 -0.1523  0.2656  0.0517
10340TIP3    H152511   1.112   5.874   4.071  0.5023  0.2461 -0.4053
10340TIP3    H252512   1.051   5.908   3.937  0.7026 -0.1794 -0.6092
10341TIP3   OH252513   2.480   3.802  15.353  0.2722  0.0562 -0.2701
10341TIP3    H152514   2.550   3.866  15.355 -0.4630  0.9016 -1.0282
10341TIP3    H252515   2.406   3.846  15.395 -0.2162 -0.3268 -0.7140
10342TIP3   OH252516   0.490   2.015   2.260  0.1562  0.4449  0.3095
10342TIP3    H152517   0.560   1.977   2.314  1.5555  0.8956 -1.1165
10342TIP3    H252518   0.436   2.064   2.322  1.2183  0.2589  1.4261
10343TIP3   OH252519   6.005   6.843   5.469 -0.3917 -0.2797 -0.0921
10343TIP3    H152520   6.051   6.848   5.553 -0.6401 -0.3897  0.0514
10343TIP3    H252521   6.012   6.931   5.433 -1.3757  0.1162  0.6286
10344TIP3   OH252522   5.390   1.731   4.577  0.2701  0.4667  0.3390
10344TIP3    H152523   5.387   1.796   4.646  4.0461  1.1185  0.0787
10344TIP3    H252524   5.391   1.647   4.622 -1.5230  0.6562  0.8021
10345TIP3   OH252525   3.689   1.995   3.248 -0.1035 -0.6120 -0.0365
10345TIP3    H152526   3.662   2.079   3.210  0.5262  0.7348  2.3138
10345TIP3    H252527   3.670   1.931   3.180  0.5016  1.5616 -2.3856
10346TIP3   OH252528   3.379   5.715  12.588 -0.1763  1.1417  0.3289
10346TIP3    H152529   3.411   5.687  12.502 -0.2453  2.3356 -0.1083
10346TIP3    H252530   3.374   5.810  12.582 -0.1783  1.2472  1.6719
10347TIP3   OH252531   2.849   4.504   2.352  0.5439  0.0365 -0.0068
10347TIP3    H152532   2.863   4.461   2.436  0.7055 -2.3599 -1.1971
10347TIP3    H252533   2.762   4.476   2.324  0.2967  1.1760 -0.4686
10348TIP3   OH252534   5.732   2.526  11.797 -0.3949  0.7539  0.0925
10348TIP3    H152535   5.758   2.603  11.847  2.7492 -0.7489  1.0356
10348TIP3    H252536   5.638   2.537  11.783 -0.5845  3.3746  2.5593
10349TIP3   OH252537   5.709   0.940  12.768 -0.8122 -0.1089 -0.2521
10349TIP3    H152538   5.704   1.034  12.754 -0.4098  0.0987  0.8989
10349TIP3    H252539   5.715   0.930  12.863  0.4074 -1.2341 -0.4254
10350TIP3   OH252540   1.682   0.587  14.334 -0.2064 -0.1200  0.2573
10350TIP3    H152541   1.696   0.573  14.428 -0.4252  0.4267  0.3744
10350TIP3    H252542   1.692   0.681  14.322 -0.4476 -0.1533 -0.2248
10351TIP3   OH252543   2.930   2.608  14.570 -0.1472 -0.0493  0.2897
10351TIP3    H152544   2.878   2.553  14.511 -1.0324  1.2371 -0.1918
10351TIP3    H252545   2.886   2.600  14.655 -1.1182  0.9422 -0.0897
10352TIP3   OH252546   1.828   6.318   1.177  0.1042  0.4286  0.0865
10352TIP3    H152547   1.813   6.331   1.083  1.3660 -1.7055 -0.4878
10352TIP3    H252548   1.773   6.384   1.220 -1.0040  1.0282 -2.1150
10353TIP3   OH252549   0.447   6.572  14.315  1.1022  0.0787  0.2487
10353TIP3    H152550   0.525   6.555  14.261  1.8695 -1.0061  1.6335
10353TIP3    H252551   0.380   6.597  14.252  2.6978  1.6341 -0.9497
10354TIP3   OH252552   6.470   3.229  11.147 -0.3223  0.0007  0.7995
10354TIP3    H152553   6.422   3.185  11.217 -0.7643 -0.8590 -0.0221
10354TIP3    H252554   6.408   3.292  11.111  0.1303  0.9364  1.6119
10355TIP3   OH252555   6.241   4.108  11.480 -0.5351  0.2354 -0.4662
10355TIP3    H152556   6.149   4.125  11.501 -0.4804  1.1392 -0.8812
10355TIP3    H252557   6.242   4.018  11.448 -0.9505 -0.4563  1.3430
10356TIP3   OH252558   0.161   1.975   4.936  0.0943 -0.3618  0.8577
10356TIP3    H152559   0.136   2.040   5.001  0.5575  0.9100 -0.1837
10356TIP3    H252560   0.252   1.953   4.957  0.2617  0.0897  0.6335
10357TIP3   OH252561   3.325   1.328  15.019  0.8608 -0.7694  0.1360
10357TIP3    H152562   3.303   1.244  14.980  0.1954 -0.0768 -1.0031
10357TIP3    H252563   3.267   1.391  14.977  1.3109  0.2612  1.0091
10358TIP3   OH252564   3.691   6.376   3.155  0.4150  0.2266  0.2042
10358TIP3    H152565   3.727   6.431   3.224  2.4392 -0.8034  0.0553
10358TIP3    H252566   3.768   6.339   3.111 -0.8107  0.2850 -2.1586
10359TIP3   OH252567   5.019   3.862  16.438 -0.0332 -0.3037  0.0015
10359TIP3    H152568   5.055   3.783  16.398 -0.9049 -0.1448 -1.1270
10359TIP3    H252569   5.001   3.921  16.365  3.7740  2.4110  0.9491
10360TIP3   OH252570   1.857   2.957   3.946  0.6187  0.1319  0.3685
10360TIP3    H152571   1.891   2.946   4.034  0.1569 -1.1227  0.4156
10360TIP3    H252572   1.797   3.031   3.952  0.1151 -0.3337  1.2576
10361TIP3   OH252573   3.721   3.524   2.267 -0.1395  0.1543 -0.2254
10361TIP3    H152574   3.645   3.581   2.279 -0.8207 -0.5727 -0.9605
10361TIP3    H252575   3.757   3.513   2.355 -1.9311 -0.8785  0.4263
10362TIP3   OH252576   3.695   1.805  13.620  0.0355  0.3380 -0.2050
10362TIP3    H152577   3.715   1.766  13.704 -0.5117 -0.2306 -0.3319
10362TIP3    H252578   3.662   1.733  13.566 -0.3025  0.8234 -0.6738
10363TIP3   OH252579   1.905   5.444  15.523  0.0451  0.1901  0.0852
10363TIP3    H152580   1.964   5.462  15.595  0.0555 -0.5719  0.2761
10363TIP3    H252581   1.897   5.349  15.522  0.0798  0.1881 -0.9480
10364TIP3   OH252582   1.590   2.132  14.896 -0.2699 -0.4024  0.0672
10364TIP3    H152583   1.635   2.212  14.869  0.4009 -0.8997 -0.3306
10364TIP3    H252584   1.531   2.160  14.967 -0.0940  0.4450 -0.1096
10365TIP3   OH252585   4.309   3.608   2.767  0.0150  0.4712 -0.0930
10365TIP3    H152586   4.321   3.561   2.850  0.6102 -0.5701 -0.7355
10365TIP3    H252587   4.239   3.560   2.723 -0.9114  1.5565  0.1653
10366TIP3   OH252588   3.247   6.641  11.203  0.3471  0.1184  0.0682
10366TIP3    H152589   3.259   6.602  11.290 -1.1134 -0.5104  0.0126
10366TIP3    H252590   3.155   6.667  11.201  0.1406 -0.6415 -1.5988
10367TIP3   OH252591   3.392   6.560   5.728 -0.1346 -0.3649 -0.0648
10367TIP3    H152592   3.389   6.621   5.654 -0.2653  1.5492  1.4377
10367TIP3    H252593   3.301   6.542   5.749 -0.1612  0.8958  1.0011
10368TIP3   OH252594   4.710   1.610  13.066 -0.1871 -0.5591  0.2118
10368TIP3    H152595   4.715   1.704  13.084 -0.3755 -0.1964 -1.4869
10368TIP3    H252596   4.631   1.581  13.112 -0.6738  0.3158 -0.0600
10369TIP3   OH252597   3.073   2.078  16.457  0.3600  0.1774  0.1473
10369TIP3    H152598   3.063   2.126  16.374  1.5352  1.2623  0.5947
10369TIP3    H252599   2.989   2.089  16.501  0.7779  2.4791  0.5292
10370TIP3   OH252600   1.602   5.276  12.327 -0.2143 -0.3319  0.1710
10370TIP3    H152601   1.680   5.331  12.336  0.5644 -0.5665 -3.6954
10370TIP3    H252602   1.537   5.318  12.385  1.6503  2.0192  0.7185
10371TIP3   OH252603   2.999   6.812   1.462  0.1465  0.2923  0.0207
10371TIP3    H152604   3.025   6.827   1.553 -1.1043 -0.4619  0.5154
10371TIP3    H252605   3.056   6.870   1.412  1.5219  0.0156  1.1985
10372TIP3   OH252606   3.171   0.346  13.438 -0.0468 -0.2351  0.9171
10372TIP3    H152607   3.238   0.386  13.494 -0.6726  0.7589  0.9913
10372TIP3    H252608   3.125   0.285  13.496 -2.1453  2.3746  2.2356
10373TIP3   OH252609   6.563   5.894   4.530 -0.2388  0.2787 -0.2268
10373TIP3    H152610   6.642   5.904   4.582  0.4414 -1.4479 -0.8369
10373TIP3    H252611   6.532   5.805   4.549 -0.2200 -0.2568 -2.3427
10374TIP3   OH252612   4.582   3.541   2.439 -0.1968  0.0924 -0.1516
10374TIP3    H152613   4.496   3.499   2.436 -0.2045  0.1395 -1.2835
10374TIP3    H252614   4.603   3.548   2.532 -0.9108 -0.9512  0.1085
10375TIP3   OH252615   4.008   0.778  12.816 -0.5045 -0.3350 -0.8173
10375TIP3    H152616   4.026   0.757  12.724  0.1056  2.8774 -1.5533
10375TIP3    H252617   3.927   0.829  12.814 -0.9258 -0.9231  0.5384
10376TIP3   OH252618   1.127   5.501  12.194 -0.2412  0.3723 -0.0837
10376TIP3    H152619   1.184   5.425  12.182 -0.8499  0.0108 -0.7330
10376TIP3    H252620   1.042   5.464  12.217 -0.7009  0.8210 -0.9988
10377TIP3   OH252621   3.082   1.755   6.480 -0.3362 -0.2127 -0.4778
10377TIP3    H152622   3.047   1.841   6.458  0.8790  0.5257  0.3319
10377TIP3    H252623   3.174   1.771   6.502 -0.2530 -1.6087  0.3641
10378TIP3   OH252624   4.347   0.270  14.970 -0.7586  0.9135 -0.2474
10378TIP3    H152625   4.375   0.354  14.933 -2.1165  0.6667 -1.9602
10378TIP3    H252626   4.426   0.234  15.010  1.2945  0.5695 -4.1587
10379TIP3   OH252627   2.769   1.161   1.679 -0.3534 -0.3106 -0.0494
10379TIP3    H152628   2.805   1.086   1.727 -1.0132 -0.3301  0.4170
10379TIP3    H252629   2.776   1.135   1.587  0.4737 -0.4701  0.0457
10380TIP3   OH252630   0.585   3.640   0.577 -0.0639 -0.6434  0.1074
10380TIP3    H152631   0.657   3.587   0.610  0.4110 -0.3835 -0.4980
10380TIP3    H252632   0.511   3.580   0.571  0.2246 -1.0161  0.3160
10381TIP3   OH252633   1.247   5.242   0.014  0.8543 -0.5437  1.1180
10381TIP3    H152634   1.177   5.277   0.070  0.8343 -1.1886  1.5083
10381TIP3    H252635   1.202   5.215  -0.066  0.9634  0.8957  0.5446
10382TIP3   OH252636   6.091   2.597   4.593 -0.0778  0.1066  0.3734
10382TIP3    H152637   6.099   2.627   4.502 -3.0493  0.9866  0.2902
10382TIP3    H252638   6.161   2.533   4.603  1.1631  0.9121 -2.1175
10383TIP3   OH252639   4.043   5.091  11.422 -0.0322  0.5255  0.0666
10383TIP3    H152640   3.977   5.133  11.367 -0.4431  1.7825  1.4604
10383TIP3    H252641   3.999   5.013  11.456 -0.4048  0.7499  0.1004
10384TIP3   OH252642   3.279   3.167  14.525  0.2124 -0.2341 -0.1914
10384TIP3    H152643   3.289   3.261  14.544 -1.7018  0.2399 -1.2256
10384TIP3    H252644   3.354   3.146  14.469 -0.6356  1.3728 -2.0742
10385TIP3   OH252645   1.362   5.278   5.814 -0.0514 -0.0618 -0.0133
10385TIP3    H152646   1.316   5.291   5.896 -0.4741  1.0393 -0.3997
10385TIP3    H252647   1.430   5.346   5.813  0.4344 -0.5420 -0.2392
10386TIP3   OH252648   4.733   1.568   2.695  0.2029 -0.4540  0.2158
10386TIP3    H152649   4.792   1.499   2.725 -0.4175 -0.7489  0.7998
10386TIP3    H252650   4.725   1.555   2.601  1.1268 -0.3538  0.1130
10387TIP3   OH252651   6.115   6.550  12.290 -0.4615  0.1397 -0.3400
10387TIP3    H152652   6.039   6.523  12.239  0.3717 -0.9503 -1.0692
10387TIP3    H252653   6.130   6.641  12.265 -0.3238 -0.2488 -1.7721
10388TIP3   OH252654   4.613   2.442  12.351  0.0722  0.4137 -0.6782
10388TIP3    H152655   4.647   2.418  12.265 -0.7747 -1.6692 -0.4956
10388TIP3    H252656   4.641   2.370  12.408 -1.6687  0.3961  0.1989
10389TIP3   OH252657   3.260   1.476  13.507 -0.9759 -0.1342 -0.4190
10389TIP3    H152658   3.253   1.487  13.412  0.7593  1.4645 -0.4283
10389TIP3    H252659   3.235   1.385  13.523  2.4617 -1.7343 -2.8902
10390TIP3   OH252660   0.833   4.433  12.913  0.0131 -0.1625 -0.0029
10390TIP3    H152661   0.869   4.495  12.849  0.1339 -1.8671 -1.6623
10390TIP3    H252662   0.911   4.394  12.954 -0.0415 -0.1423  0.1200
10391TIP3   OH252663   4.406   5.756  15.195 -0.4779  0.3160  0.3152
10391TIP3    H152664   4.370   5.707  15.269  1.1504 -0.7031  0.4584
10391TIP3    H252665   4.429   5.841  15.233 -0.8436  0.2633  0.6736
10392TIP3   OH252666   3.379   1.850   3.838  0.7852  0.3907 -0.2349
10392TIP3    H152667   3.300   1.863   3.786  0.0040 -1.0911  0.5305
10392TIP3    H252668   3.442   1.912   3.801 -0.6152  1.3818 -1.0663
10393TIP3   OH252669   1.751   2.793   4.979 -0.2038 -0.0069 -0.2090
10393TIP3    H152670   1.778   2.789   5.071  1.8019 -1.1852 -0.7869
10393TIP3    H252671   1.680   2.857   4.977 -1.7070 -1.4106  2.4770
10394TIP3   OH252672   3.532   3.327  13.704 -0.2823 -0.1286  0.5932
10394TIP3    H152673   3.625   3.303  13.713 -1.0087 -3.0115  1.6859
10394TIP3    H252674   3.487   3.243  13.691 -3.0584  0.7766  3.2272
10395TIP3   OH252675   1.761   3.465  15.778 -0.2827  0.7632  0.4614
10395TIP3    H152676   1.732   3.515  15.854  0.4506 -0.5921  1.6825
10395TIP3    H252677   1.800   3.385  15.815 -0.1308 -0.0512 -1.3476
10396TIP3   OH252678   2.258   3.733   2.709  0.5624  0.2891  0.0064
10396TIP3    H152679   2.163   3.732   2.695  0.7411 -0.6842 -1.2572
10396TIP3    H252680   2.272   3.808   2.767 -0.9299  0.6810 -0.0897
10397TIP3   OH252681   2.326   2.438   0.381 -0.0780 -0.4261  0.5003
10397TIP3    H152682   2.289   2.432   0.292  0.2546  1.4597  0.1823
10397TIP3    H252683   2.411   2.395   0.375  0.3024  0.4058 -0.3397
10398TIP3   OH252684   3.195   0.848   4.932  0.2972  0.5923  0.0995
10398TIP3    H152685   3.124   0.886   4.984  0.1544  1.8287 -0.9531
10398TIP3    H252686   3.159   0.766   4.899 -0.1577  0.5500  0.6826
10399TIP3   OH252687   4.456   2.332   1.354 -0.1050  0.0227 -0.8063
10399TIP3    H152688   4.394   2.262   1.377  0.5281 -0.5473 -0.8274
10399TIP3    H252689   4.424   2.365   1.270 -0.4852 -0.1503 -0.7322
10400TIP3   OH252690   2.628   4.267  12.499 -0.2486 -0.3437 -0.8090
10400TIP3    H152691   2.714   4.230  12.479  0.5307 -0.0832  1.6813
10400TIP3    H252692   2.608   4.235  12.587 -2.6677 -0.2708 -1.2663
10401TIP3   OH252693   6.216   3.907  15.902  0.4034  0.0012  0.3783
10401TIP3    H152694   6.220   3.998  15.932 -2.2468 -0.2736  1.8234
10401TIP3    H252695   6.207   3.914  15.807 -2.6214  1.4701  0.6561
10402TIP3   OH252696   0.866   6.376  14.594  0.3140  0.7419  0.0308
10402TIP3    H152697   0.945   6.343  14.551  0.8241  1.6734  0.2339
10402TIP3    H252698   0.898   6.435  14.663 -0.5499  3.4813 -1.7402
10403TIP3   OH252699   3.212   0.126   5.266 -0.0853 -0.0573 -0.1997
10403TIP3    H152700   3.171   0.144   5.351 -0.7309  3.0602 -1.0247
10403TIP3    H252701   3.277   0.196   5.257  0.7162 -0.9720 -1.8456
10404TIP3   OH252702   4.424   3.338   0.033 -0.2210  0.0523  0.2177
10404TIP3    H152703   4.416   3.433   0.044  0.0157 -0.1555  2.7765
10404TIP3    H252704   4.479   3.327  -0.044 -1.2736  1.9484 -0.8830
10405TIP3   OH252705   1.979   0.144  12.219 -0.2130  0.0632 -0.0090
10405TIP3    H152706   2.031   0.067  12.194 -1.6026 -0.3857 -1.7455
10405TIP3    H252707   2.039   0.218  12.207  0.4832 -0.5630 -0.5003
10406TIP3   OH252708   6.118   4.631  15.927  0.4168 -0.2727  0.1423
10406TIP3    H152709   6.122   4.724  15.951  0.8339 -0.5896  1.3435
10406TIP3    H252710   6.194   4.618  15.869 -0.2161  0.3480 -0.8522
10407TIP3   OH252711   4.836   0.781   3.123 -0.2400  0.0560 -0.1697
10407TIP3    H152712   4.924   0.753   3.095 -0.0481  0.8060 -0.3504
10407TIP3    H252713   4.786   0.787   3.042 -0.9875 -2.0442  0.0778
10408TIP3   OH252714   3.496   5.411   5.094  0.1517 -0.4841  0.5680
10408TIP3    H152715   3.459   5.462   5.166 -1.9514 -0.0129 -0.7627
10408TIP3    H252716   3.419   5.375   5.049  1.4409 -1.2354 -1.1024
10409TIP3   OH252717   1.681   6.194  13.229 -0.9454  0.8516  0.6169
10409TIP3    H152718   1.754   6.224  13.283  0.8091 -2.9921  0.6513
10409TIP3    H252719   1.603   6.213  13.282  0.3456  1.3816  2.4072
10410TIP3   OH252720   6.329   5.497   4.176 -0.7356 -0.0232  0.0103
10410TIP3    H152721   6.293   5.506   4.265  0.8931  1.9318  0.5429
10410TIP3    H252722   6.418   5.466   4.190 -0.0058  1.6011 -0.8142
10411TIP3   OH252723   6.387   1.046   4.792  0.3751 -0.5099 -0.4564
10411TIP3    H152724   6.406   1.133   4.829  0.5428 -1.7963  2.8498
10411TIP3    H252725   6.455   1.033   4.726  2.3951  0.6052  1.2702
10412TIP3   OH252726   0.110   0.733  12.849 -0.0784  0.1426 -0.3346
10412TIP3    H152727   0.047   0.662  12.834 -0.8651  0.6026  0.6350
10412TIP3    H252728   0.159   0.705  12.927  0.8662 -0.1594 -1.0193
10413TIP3   OH252729   5.124   6.447  12.113 -0.8867  0.1512  0.2280
10413TIP3    H152730   5.207   6.445  12.065 -0.5446 -1.7323  0.7971
10413TIP3    H252731   5.059   6.472  12.048 -0.2802 -1.2598 -0.9909
10414TIP3   OH252732   0.171   5.052   4.322 -0.3561  0.1066 -0.0685
10414TIP3    H152733   0.178   5.100   4.405 -1.1300 -0.2040  0.1848
10414TIP3    H252734   0.088   5.005   4.328  1.0233 -2.4771  0.3461
10415TIP3   OH252735   0.747   2.176  13.095 -0.3341  0.0903  0.2581
10415TIP3    H152736   0.710   2.262  13.071  1.3326  0.6427 -0.5425
10415TIP3    H252737   0.736   2.123  13.016  0.6884  0.3208 -0.0569
10416TIP3   OH252738   1.081   6.694   2.704  0.2720 -0.2668 -0.0420
10416TIP3    H152739   1.173   6.667   2.695  0.4633 -0.7415  2.5717
10416TIP3    H252740   1.032   6.612   2.709 -0.2700 -0.0136 -0.9636
10417TIP3   OH252741   5.296   1.492   1.352  0.0252  0.6933 -0.1125
10417TIP3    H152742   5.210   1.514   1.390  0.2592 -1.6131  2.0819
10417TIP3    H252743   5.276   1.427   1.285  0.0418 -0.1656  0.6938
10418TIP3   OH252744   6.113   1.970  10.977  0.1903  0.6029  0.4315
10418TIP3    H152745   6.026   1.952  10.941 -0.7719  1.9124  1.9644
10418TIP3    H252746   6.173   1.942  10.908 -1.4332 -0.2025 -0.7383
10419TIP3   OH252747   0.306   5.795   1.372  0.1393 -0.1506  0.0177
10419TIP3    H152748   0.352   5.871   1.405 -0.9186  0.3096  0.4911
10419TIP3    H252749   0.341   5.781   1.284  1.3948 -0.0332  0.4829
10420TIP3   OH252750   4.628   0.724  14.374  0.0735 -0.4564  0.1988
10420TIP3    H152751   4.634   0.631  14.350 -0.9806 -0.5085  0.1033
10420TIP3    H252752   4.586   0.765  14.299 -0.4921 -0.0954  0.7114
10421TIP3   OH252753   5.794   1.817   1.503  0.4884 -0.1932 -0.0438
10421TIP3    H152754   5.740   1.742   1.529  0.0646  0.7952  2.2452
10421TIP3    H252755   5.878   1.801   1.547 -0.5549  2.0058  3.1284
10422TIP3   OH252756   5.200   0.151   2.286  0.2936  0.2911  0.1015
10422TIP3    H152757   5.170   0.086   2.223  0.7861 -1.6507  1.7778
10422TIP3    H252758   5.282   0.184   2.249 -0.4629  0.7463 -1.2458
10423TIP3   OH252759   1.580   4.182  13.862  0.2140 -0.3933  0.0608
10423TIP3    H152760   1.521   4.179  13.938 -0.0701  1.4975 -0.0537
10423TIP3    H252761   1.635   4.258  13.877 -0.6810  0.8061 -2.2005
10424TIP3   OH252762   6.311   6.010  10.610 -0.4700 -0.3397  0.7957
10424TIP3    H152763   6.306   6.060  10.691 -1.8974 -0.5213  0.8456
10424TIP3    H252764   6.402   6.020  10.581 -0.4363  1.3364  1.3864
10425TIP3   OH252765   1.981   6.768   1.617  0.1716 -0.1183  0.1663
10425TIP3    H152766   1.898   6.764   1.570 -0.6811  0.0744  1.5871
10425TIP3    H252767   1.979   6.693   1.675  1.2117 -0.3678 -0.0984
10426TIP3   OH252768   4.181   2.247   6.392 -0.3160  0.0995 -0.1160
10426TIP3    H152769   4.237   2.252   6.469 -2.6318  0.8055  1.6683
10426TIP3    H252770   4.215   2.314   6.333  2.0994 -1.1082 -0.2135
10427TIP3   OH252771   3.204   0.845   2.818  0.0326 -0.1308  0.2859
10427TIP3    H152772   3.186   0.927   2.864 -1.7565 -1.2870  1.8081
10427TIP3    H252773   3.263   0.797   2.877  1.5320  0.2182 -0.8525
10428TIP3   OH252774   6.315   5.827  13.110  0.3417  0.1136 -0.7179
10428TIP3    H152775   6.380   5.873  13.164  1.4110  1.0797 -2.7158
10428TIP3    H252776   6.320   5.736  13.139  2.2976  0.2470 -0.4836
10429TIP3   OH252777   1.630   4.508   1.434 -0.4087  0.7791  0.4280
10429TIP3    H152778   1.617   4.599   1.462  0.5071  1.3847 -1.0184
10429TIP3    H252779   1.623   4.511   1.338 -0.1380 -0.6446  0.3408
10430TIP3   OH252780   3.473   6.775  11.095 -0.1101 -0.0478  0.3401
10430TIP3    H152781   3.561   6.744  11.119 -0.5992 -2.2835 -0.4820
10430TIP3    H252782   3.414   6.706  11.126 -1.4376  0.6919 -0.4600
10431TIP3   OH252783   2.375   0.914  14.567  0.4951  0.4517 -0.2827
10431TIP3    H152784   2.354   1.001  14.531 -1.5331  0.1826  0.1235
10431TIP3    H252785   2.340   0.917  14.656 -0.4621 -1.1035 -0.5897
10432TIP3   OH252786   3.134   6.509   3.012 -0.1893 -0.2687 -0.1618
10432TIP3    H152787   3.054   6.561   3.015  0.0187  0.0127  0.6607
10432TIP3    H252788   3.205   6.573   3.004  0.0944 -0.3927  1.2115
10433TIP3   OH252789   1.360   3.260   5.994  0.0416  0.1191 -0.0744
10433TIP3    H152790   1.393   3.274   5.905  0.2881  2.7712  0.3825
10433TIP3    H252791   1.345   3.347   6.029 -0.8815 -0.8773  2.2242
10434TIP3   OH252792   3.232   6.712   3.813 -0.1576 -0.3191 -0.0109
10434TIP3    H152793   3.239   6.630   3.763 -1.1949 -1.1170  1.1006
10434TIP3    H252794   3.226   6.780   3.746  0.8704 -1.1179 -0.9604
10435TIP3   OH252795   4.096   3.402  11.579 -0.2713  0.1509 -0.3459
10435TIP3    H152796   4.084   3.442  11.492  0.4103  2.9448  0.7611
10435TIP3    H252797   4.017   3.425  11.627  0.4960  0.9233  0.5829
10436TIP3   OH252798   0.175   4.624  11.977  0.1645  1.0177 -0.6144
10436TIP3    H152799   0.113   4.555  12.004  1.4251  1.0633  3.0269
10436TIP3    H252800   0.229   4.582  11.910 -1.5838 -0.1461 -1.3916
10437TIP3   OH252801   0.114   2.588  12.676 -0.7395 -0.2930 -0.6674
10437TIP3    H152802   0.050   2.522  12.701  0.6751 -1.1331  0.9107
10437TIP3    H252803   0.088   2.666  12.726  0.7204 -1.2955  1.8128
10438TIP3   OH252804   2.450   5.721   0.761 -0.0421  0.1177 -0.0027
10438TIP3    H152805   2.454   5.815   0.776  0.0213  0.0309  0.5513
10438TIP3    H252806   2.396   5.711   0.683 -1.7072  0.5167  1.0573
10439TIP3   OH252807   5.665   6.165  10.898  0.3184 -0.3783 -0.1461
10439TIP3    H152808   5.679   6.238  10.838  0.6702 -1.2329 -1.1263
10439TIP3    H252809   5.631   6.206  10.978  1.2174  0.9207 -0.4091
10440TIP3   OH252810   4.810   2.869  12.727  0.5589 -0.4822 -0.4492
10440TIP3    H152811   4.906   2.865  12.720  0.5219 -2.5423 -0.4713
10440TIP3    H252812   4.779   2.806  12.662 -0.8503  0.4107 -0.6800
10441TIP3   OH252813   0.114   5.761  13.687 -0.5325 -0.0660  0.6413
10441TIP3    H152814   0.191   5.812  13.658  0.6782 -1.9339  0.4197
10441TIP3    H252815   0.061   5.824  13.736 -0.1971  1.9532 -1.4317
10442TIP3   OH252816   2.199   5.691   5.146 -0.4166 -0.0314 -0.2510
10442TIP3    H152817   2.237   5.712   5.061 -0.0593 -1.8715 -0.5908
10442TIP3    H252818   2.121   5.639   5.126 -0.1945 -0.6971  0.5389
10443TIP3   OH252819   2.149   0.632  14.451 -0.3955  0.3852  0.1927
10443TIP3    H152820   2.208   0.707  14.456 -2.5741  2.1645  1.2978
10443TIP3    H252821   2.087   0.655  14.382 -1.4580 -0.0767  0.9669
10444TIP3   OH252822   6.346   0.620  15.022 -0.0077 -0.0946  0.4088
10444TIP3    H152823   6.340   0.714  15.034 -0.2086  0.0608 -0.7957
10444TIP3    H252824   6.310   0.604  14.935  2.9800 -0.8996 -0.8041
10445TIP3   OH252825   5.515   4.316  14.900 -0.0566 -0.2564  0.0541
10445TIP3    H152826   5.464   4.364  14.965 -0.5522 -1.0219  0.2440
10445TIP3    H252827   5.556   4.384  14.846 -0.2883  0.3775  0.6600
10446TIP3   OH252828   3.289   0.422  11.830 -0.4549  0.1452 -0.1780
10446TIP3    H152829   3.223   0.375  11.881 -1.2336 -1.0118 -2.1078
10446TIP3    H252830   3.245   0.442  11.748  1.4585 -0.3333 -1.3822
10447TIP3   OH252831   0.170   1.483   2.725  0.1113 -0.2623  0.3792
10447TIP3    H152832   0.132   1.458   2.810 -0.0753  0.8237  0.6249
10447TIP3    H252833   0.144   1.412   2.666  0.4124 -1.1404  1.2636
10448TIP3   OH252834   4.584   4.495  12.481  0.9150  0.3647  0.5027
10448TIP3    H152835   4.633   4.572  12.453  0.1430  1.5194  2.1957
10448TIP3    H252836   4.585   4.499  12.577 -0.3865 -0.9266  0.5984
10449TIP3   OH252837   6.029   1.321   1.363 -0.3245 -0.0863 -0.5377
10449TIP3    H152838   6.062   1.275   1.286 -1.2154 -0.5798 -0.6487
10449TIP3    H252839   6.082   1.287   1.436  0.2595  0.0936 -0.8737
10450TIP3   OH252840   5.422   6.030  16.224  0.0341 -0.3536  0.4849
10450TIP3    H152841   5.379   5.997  16.303 -0.6936  0.4648  0.4367
10450TIP3    H252842   5.384   5.978  16.153 -2.2946  1.5357  0.2123
10451TIP3   OH252843   2.192   2.852   4.549  0.2655  0.0013 -0.6834
10451TIP3    H152844   2.153   2.895   4.473  0.2959  0.2440 -0.5606
10451TIP3    H252845   2.285   2.845   4.528  0.0331 -1.4550 -1.4055
10452TIP3   OH252846   1.009   2.956  16.637  0.4972 -0.5329  0.2786
10452TIP3    H152847   0.985   3.032  16.690 -1.7546 -0.4090 -0.8173
10452TIP3    H252848   0.989   2.982  16.547  2.3575 -1.4544 -0.4659
10453TIP3   OH252849   5.347   0.499  15.171  0.0115  0.1083 -0.3093
10453TIP3    H152850   5.336   0.592  15.152  0.1994  0.1082 -0.4282
10453TIP3    H252851   5.274   0.457  15.126 -0.1955  0.2174 -0.0763
10454TIP3   OH252852   1.278   5.434   1.987 -0.0999 -0.0286  0.4061
10454TIP3    H152853   1.336   5.433   2.063 -1.6201 -1.0327  1.6050
10454TIP3    H252854   1.258   5.341   1.972 -0.1796  0.1941 -0.9656
10455TIP3   OH252855   0.727   3.511  16.814 -0.4020 -0.5197  0.2885
10455TIP3    H152856   0.747   3.604  16.815 -0.3178 -0.5402  0.4849
10455TIP3    H252857   0.812   3.468  16.826 -0.3257 -0.6359 -0.5836
10456TIP3   OH252858   1.932   4.392   1.336 -0.1136  0.0495 -0.0324
10456TIP3    H152859   1.885   4.473   1.318  0.1840 -0.0639 -1.4563
10456TIP3    H252860   1.874   4.323   1.303  0.3336 -0.1919 -0.3296
10457TIP3   OH252861   5.310   1.029  14.980  0.1752  0.0764 -0.0223
10457TIP3    H152862   5.276   1.087  14.913 -2.3412 -0.1322  0.9749
10457TIP3    H252863   5.267   1.057  15.061  1.1380 -1.3190  1.0335
10458TIP3   OH252864   1.188   1.470  11.561 -0.1674 -0.7319  0.0899
10458TIP3    H152865   1.093   1.463  11.568 -0.2403 -0.1379 -0.2217
10458TIP3    H252866   1.203   1.508  11.474  0.3525 -0.8185  0.1383
10459TIP3   OH252867   5.649   2.765  12.793 -0.2734  0.1595 -0.1547
10459TIP3    H152868   5.730   2.730  12.830 -1.5191 -0.6186  1.9647
10459TIP3    H252869   5.664   2.860  12.789 -0.0656  0.2995  2.4705
10460TIP3   OH252870   4.092   3.350   2.867 -0.0161  0.5465  0.1006
10460TIP3    H152871   4.119   3.259   2.879  0.3350  0.5469 -0.6276
10460TIP3    H252872   3.998   3.350   2.882 -0.2339 -0.1773 -1.1725
10461TIP3   OH252873   3.316   3.516  10.946 -0.1321 -0.0432 -0.2676
10461TIP3    H152874   3.272   3.600  10.953 -1.2178 -0.7030  1.8535
10461TIP3    H252875   3.285   3.466  11.022  1.4299 -1.9111 -0.7579
10462TIP3   OH252876   5.574   6.545   0.710 -0.2719 -0.1511 -0.5881
10462TIP3    H152877   5.485   6.534   0.677  0.2559  0.3593 -2.3511
10462TIP3    H252878   5.567   6.616   0.775 -1.2139 -0.4392 -0.3614
10463TIP3   OH252879   4.252   4.958  15.864 -0.1360  0.2539  0.5857
10463TIP3    H152880   4.264   4.962  15.769  2.0827 -1.0217  0.7490
10463TIP3    H252881   4.208   5.040  15.886  0.1645  1.0102 -1.4219
10464TIP3   OH252882   4.866   6.133  14.212 -0.3370 -0.2690  0.3429
10464TIP3    H152883   4.772   6.117  14.206 -0.6515  1.3724  0.2567
10464TIP3    H252884   4.901   6.057  14.258 -2.0802  0.1704  2.5966
10465TIP3   OH252885   5.318   6.745   5.728  0.0013 -0.1465 -0.1360
10465TIP3    H152886   5.261   6.823   5.725 -1.0026 -0.7362  1.8920
10465TIP3    H252887   5.325   6.717   5.636 -2.3158  0.4423 -0.5638
10466TIP3   OH252888   6.739   2.252  14.745 -0.7566 -0.3820 -0.3361
10466TIP3    H152889   6.756   2.346  14.745 -2.9619  0.1218  1.7658
10466TIP3    H252890   6.793   2.218  14.816 -1.5214 -0.2886  0.3152
10467TIP3   OH252891   6.402   6.684  13.719 -0.6513  0.1177 -0.2303
10467TIP3    H152892   6.350   6.606  13.734  0.9382 -1.0600 -0.5113
10467TIP3    H252893   6.396   6.700  13.624 -0.1265 -0.3351 -0.3503
10468TIP3   OH252894   5.591   2.916   5.060 -0.6330 -0.3150 -0.0531
10468TIP3    H152895   5.587   2.882   4.970  1.2816  0.3343 -0.4363
10468TIP3    H252896   5.675   2.884   5.094 -1.0211  0.0172  1.2773
10469TIP3   OH252897   2.478   5.921  11.581 -0.0737 -0.1838 -0.1685
10469TIP3    H152898   2.416   5.915  11.654  0.9210  1.0983  0.8243
10469TIP3    H252899   2.456   5.846  11.525 -0.6035 -1.4680  1.6500
10470TIP3   OH252900   3.265   0.416   4.112 -0.0564 -0.2080  0.4015
10470TIP3    H152901   3.210   0.451   4.183 -2.4530 -2.0150 -0.4154
10470TIP3    H252902   3.208   0.421   4.035  1.5144 -0.7947 -0.8345
10471TIP3   OH252903   0.812   3.514   2.060 -0.6353 -0.2035 -0.5097
10471TIP3    H152904   0.879   3.564   2.014 -0.7988 -0.2619 -0.8146
10471TIP3    H252905   0.854   3.430   2.079  0.1499  0.5290  1.3053
10472TIP3   OH252906   4.748   5.038  10.858 -0.1718 -0.5554  0.4583
10472TIP3    H152907   4.835   5.041  10.819 -1.4204  0.7461 -2.5428
10472TIP3    H252908   4.737   5.123  10.900 -1.0394  0.6070 -1.9370
10473TIP3   OH252909   5.731   1.267   2.559 -0.3153  0.2553 -0.2066
10473TIP3    H152910   5.741   1.225   2.473 -0.7867 -0.7977  0.2434
10473TIP3    H252911   5.801   1.332   2.562 -0.8241  0.9331 -1.7446
10474TIP3   OH252912   0.555   2.960  15.533  0.1184  0.7384  0.8401
10474TIP3    H152913   0.637   3.010  15.535  0.2323  0.6639 -0.7950
10474TIP3    H252914   0.536   2.948  15.440  0.3983 -2.7872  1.1017
10475TIP3   OH252915   3.579   4.635  15.151  0.0952 -0.1427 -0.2002
10475TIP3    H152916   3.522   4.561  15.134  1.9350 -2.2617  2.0936
10475TIP3    H252917   3.526   4.696  15.202 -0.8057 -0.9263 -0.1905
10476TIP3   OH252918   1.185   2.280  16.674  0.1258  0.2195  0.2779
10476TIP3    H152919   1.225   2.322  16.599  0.1607 -2.5734 -1.4016
10476TIP3    H252920   1.116   2.225  16.637 -0.5546 -0.4772  2.4058
10477TIP3   OH252921   3.739   1.122   4.650  0.2417  0.0500  0.2480
10477TIP3    H152922   3.734   1.029   4.630 -2.3465 -0.0053  0.7572
10477TIP3    H252923   3.674   1.163   4.592 -0.1810  1.2132  1.4756
10478TIP3   OH252924   3.686   5.271  15.915  0.1039  0.2289 -0.5521
10478TIP3    H152925   3.650   5.214  15.982 -0.9011  0.3171 -1.0030
10478TIP3    H252926   3.619   5.273  15.846  0.6758  0.9398 -1.1079
10479TIP3   OH252927   2.992   1.633  14.736 -0.5289  0.1783  0.1311
10479TIP3    H152928   2.944   1.651  14.655  0.5821 -1.2375 -0.9239
10479TIP3    H252929   3.079   1.671  14.720 -0.3518  0.0243  0.7229
10480TIP3   OH252930   6.034   5.171  14.714  0.3882  0.1841 -0.3038
10480TIP3    H152931   6.121   5.200  14.684  0.1787 -0.2605 -1.3900
10480TIP3    H252932   5.988   5.251  14.737  0.6122  0.5299 -1.0586
10481TIP3   OH252933   3.342   1.742   0.386  0.1671  0.5786 -0.5018
10481TIP3    H152934   3.274   1.792   0.431 -2.1821 -3.1980  0.6023
10481TIP3    H252935   3.325   1.758   0.293 -1.9960  0.1317 -0.2428
10482TIP3   OH252936   6.412   0.614  16.473 -0.0339  0.0674  0.1513
10482TIP3    H152937   6.465   0.595  16.396 -1.4146  1.2990 -1.1620
10482TIP3    H252938   6.357   0.536  16.483 -0.2939  0.1558 -0.5194
10483TIP3   OH252939   6.060   3.354  14.782 -0.2214 -0.1469 -0.6185
10483TIP3    H152940   5.981   3.343  14.835 -1.8006 -1.0773 -3.0081
10483TIP3    H252941   6.073   3.449  14.779 -0.0336 -0.0590  1.4029
10484TIP3   OH252942   0.088   6.704  15.787 -0.6189  0.5926  0.0281
10484TIP3    H152943   0.013   6.747  15.745  0.9129  2.2650 -1.1631
10484TIP3    H252944   0.049   6.644  15.850 -2.9552  1.5110 -0.4374
10485TIP3   OH252945   3.649   6.382  13.881  0.4677 -0.0634  0.1916
10485TIP3    H152946   3.665   6.476  13.888 -2.3412  0.5584 -0.4847
10485TIP3    H252947   3.640   6.365  13.787 -0.1097 -0.7693  0.3584
10486TIP3   OH252948   0.291   3.355  13.292  0.1293 -0.5325 -0.1413
10486TIP3    H152949   0.316   3.431  13.345 -0.0172 -0.4291 -0.2176
10486TIP3    H252950   0.244   3.393  13.217 -1.2980 -0.7624  0.5859
10487TIP3   OH252951   6.701   2.377   0.758  0.1405  0.3306 -0.3948
10487TIP3    H152952   6.721   2.290   0.793  0.4677  1.1200  1.4932
10487TIP3    H252953   6.637   2.361   0.689  2.2208 -1.6539 -1.9951
10488TIP3   OH252954   1.460   4.892  15.230 -0.0957  0.3633  0.2393
10488TIP3    H152955   1.394   4.834  15.191  0.4780 -1.7084  2.1266
10488TIP3    H252956   1.528   4.898  15.163 -1.6089  1.6025 -1.2887
10489TIP3   OH252957   0.585   3.339   5.124 -0.5589  0.1951 -0.1049
10489TIP3    H152958   0.666   3.355   5.076  0.3053 -1.6890  0.6283
10489TIP3    H252959   0.581   3.410   5.189  0.2956  0.5301 -0.4032
10490TIP3   OH252960   6.515   4.682   3.171 -0.4350  0.6234 -0.0629
10490TIP3    H152961   6.493   4.600   3.214 -0.4916 -0.0093 -1.2635
10490TIP3    H252962   6.500   4.665   3.078  1.2148  1.4477 -0.5102
10491TIP3   OH252963   4.208   5.411  12.082 -0.2697  0.4966 -0.0726
10491TIP3    H152964   4.178   5.491  12.126  0.3826  0.6214  0.1544
10491TIP3    H252965   4.217   5.436  11.990 -0.4473  0.5725 -0.0709
10492TIP3   OH252966   4.656   0.873  13.283  0.8720 -0.0751  0.1534
10492TIP3    H152967   4.626   0.806  13.344  2.1065 -0.5327  0.2852
10492TIP3    H252968   4.752   0.865  13.283  1.0510  1.6330  0.1116
10493TIP3   OH252969   0.521   0.769  15.036 -0.5718  0.0570 -0.1957
10493TIP3    H152970   0.568   0.741  14.958 -0.6089  0.4958 -0.3727
10493TIP3    H252971   0.589   0.805  15.093 -0.9156  2.5436 -1.2527
10494TIP3   OH252972   0.961   6.639   1.720  0.2011 -0.4152 -0.0157
10494TIP3    H152973   0.976   6.718   1.772 -1.7673  0.5750 -0.8536
10494TIP3    H252974   1.030   6.641   1.654  0.2253  0.5868  0.0188
10495TIP3   OH252975   5.862   1.126  14.719 -0.0285  0.2349  0.9637
10495TIP3    H152976   5.925   1.185  14.678 -0.7223  0.5344  0.3180
10495TIP3    H252977   5.898   1.111  14.807  0.3211  1.3634  1.0334
10496TIP3   OH252978   5.807   5.993  14.709 -0.0771 -0.1353 -0.3931
10496TIP3    H152979   5.728   5.993  14.763  0.7036  1.3865  0.8247
10496TIP3    H252980   5.793   6.065  14.647  1.1132  1.4183  1.0744
10497TIP3   OH252981   6.623   1.761  16.400 -0.2941  0.2101 -1.4111
10497TIP3    H152982   6.670   1.844  16.407 -1.2681  0.7029 -0.4159
10497TIP3    H252983   6.640   1.718  16.483  1.5351 -1.3606 -2.5117
10498TIP3   OH252984   5.010   6.249  13.147 -0.0841  0.2425 -0.1089
10498TIP3    H152985   4.924   6.278  13.177 -0.3011 -0.1802 -0.3121
10498TIP3    H252986   5.072   6.284  13.212 -0.3650  0.9104 -0.2003
10499TIP3   OH252987   3.250   3.771  10.880  0.7749 -0.0163  0.2701
10499TIP3    H152988   3.206   3.854  10.900  1.2551  0.1474  0.6782
10499TIP3    H252989   3.217   3.747  10.793 -0.1998  0.0366  0.6109
10500TIP3   OH252990   4.371   0.748  12.102  0.2262  0.1211  1.1630
10500TIP3    H152991   4.454   0.768  12.058  0.2071  1.1417  1.5691
10500TIP3    H252992   4.313   0.820  12.077 -0.5539 -0.6020  0.8612
10501TIP3   OH252993   5.899   3.017  13.479  0.2738  0.6948 -0.6412
10501TIP3    H152994   5.928   2.926  13.489  0.3107  0.7405 -0.3306
10501TIP3    H252995   5.980   3.069  13.483  0.0377  1.0675  2.9575
10502TIP3   OH252996   5.184   6.316  16.767  0.0829  0.5098  0.0840
10502TIP3    H152997   5.260   6.257  16.772  1.6084  2.3064 -0.7672
10502TIP3    H252998   5.185   6.363  16.850 -0.6391 -0.0547  0.4218
10503TIP3   OH252999   2.897   5.847  16.088 -0.1857  0.2952  0.1349
10503TIP3    H153000   2.806   5.861  16.062  0.0111 -1.4365 -1.6980
10503TIP3    H253001   2.891   5.796  16.168 -0.8485 -0.2615 -0.2556
10504TIP3   OH253002   0.532   0.500   6.036 -0.0557  0.5690 -0.6540
10504TIP3    H153003   0.534   0.592   6.060  0.8562  0.5619 -0.6900
10504TIP3    H253004   0.440   0.483   6.013 -0.4897  1.1428  0.5749
10505TIP3   OH253005   0.712   5.988  15.449 -0.4287 -0.0028  0.5702
10505TIP3    H153006   0.721   5.912  15.391  0.6922 -0.2522  1.0387
10505TIP3    H253007   0.632   5.972  15.498 -1.3030  0.1185 -0.7535
10506TIP3   OH253008   4.848   3.059   6.457 -0.1931 -0.1812  0.7612
10506TIP3    H153009   4.830   3.080   6.366  1.6290 -0.6474  0.2394
10506TIP3    H253010   4.819   3.135   6.507 -0.9594  0.1856 -0.2363
10507TIP3   OH253011   2.277   0.391  11.100 -0.2049 -0.3557 -0.3636
10507TIP3    H153012   2.343   0.460  11.089  0.4200 -0.8853 -0.0074
10507TIP3    H253013   2.196   0.431  11.071  0.4254  0.0106 -1.6984
10508TIP3   OH253014   0.397   4.932   3.430  0.5587  0.4845  0.1711
10508TIP3    H153015   0.309   4.956   3.460  0.1019 -0.4963 -0.3291
10508TIP3    H253016   0.442   5.016   3.419 -0.8968  1.1395 -1.3135
10509TIP3   OH253017   4.630   4.195   5.456 -0.1915  0.1672  0.5672
10509TIP3    H153018   4.653   4.232   5.541  0.6000  0.5465  0.1954
10509TIP3    H253019   4.564   4.128   5.476 -0.9176  1.0821  1.3563
10510TIP3   OH253020   5.723   4.426   1.524  0.2937 -0.2338  0.0276
10510TIP3    H153021   5.784   4.458   1.590  0.1904 -1.5650  0.7858
10510TIP3    H253022   5.773   4.361   1.474  0.1298  0.1961 -0.7191
10511TIP3   OH253023   2.715   4.478  13.928 -0.0179 -0.3626 -0.2641
10511TIP3    H153024   2.763   4.395  13.934 -1.6499 -1.3109  0.5605
10511TIP3    H253025   2.635   4.456  13.879  0.1252  1.0408 -1.1626
10512TIP3   OH253026   1.231   5.290   3.729 -0.3958  0.3758 -0.1359
10512TIP3    H153027   1.160   5.235   3.762  0.0073 -0.4326 -0.5951
10512TIP3    H253028   1.229   5.277   3.634 -0.9696  1.9706 -0.3822
10513TIP3   OH253029   1.533   0.271   2.735 -0.2116 -0.3299 -0.1993
10513TIP3    H153030   1.590   0.317   2.673 -1.1903 -0.7281 -1.4428
10513TIP3    H253031   1.541   0.321   2.816  1.3042  0.0619 -0.5533
10514TIP3   OH253032   2.754   4.139  16.355  0.3316 -0.1374 -0.4982
10514TIP3    H153033   2.801   4.056  16.361  0.0518 -0.3984 -1.5948
10514TIP3    H253034   2.737   4.149  16.261  0.7812  1.3908 -0.4419
10515TIP3   OH253035   3.113   5.102   0.867 -0.5001 -0.6480  0.1957
10515TIP3    H153036   3.079   5.065   0.948 -0.1927  0.4879  0.8595
10515TIP3    H253037   3.044   5.159   0.835 -0.5643 -0.9816 -0.2847
10516TIP3   OH253038   4.423   6.700  14.542  0.0099 -0.7626  0.1091
10516TIP3    H153039   4.431   6.618  14.592 -3.3347 -1.6790 -0.6116
10516TIP3    H253040   4.389   6.672  14.457 -1.9279  1.4064  0.0970
10517TIP3   OH253041   3.719   1.487   1.217 -0.0401  0.8634 -0.4942
10517TIP3    H153042   3.771   1.416   1.181 -1.7785  0.1713 -1.7936
10517TIP3    H253043   3.708   1.465   1.309  0.3122 -0.0002 -0.6548
10518TIP3   OH253044   5.206   5.466   5.617 -0.3393 -0.2803  0.6834
10518TIP3    H153045   5.120   5.441   5.650 -1.0424  0.2507 -0.6440
10518TIP3    H253046   5.220   5.554   5.651 -0.9434  0.1616 -0.1585
10519TIP3   OH253047   5.558   4.289   1.712 -1.0401 -0.0680  0.0108
10519TIP3    H153048   5.610   4.305   1.633 -0.9615  0.1198  0.1010
10519TIP3    H253049   5.550   4.374   1.753 -2.9018  0.2526 -0.9018
10520TIP3   OH253050   0.555   1.467  12.783  0.4045  0.3119  0.0690
10520TIP3    H153051   0.540   1.441  12.874  0.6692 -0.8266 -0.1852
10520TIP3    H253052   0.630   1.526  12.786  0.6536 -0.0200  0.5638
10521TIP3   OH253053   5.852   0.150   3.861  0.5089 -0.2813  0.3382
10521TIP3    H153054   5.932   0.102   3.883 -0.4668 -1.6178  1.1229
10521TIP3    H253055   5.824   0.189   3.943  1.6636  2.3589 -0.4105
10522TIP3   OH253056   5.034   5.432   2.069  0.2872  0.0512  0.1862
10522TIP3    H153057   5.116   5.421   2.020  0.7605  1.2681  0.6702
10522TIP3    H253058   5.059   5.484   2.145 -0.4377 -1.7625  1.7494
10523TIP3   OH253059   3.069   3.779  17.051 -0.1306  0.7675 -0.8122
10523TIP3    H153060   3.004   3.821  17.107  0.4749  0.5023  0.1058
10523TIP3    H253061   3.022   3.760  16.970 -0.9981  1.2310 -0.4311
10524TIP3   OH253062   2.364   5.859   3.957 -0.7414 -0.3369 -0.5627
10524TIP3    H153063   2.377   5.802   3.881 -0.3579 -1.2807  0.1885
10524TIP3    H253064   2.452   5.874   3.991 -1.0001 -0.9806  0.4384
10525TIP3   OH253065   1.627   6.768   4.031  0.4988  0.4480 -0.0096
10525TIP3    H153066   1.635   6.675   4.013  0.6957  0.7788 -1.8416
10525TIP3    H253067   1.715   6.803   4.015  0.1267  1.1264 -0.6298
10526TIP3   OH253068   0.923   3.311  16.772  0.2077  0.3857  0.5382
10526TIP3    H153069   0.928   3.232  16.826 -1.4141 -0.0826  0.0634
10526TIP3    H253070   0.875   3.283  16.694  1.6565  1.2817 -0.7379
10527TIP3   OH253071   6.188   2.368  15.350  0.4564 -0.5178  0.4631
10527TIP3    H153072   6.221   2.326  15.429 -0.4187 -0.8042  0.6827
10527TIP3    H253073   6.133   2.440  15.382 -0.2003 -0.8642  0.1215
10528TIP3   OH253074   3.555   6.587  13.458 -0.0852 -0.4960  0.3108
10528TIP3    H153075   3.634   6.640  13.445 -0.1329 -0.6321 -0.5700
10528TIP3    H253076   3.574   6.535  13.537 -0.3852  1.4515  1.7402
10529TIP3   OH253077   6.515   0.271  13.541  0.5577 -0.5594  0.4515
10529TIP3    H153078   6.480   0.349  13.585 -0.2622 -1.2165  1.0059
10529TIP3    H253079   6.605   0.294  13.517  0.6682  0.1954  1.5354
10530TIP3   OH253080   4.634   1.785   1.205 -0.0145  0.5377  0.1092
10530TIP3    H153081   4.667   1.831   1.282 -0.5594  1.1367 -0.0037
10530TIP3    H253082   4.697   1.715   1.190 -1.2561 -1.2712  2.6612
10531TIP3   OH253083   5.529   2.424  15.993 -0.2305 -0.1296  0.3317
10531TIP3    H153084   5.452   2.441  15.939  1.1437  1.1373 -1.3678
10531TIP3    H253085   5.534   2.329  15.999 -1.9138 -0.2372  0.5214
10532TIP3   OH253086   6.511   6.613   5.476 -0.4609  0.3424  0.7806
10532TIP3    H153087   6.426   6.615   5.519 -0.6597  1.0732  0.3678
10532TIP3    H253088   6.492   6.632   5.384  0.0968  0.0372  0.5985
10533TIP3   OH253089   1.454   3.186  12.681  0.4566  0.3151 -0.4819
10533TIP3    H153090   1.490   3.173  12.593 -0.5675  0.8335 -1.0020
10533TIP3    H253091   1.404   3.267  12.674  0.2859  0.3097  0.5612
10534TIP3   OH253092   6.144   3.982  15.612 -0.6395  0.4156 -0.6640
10534TIP3    H153093   6.160   4.075  15.630  0.1636  0.4826 -1.7033
10534TIP3    H253094   6.219   3.953  15.561 -2.0688 -0.1709 -2.5462
10535TIP3   OH253095   3.210   6.184  12.162  1.0595  0.0716  0.6165
10535TIP3    H153096   3.188   6.122  12.232  2.0440 -0.8338  0.1591
10535TIP3    H253097   3.131   6.190  12.109  1.2859 -1.6799  0.0342
10536TIP3   OH253098   4.129   4.506  10.924 -0.9194  0.6619  0.4697
10536TIP3    H153099   4.177   4.474  11.001  1.2252 -0.4827 -1.2410
10536TIP3    H253100   4.112   4.599  10.943  0.5729  0.6924  1.8447
10537TIP3   OH253101   0.612   5.188  14.745  0.2273 -0.0808 -0.4201
10537TIP3    H153102   0.617   5.188  14.649  1.7117 -2.6492 -0.4418
10537TIP3    H253103   0.619   5.095  14.769 -2.9504  0.1551  2.1131
10538TIP3   OH253104   0.669   0.433   3.784 -0.0349  0.6698  0.5297
10538TIP3    H153105   0.599   0.428   3.718  0.6826  1.4470 -0.3256
10538TIP3    H253106   0.643   0.371   3.852 -2.0048  1.5495  0.6513
10539TIP3   OH253107   0.472   5.471  12.159 -0.4741 -0.1513  0.3529
10539TIP3    H153108   0.435   5.556  12.136 -0.2184  0.0145  0.5479
10539TIP3    H253109   0.566   5.482  12.149 -0.4392 -0.4115  0.3839
10540TIP3   OH253110   0.018   5.290   3.145  0.4044 -0.2512  0.1776
10540TIP3    H153111   0.060   5.233   3.080 -0.3129 -0.0039 -0.5096
10540TIP3    H253112  -0.038   5.231   3.196  0.1418 -0.2659 -0.1273
10541TIP3   OH253113   6.845   4.389  14.378 -0.0075  0.0120  0.2864
10541TIP3    H153114   6.778   4.422  14.318  1.3242 -0.3400 -1.4839
10541TIP3    H253115   6.801   4.319  14.427 -2.1415  2.5584  2.3238
10542TIP3   OH253116   6.768   2.417   5.258  0.1082  0.1447  0.6886
10542TIP3    H153117   6.847   2.421   5.313  0.3825 -0.4209  0.3538
10542TIP3    H253118   6.697   2.445   5.316  0.6550  1.4362  0.7695
10543TIP3   OH253119   0.845   3.258   2.126 -0.7883 -0.1088 -0.6350
10543TIP3    H153120   0.926   3.249   2.177 -1.3601  0.4240  0.3934
10543TIP3    H253121   0.805   3.171   2.129 -1.1383  0.0838  0.3859
10544TIP3   OH253122   0.251   2.222  13.800 -0.0276 -0.6061 -0.4135
10544TIP3    H153123   0.256   2.214  13.895 -1.4061  1.5724 -0.0976
10544TIP3    H253124   0.297   2.144  13.767 -0.2034 -1.8325  2.0116
10545TIP3   OH253125   2.954   1.155   2.283 -0.6840 -0.2683  0.0675
10545TIP3    H153126   2.930   1.241   2.248 -1.0417 -0.4192 -0.0636
10545TIP3    H253127   2.885   1.134   2.346 -0.8624 -0.6705 -0.2550
10546TIP3   OH253128   4.378   2.055   2.978  0.0171  0.1770 -0.7404
10546TIP3    H153129   4.302   2.010   3.015  1.9239 -4.0170 -1.2986
10546TIP3    H253130   4.404   1.999   2.904  3.9851  0.9932 -0.1560
10547TIP3   OH253131   3.286   3.639   0.653  0.1876 -0.1470 -0.1725
10547TIP3    H153132   3.232   3.568   0.689  0.8605 -0.1009  0.9690
10547TIP3    H253133   3.376   3.612   0.669  0.5020  0.2004 -1.2488
10548TIP3   OH253134   4.981   4.898  11.469 -0.2960  0.2035  0.0105
10548TIP3    H153135   4.946   4.967  11.525 -0.2988 -0.0368  0.3038
10548TIP3    H253136   4.923   4.824  11.481 -0.2058  0.0970 -0.1902
10549TIP3   OH253137   2.472   0.486  13.053 -0.3751 -0.2824 -0.3092
10549TIP3    H153138   2.530   0.426  13.100  0.4914  0.9195  0.2030
10549TIP3    H253139   2.477   0.459  12.962 -0.0701 -1.0428 -0.0721
10550TIP3   OH253140   6.564   4.304  14.634  0.0145  0.0473  0.0060
10550TIP3    H153141   6.496   4.237  14.629  1.9831 -2.0472 -0.3281
10550TIP3    H253142   6.623   4.284  14.561  1.1038  1.6606  0.3927
10551TIP3   OH253143   5.071   3.692   0.838  0.1326  0.0908  0.4795
10551TIP3    H153144   5.030   3.657   0.759 -0.0136 -0.9062  0.9820
10551TIP3    H253145   5.052   3.785   0.836 -2.5713 -0.3779  0.9280
10552TIP3   OH253146   4.781   6.145  15.822 -0.0798 -0.6678  0.5767
10552TIP3    H153147   4.701   6.097  15.840 -0.4027 -0.8313 -1.0737
10552TIP3    H253148   4.846   6.107  15.880 -0.5532 -2.4686 -0.0167
10553TIP3   OH253149   4.560   0.365   3.761 -0.5897 -0.0941 -0.0683
10553TIP3    H153150   4.638   0.320   3.792  0.9811  1.9716 -0.8205
10553TIP3    H253151   4.499   0.360   3.834  1.4011  0.8860  1.7552
10554TIP3   OH253152   5.247   6.197  16.077  0.2153  0.2180 -0.7325
10554TIP3    H153153   5.317   6.144  16.114 -0.5179 -0.0760  0.2942
10554TIP3    H253154   5.273   6.212  15.986  1.0504 -0.8242 -0.6864
10555TIP3   OH253155   1.469   4.487  14.633  0.1770  0.0360 -0.0196
10555TIP3    H153156   1.415   4.550  14.679  0.9376  1.0815 -0.5215
10555TIP3    H253157   1.413   4.410  14.622 -0.4095  0.2137  1.5568
10556TIP3   OH253158   0.050   6.794   6.529 -0.0268  0.1705  0.9095
10556TIP3    H153159   0.130   6.772   6.577 -0.2795 -0.4047  1.0803
10556TIP3    H253160   0.052   6.889   6.520  2.5518 -0.0111 -2.3720
10557TIP3   OH253161   3.147   4.131   1.397 -0.1062  0.4439 -0.0374
10557TIP3    H153162   3.187   4.058   1.445 -0.6399 -0.0281 -0.3107
10557TIP3    H253163   3.060   4.140   1.434  0.9822  3.0669  2.3159
10558TIP3   OH253164   3.080   5.331  13.144  0.0113 -0.1661  0.1871
10558TIP3    H153165   3.078   5.260  13.080 -1.4225 -0.8284  0.9397
10558TIP3    H253166   3.146   5.305  13.208 -0.0947 -0.5292  0.1480
10559TIP3   OH253167   4.888   5.992  16.534  0.2409 -0.0678  0.2071
10559TIP3    H153168   4.949   5.989  16.460 -0.5691 -0.6491 -0.4521
10559TIP3    H253169   4.890   5.903  16.570  2.3954  0.7487  2.3962
10560TIP3   OH253170   2.276   4.163   1.360 -0.1970  0.3181 -0.5235
10560TIP3    H153171   2.365   4.142   1.391  0.2098  0.4979 -1.5198
10560TIP3    H253172   2.222   4.157   1.438  0.8813  1.3761  0.3413
10561TIP3   OH253173   1.871   1.613  14.833 -0.0230  0.2300  0.0730
10561TIP3    H153174   1.853   1.519  14.839 -0.0559 -0.0565 -2.8482
10561TIP3    H253175   1.803   1.646  14.775 -0.2520  2.1860  1.3792
10562TIP3   OH253176   3.841   4.793   4.876 -0.0080  0.3534 -0.0196
10562TIP3    H153177   3.905   4.810   4.945  0.2269  2.4496 -0.6877
10562TIP3    H253178   3.761   4.834   4.907 -0.8932 -1.5857  0.4519
10563TIP3   OH253179   6.130   3.124  15.387  1.0699  0.7536 -0.8291
10563TIP3    H153180   6.100   3.081  15.307  1.6767  1.7912 -1.6325
10563TIP3    H253181   6.080   3.206  15.391  0.1678  0.1829  0.5123
10564TIP3   OH253182   5.737   3.228   1.846 -0.3967  0.0603  0.0859
10564TIP3    H153183   5.815   3.229   1.791  0.5675 -1.0472  1.3556
10564TIP3    H253184   5.753   3.294   1.913 -1.3812  1.1097 -0.6664
10565TIP3   OH253185   4.115   3.501   2.618 -0.2797  0.7686  0.6349
10565TIP3    H153186   4.059   3.494   2.695 -3.1967  1.7139 -1.2392
10565TIP3    H253187   4.077   3.440   2.555  1.6498  0.4822 -0.3203
10566TIP3   OH253188   6.066   2.773   5.283 -0.0724  0.0045 -0.2118
10566TIP3    H153189   6.149   2.810   5.252  0.2748  0.8508  1.6148
10566TIP3    H253190   6.092   2.714   5.353 -0.9343 -0.8735 -0.6088
10567TIP3   OH253191   0.044   4.138   3.280 -0.2184  0.1728  0.4531
10567TIP3    H153192   0.087   4.106   3.359 -0.4793 -2.2129 -0.2941
10567TIP3    H253193   0.028   4.059   3.228 -0.1922  1.6432 -1.9228
10568TIP3   OH253194   0.123   3.207   2.680  0.2823 -0.4729 -0.5642
10568TIP3    H153195   0.218   3.217   2.679  0.2079  0.9923  1.3221
10568TIP3    H253196   0.092   3.266   2.610  0.7015  0.3905 -0.0398
10569TIP3   OH253197   5.418   3.148  15.593  0.4878 -0.0728 -0.0989
10569TIP3    H153198   5.502   3.193  15.581  0.0947  0.0802 -3.0812
10569TIP3    H253199   5.355   3.219  15.609  0.5509  0.0402 -0.3492
10570TIP3   OH253200   2.251   4.476  14.814  0.0688  0.2325  0.1932
10570TIP3    H153201   2.248   4.570  14.833  1.0024  0.6649 -1.6013
10570TIP3    H253202   2.271   4.470  14.720 -1.4699 -1.7575 -0.0976
10571TIP3   OH253203   3.875   3.742   5.501  0.7591  0.7029  0.0499
10571TIP3    H153204   3.863   3.781   5.587  1.5443 -1.7466  1.3693
10571TIP3    H253205   3.795   3.693   5.485  1.3994 -0.4673  0.3270
10572TIP3   OH253206   0.256   4.963   1.150  0.7663  0.4009  0.0585
10572TIP3    H153207   0.270   4.937   1.059  1.6330 -1.0981  0.5888
10572TIP3    H253208   0.343   4.960   1.190  0.1947 -0.4597  1.2990
10573TIP3   OH253209   5.600   0.004  15.533  0.1935 -0.5527  0.6176
10573TIP3    H153210   5.606  -0.088  15.510 -0.1124 -0.9099  1.9128
10573TIP3    H253211   5.512   0.015  15.569  0.5134  0.0515  1.2486
10574TIP3   OH253212   3.062   0.613  16.023  0.5000 -0.1483  0.2424
10574TIP3    H153213   3.111   0.588  15.945  3.4507  0.8551  1.6486
10574TIP3    H253214   3.026   0.530  16.056 -0.9847 -0.5702 -2.1539
10575TIP3   OH253215   0.933   2.947  14.819  0.4102  0.1900 -0.3960
10575TIP3    H153216   1.015   2.934  14.770  0.0503  0.0303 -0.9589
10575TIP3    H253217   0.949   2.903  14.902  1.8614  2.3619  0.5699
10576TIP3   OH253218   1.411   5.734  13.243  0.1589  0.0478 -0.5275
10576TIP3    H153219   1.373   5.818  13.217  0.8316  1.2036  1.8818
10576TIP3    H253220   1.359   5.669  13.196 -2.9066  1.6553  0.3219
10577TIP3   OH253221   5.710   1.556  16.713  0.1728  0.3438 -0.7816
10577TIP3    H153222   5.704   1.593  16.625 -1.4043 -0.3950 -1.0363
10577TIP3    H253223   5.790   1.592  16.750  0.8236  0.7276 -2.4915
10578TIP3   OH253224   3.849   5.152   0.389  0.3374 -0.3022  0.1500
10578TIP3    H153225   3.844   5.246   0.410 -0.0611 -0.3131  0.1180
10578TIP3    H253226   3.850   5.109   0.474  2.1337 -0.2148  0.2126
10579TIP3   OH253227   5.914   3.444   3.646 -0.3178  0.1226 -0.5464
10579TIP3    H153228   5.862   3.485   3.576 -0.2161  1.0320 -0.1120
10579TIP3    H253229   5.849   3.415   3.709 -0.3654  0.0946 -0.6081
10580TIP3   OH253230   3.561   0.283  10.805  0.6024  0.2462 -0.3130
10580TIP3    H153231   3.516   0.253  10.726 -0.7574  0.3068  0.4037
10580TIP3    H253232   3.614   0.358  10.776 -1.5350  1.6612 -0.8275
10581TIP3   OH253233   5.690   4.229  12.835  0.0158 -0.0572  0.6640
10581TIP3    H153234   5.756   4.274  12.889  0.1955 -0.0244  0.4189
10581TIP3    H253235   5.708   4.259  12.746  0.6380 -1.2132  0.3904
10582TIP3   OH253236   5.220   2.449   4.098  0.4364 -0.2614 -0.1250
10582TIP3    H153237   5.225   2.464   4.193  2.0785  0.0132 -0.2401
10582TIP3    H253238   5.154   2.380   4.089  0.7619 -0.7924  1.2822
10583TIP3   OH253239   0.472   3.546   1.689 -0.3483 -0.1332  0.1843
10583TIP3    H153240   0.405   3.478   1.697  0.0966 -0.8244 -1.5131
10583TIP3    H253241   0.540   3.519   1.751 -0.4403 -0.9382 -0.0459
10584TIP3   OH253242   5.720   1.316   4.787 -0.3055 -0.7260 -0.2463
10584TIP3    H153243   5.763   1.242   4.831 -0.5707 -0.7703 -0.0536
10584TIP3    H253244   5.665   1.355   4.855 -0.5885 -0.6875 -0.4942
10585TIP3   OH253245   6.136   3.425   3.107  0.0373 -0.2702 -0.0652
10585TIP3    H153246   6.092   3.369   3.043  3.7290 -1.0932 -2.1247
10585TIP3    H253247   6.152   3.507   3.061  0.7635 -0.0337  0.5847
10586TIP3   OH253248   5.455   0.723   2.105  0.6397  0.1833 -0.2190
10586TIP3    H153249   5.398   0.755   2.175  1.5145 -0.4098  0.7981
10586TIP3    H253250   5.439   0.782   2.032 -1.0023  0.2460  0.1597
10587TIP3   OH253251   6.100   2.634  11.377 -0.5227 -0.3583 -0.1257
10587TIP3    H153252   6.176   2.685  11.407 -0.2917  0.3388 -1.7932
10587TIP3    H253253   6.024   2.688  11.401 -0.4759 -0.6905  0.8366
10588TIP3   OH253254   1.490   1.726   2.629  0.7426 -0.3148 -0.3841
10588TIP3    H153255   1.495   1.654   2.565  0.3597 -1.3487  0.7199
10588TIP3    H253256   1.575   1.725   2.673 -0.3928 -2.4251  2.0247
10589TIP3   OH253257   6.684   3.094  11.092  0.1782 -0.1703  0.3810
10589TIP3    H153258   6.662   3.004  11.116 -0.0378  0.0873  1.1900
10589TIP3    H253259   6.604   3.144  11.107  0.0237  0.0145 -0.9420
10590TIP3   OH253260   3.007   2.060   4.340 -0.5299 -0.1844  0.4415
10590TIP3    H153261   2.953   1.996   4.293 -0.0635  0.2231 -0.6803
10590TIP3    H253262   3.094   2.020   4.341 -0.0480  0.7394 -0.9689
10591TIP3   OH253263   2.826   0.226   6.205  0.4343 -0.2391 -0.5158
10591TIP3    H153264   2.909   0.209   6.249  0.6092 -0.4900 -0.9435
10591TIP3    H253265   2.840   0.306   6.156 -0.1571  0.7805  0.8901
10592TIP3   OH253266   4.916   0.667  16.407 -0.2103  0.1067  0.4408
10592TIP3    H153267   4.947   0.744  16.454 -1.2587 -0.8874  2.8919
10592TIP3    H253268   4.927   0.690  16.314  0.1704  2.8876  1.0847
10593TIP3   OH253269   3.286   4.976  17.082  0.4206 -0.4227  1.1195
10593TIP3    H153270   3.223   5.046  17.100  0.8640  0.1513  0.5323
10593TIP3    H253271   3.366   5.005  17.126  1.3732  0.7577 -1.2133
10594TIP3   OH253272   6.347   4.634  14.061 -0.1734  0.5331 -0.2693
10594TIP3    H153273   6.414   4.703  14.057  0.8666 -0.4511 -0.1812
10594TIP3    H253274   6.383   4.563  14.008  0.8389 -1.6699  3.0865
10595TIP3   OH253275   0.885   2.232  14.899 -0.1485 -0.3366 -0.9671
10595TIP3    H153276   0.955   2.176  14.865 -0.4824 -1.5985  0.3262
10595TIP3    H253277   0.853   2.186  14.977 -0.4543  1.6539  0.1493
10596TIP3   OH253278   1.886   5.510   3.654  0.5098  0.0217  0.0868
10596TIP3    H153279   1.952   5.464   3.706 -0.0026 -1.8303 -0.8519
10596TIP3    H253280   1.931   5.531   3.571  0.2873 -0.1257 -0.0712
10597TIP3   OH253281   6.033   2.600  15.369  0.4428  0.4926 -0.0956
10597TIP3    H153282   6.009   2.656  15.295  0.9472  0.0741 -0.5804
10597TIP3    H253283   5.951   2.587  15.417  0.4406  2.2302  0.4429
10598TIP3   OH253284   3.448   5.439  14.460 -0.0288 -0.4362  0.2719
10598TIP3    H153285   3.498   5.466  14.382 -3.6224  4.3443 -0.8451
10598TIP3    H253286   3.483   5.493  14.530 -0.3942 -0.7142  0.6688
10599TIP3   OH253287   6.024   1.913  13.769 -0.0022  0.2336 -0.8876
10599TIP3    H153288   5.954   1.859  13.734 -3.6087  1.8604  2.9666
10599TIP3    H253289   6.022   1.993  13.716 -1.3884  0.4105 -0.5954
10600TIP3   OH253290   6.190   5.855   5.205  0.2490 -0.3341  0.3571
10600TIP3    H153291   6.196   5.794   5.132 -0.7318  0.2981 -0.2666
10600TIP3    H253292   6.101   5.889   5.201  0.4362  0.3231  1.3564
10601TIP3   OH253293   3.221   6.330  10.775  0.5952 -0.1696 -0.4813
10601TIP3    H153294   3.173   6.375  10.844  1.6863  1.5711 -0.7880
10601TIP3    H253295   3.164   6.337  10.698  0.9794  1.2839 -0.6733
10602TIP3   OH253296   4.494   0.760   3.518  0.3331 -0.2489  0.4586
10602TIP3    H153297   4.522   0.720   3.601 -0.1810 -0.4842  0.5225
10602TIP3    H253298   4.513   0.694   3.452  0.1786 -0.3023  0.4676
10603TIP3   OH253299   6.236   0.323   5.338  0.5083 -0.0284  0.0163
10603TIP3    H153300   6.206   0.405   5.378  1.3974  0.7133 -0.8043
10603TIP3    H253301   6.167   0.260   5.360  0.0329  0.8102  1.0609
10604TIP3   OH253302   2.132   0.158  11.345  0.0306  0.5626  0.0544
10604TIP3    H153303   2.059   0.135  11.403  0.2159 -0.5044 -0.1137
10604TIP3    H253304   2.102   0.135  11.257  0.7226 -0.3303  0.0317
10605TIP3   OH253305   3.447   1.241   0.774 -0.1062  0.0783 -0.6553
10605TIP3    H153306   3.520   1.303   0.777  2.4907 -2.7939  1.5958
10605TIP3    H253307   3.468   1.183   0.701 -1.2639  0.3898 -1.2577
10606TIP3   OH253308   4.141   2.710  16.335 -0.5599  0.0273 -0.1570
10606TIP3    H153309   4.169   2.777  16.273 -1.4804  1.4905  0.9567
10606TIP3    H253310   4.207   2.712  16.404 -0.6195 -0.1937 -0.0908
10607TIP3   OH253311   4.254   2.858   1.597 -0.5000 -0.3908  0.1634
10607TIP3    H153312   4.338   2.904   1.602 -0.1027 -0.9587 -1.0646
10607TIP3    H253313   4.258   2.808   1.516 -2.5161  0.4862 -0.5230
10608TIP3   OH253314   2.582   1.230  15.070 -0.0903  0.4636 -0.0166
10608TIP3    H153315   2.557   1.176  14.996 -3.2073  0.6419  0.7620
10608TIP3    H253316   2.588   1.170  15.144  3.7457  0.1556 -0.3638
10609TIP3   OH253317   1.136   2.097   5.852  0.0607  0.4722 -0.0459
10609TIP3    H153318   1.181   2.181   5.847  0.0136  0.4461 -1.1752
10609TIP3    H253319   1.049   2.118   5.887  0.2726  0.8033  0.2769
10610TIP3   OH253320   0.144   6.353  14.822 -0.7557 -1.1458  0.0391
10610TIP3    H153321   0.124   6.404  14.901 -2.2134 -1.9478  0.2254
10610TIP3    H253322   0.152   6.263  14.854  2.9088 -1.0331 -0.0951
10611TIP3   OH253323   4.665   3.058  15.146 -0.4205  0.1762  0.2961
10611TIP3    H153324   4.690   3.043  15.055  2.9448  2.8835  0.5896
10611TIP3    H253325   4.598   3.126  15.142 -0.3187  0.2498 -0.1433
10612TIP3   OH253326   1.909   6.139   2.985 -0.3918 -0.3681  0.1752
10612TIP3    H153327   1.839   6.096   2.937  2.0104 -1.7019 -2.4158
10612TIP3    H253328   1.900   6.106   3.075 -0.2517 -4.4573 -1.0979
10613TIP3   OH253329   1.704   5.843  13.866  0.3787 -0.1602 -0.5809
10613TIP3    H153330   1.699   5.751  13.892  0.3242  0.0092  0.0305
10613TIP3    H253331   1.795   5.868  13.883  0.2052  0.1045 -0.0073
10614TIP3   OH253332   3.180   6.513   1.749 -0.3260 -0.2810 -0.2583
10614TIP3    H153333   3.202   6.426   1.783  1.6268  0.2955  0.0845
10614TIP3    H253334   3.110   6.497   1.686 -0.6066 -1.9871  0.4330
10615TIP3   OH253335   1.162   0.634  12.492  0.3248 -0.1470  0.1330
10615TIP3    H153336   1.106   0.568  12.532 -2.3330  0.4327 -2.3158
10615TIP3    H253337   1.165   0.706  12.556 -3.4339  0.6021 -0.3298
10616TIP3   OH253338   5.257   6.742   4.745 -0.5388  0.2291  0.4785
10616TIP3    H153339   5.191   6.697   4.799 -0.3214  0.5034  0.9842
10616TIP3    H253340   5.340   6.724   4.790 -0.2671 -0.1033 -0.1464
10617TIP3   OH253341   5.852   2.163  16.909 -0.3238 -0.6636 -0.5310
10617TIP3    H153342   5.836   2.120  16.825  2.2627  0.0693 -1.4925
10617TIP3    H253343   5.879   2.252  16.887  0.8389 -0.5792  1.0187
10618TIP3   OH253344   4.225   4.534  11.920  0.2462 -0.0397 -0.1172
10618TIP3    H153345   4.277   4.467  11.965  0.1528  0.8908  1.4532
10618TIP3    H253346   4.250   4.525  11.828 -0.5795 -2.9428 -0.1574
10619TIP3   OH253347   6.482   3.315  12.108 -0.3726 -0.0863  0.6649
10619TIP3    H153348   6.511   3.403  12.131 -0.1707  0.6605 -2.0632
10619TIP3    H253349   6.553   3.279  12.054 -1.7971 -0.6290 -0.9423
10620TIP3   OH253350   3.749   0.833   0.449 -0.3752 -0.1896 -0.0106
10620TIP3    H153351   3.794   0.748   0.449 -0.4551 -0.2346  0.2111
10620TIP3    H253352   3.680   0.824   0.383 -0.4143 -0.3151  0.0468
10621TIP3   OH253353   2.472   1.899   2.316  0.3800  0.2966 -0.1538
10621TIP3    H153354   2.481   1.895   2.412 -1.2725  4.0041  0.3358
10621TIP3    H253355   2.558   1.927   2.286  1.0048 -1.1903  0.1518
10622TIP3   OH253356   6.753   6.168  13.588  0.0846 -0.2551  0.3606
10622TIP3    H153357   6.712   6.254  13.577 -1.4059 -0.9554  0.2909
10622TIP3    H253358   6.748   6.152  13.682  1.1326  0.0759  0.4910
10623TIP3   OH253359   3.934   5.745   1.638 -0.4835  0.5643 -0.1500
10623TIP3    H153360   3.883   5.752   1.558 -1.7433  1.0554  0.6583
10623TIP3    H253361   3.901   5.817   1.693  1.5363  1.3166  0.1673
10624TIP3   OH253362   6.172   5.037   6.481  0.0668  0.2522  0.4401
10624TIP3    H153363   6.091   5.088   6.473 -0.5050 -0.9625 -3.5253
10624TIP3    H253364   6.241   5.103   6.484 -0.8891  1.2768  0.6606
10625TIP3   OH253365   0.022   5.392   0.839 -0.5562 -0.0796  0.6705
10625TIP3    H153366   0.031   5.408   0.745 -0.0714 -0.9466  0.5615
10625TIP3    H253367  -0.072   5.394   0.855 -0.7013 -0.9506 -0.0265
10626TIP3   OH253368   4.737   2.803   1.427  0.4574  0.0048 -0.4220
10626TIP3    H153369   4.738   2.731   1.491  1.6411  0.2497 -0.1394
10626TIP3    H253370   4.645   2.820   1.412  0.1544 -1.2528 -0.1225
10627TIP3   OH253371   3.387   6.461  11.401  0.4161 -0.1072  0.2713
10627TIP3    H153372   3.386   6.460  11.305 -2.6127  0.3310  0.2063
10627TIP3    H253373   3.447   6.391  11.425  1.8588  0.2716 -1.9087
10628TIP3   OH253374   5.944   0.897   0.898  0.5328  0.0846 -0.0047
10628TIP3    H153375   6.035   0.893   0.867  1.8501  4.4912  2.4555
10628TIP3    H253376   5.941   0.836   0.971  1.2256 -0.7064 -0.6133
10629TIP3   OH253377   1.433   2.138   3.482 -0.3777 -0.5836  0.3584
10629TIP3    H153378   1.358   2.090   3.446 -1.8648 -0.2623  2.7728
10629TIP3    H253379   1.431   2.118   3.576 -0.1251  2.9223  1.2475
10630TIP3   OH253380   2.833   4.515  14.835  0.4773  0.7348  0.2605
10630TIP3    H153381   2.764   4.560  14.786  0.3319  0.7453  0.4722
10630TIP3    H253382   2.910   4.520  14.778  1.0495  3.0838  1.1562
10631TIP3   OH253383   2.137   0.742  16.982 -0.1200  0.4920 -0.4547
10631TIP3    H153384   2.080   0.706  16.914 -0.3210  1.6423 -0.9004
10631TIP3    H253385   2.144   0.835  16.962  0.9970  0.5861  0.2560
10632TIP3   OH253386   6.117   0.761  16.018 -0.3839  0.5730  0.2344
10632TIP3    H153387   6.070   0.760  15.934  0.0513  1.4780 -0.0426
10632TIP3    H253388   6.061   0.813  16.076 -1.7920 -1.9018  1.2242
10633TIP3   OH253389   0.434   0.558   0.231 -0.3834  0.1618 -0.8109
10633TIP3    H153390   0.374   0.529   0.299  0.8091 -1.4305 -0.3837
10633TIP3    H253391   0.472   0.478   0.196  1.2091  1.0902 -1.3234
10634TIP3   OH253392   1.352   4.289  15.376 -0.0051 -0.2922 -0.0482
10634TIP3    H153393   1.363   4.384  15.376  1.3612 -0.4225 -0.4821
10634TIP3    H253394   1.434   4.256  15.338 -1.2933 -1.5546 -1.9091
10635TIP3   OH253395   3.472   4.538  13.204 -0.8527  0.1397  0.1021
10635TIP3    H153396   3.426   4.616  13.234 -1.1050 -0.2650  0.7952
10635TIP3    H253397   3.520   4.567  13.126 -3.1309  0.3307 -1.3255
10636TIP3   OH253398   2.604   0.615  16.928  0.5663 -0.4601 -0.7764
10636TIP3    H153399   2.676   0.597  16.987  0.0850 -1.2412 -0.4085
10636TIP3    H253400   2.536   0.655  16.983  0.7606  0.4155 -1.1474
10637TIP3   OH253401   1.687   6.055  12.530  0.3219 -0.4527  0.1415
10637TIP3    H153402   1.759   6.117  12.517 -0.5625  0.4532 -0.5055
10637TIP3    H253403   1.620   6.081  12.467 -0.4599 -1.4832  0.5102
10638TIP3   OH253404   6.566   1.354   5.856 -0.3482 -0.1214  0.4406
10638TIP3    H153405   6.540   1.262   5.857  1.4279 -0.6966  2.2008
10638TIP3    H253406   6.499   1.399   5.907 -0.0703 -0.8692  1.5076
10639TIP3   OH253407   4.889   3.954  14.652  0.4599  0.0747  0.7584
10639TIP3    H153408   4.905   3.881  14.713  0.7776 -0.3183  0.2137
10639TIP3    H253409   4.972   4.002  14.650  1.2472 -1.2222 -1.0773
10640TIP3   OH253410   5.988   1.978  17.046  0.3482 -0.9286  0.1335
10640TIP3    H153411   5.928   1.939  17.110  0.7165 -0.6989  0.6260
10640TIP3    H253412   5.932   2.028  16.987 -0.0594 -1.6598 -0.1007
10641TIP3   OH253413   2.673   3.214   1.178  0.2018 -0.6085 -0.3721
10641TIP3    H153414   2.581   3.193   1.162 -0.1371 -1.5919  2.4487
10641TIP3    H253415   2.707   3.140   1.228  1.3108  1.6387  2.4807
10642TIP3   OH253416   1.903   3.243  15.850 -0.0558 -0.1630  0.4422
10642TIP3    H153417   1.994   3.254  15.823 -0.3853  0.1795 -0.5811
10642TIP3    H253418   1.862   3.199  15.776 -0.6295 -0.7330  1.0852
10643TIP3   OH253419   5.689   1.903   5.534 -0.4565  0.4667  0.6017
10643TIP3    H153420   5.701   1.962   5.459  2.3008 -0.5042  0.1811
10643TIP3    H253421   5.596   1.912   5.557 -0.5137  3.7272 -0.4425
10644TIP3   OH253422   1.519   6.768  17.015  0.5088 -0.5752  0.3032
10644TIP3    H153423   1.520   6.711  17.092 -0.3551  0.1244  0.8570
10644TIP3    H253424   1.430   6.760  16.981 -0.8724  3.0696  2.4732
10645TIP3   OH253425   2.412   5.072   4.809 -0.2171  0.5440  0.2944
10645TIP3    H153426   2.353   4.998   4.793  0.4410 -0.0942  0.7216
10645TIP3    H253427   2.420   5.076   4.905  2.4004 -1.0565  0.2702
10646TIP3   OH253428   3.986   6.646  14.104  0.0978  0.6075  0.1012
10646TIP3    H153429   4.072   6.608  14.089 -0.2813 -0.4483  0.5241
10646TIP3    H253430   3.971   6.635  14.198 -1.1974 -0.7380 -0.2371
10647TIP3   OH253431   5.727   4.399  13.748 -0.1872 -0.0320  0.2308
10647TIP3    H153432   5.715   4.371  13.839  0.2462 -0.2830  0.2127
10647TIP3    H253433   5.639   4.426  13.720 -0.5943 -1.2316  0.2953
10648TIP3   OH253434   5.080   3.672  13.964  0.2667  0.5122  0.2286
10648TIP3    H153435   5.158   3.636  13.921  0.2641  0.2544  0.4356
10648TIP3    H253436   5.054   3.604  14.027  0.0939  0.7578  0.4248
10649TIP3   OH253437   5.184   6.034   4.815 -0.3602  0.1532  0.3594
10649TIP3    H153438   5.173   5.970   4.885 -0.1865 -0.3362 -0.0538
10649TIP3    H253439   5.262   6.085   4.840  0.1005 -0.4611  0.1848
10650TIP3   OH253440   5.922   0.174   3.125  0.2404  0.2943 -0.1964
10650TIP3    H153441   5.902   0.081   3.125  1.3439  0.0453 -0.3164
10650TIP3    H253442   5.859   0.213   3.186 -0.0390 -0.5613  0.0654
10651TIP3   OH253443   5.844   1.905  13.392  0.1983  0.4083  0.1523
10651TIP3    H153444   5.798   1.847  13.332 -0.8495 -0.1258  1.4151
10651TIP3    H253445   5.784   1.979  13.404 -0.5449 -0.4285  2.0327
10652TIP3   OH253446   4.977   3.694   2.762  0.0032 -0.1416  0.1621
10652TIP3    H153447   4.885   3.710   2.742 -0.1146 -0.5064  0.3942
10652TIP3    H253448   4.987   3.723   2.853 -0.5690 -2.6305  1.1042
10653TIP3   OH253449   5.705   2.663  16.748  0.1096  0.4794 -0.2095
10653TIP3    H153450   5.749   2.671  16.832  2.2941  1.1758 -1.3312
10653TIP3    H253451   5.676   2.572  16.743  3.8907 -0.8708 -0.4496
10654TIP3   OH253452   1.471   2.757   0.293 -0.3745 -0.2414 -0.0524
10654TIP3    H153453   1.465   2.807   0.375  0.1495 -1.4471  0.7457
10654TIP3    H253454   1.382   2.759   0.257 -0.8637 -0.5784  1.0849
10655TIP3   OH253455   0.819   5.547  16.960 -0.2557 -0.2080  0.1435
10655TIP3    H153456   0.866   5.615  17.008 -0.5752 -1.0432  1.7073
10655TIP3    H253457   0.854   5.465  16.995 -1.6117 -0.8445  0.0761
10656TIP3   OH253458   5.988   1.292  15.406  0.1610 -0.6712 -0.2387
10656TIP3    H153459   6.060   1.231  15.389  0.1860 -0.1744 -2.1780
10656TIP3    H253460   5.920   1.267  15.343  0.3088  1.4586 -1.3439
10657TIP3   OH253461   5.840   2.296   4.075  0.3873 -0.6891 -0.1648
10657TIP3    H153462   5.859   2.388   4.057 -0.5558 -0.5736 -0.6535
10657TIP3    H253463   5.852   2.252   3.991 -2.1452 -0.4710 -0.7188
10658TIP3   OH253464   5.752   0.504  11.475 -0.0698  0.2148  0.0263
10658TIP3    H153465   5.693   0.542  11.410 -0.8444  0.8174  1.0491
10658TIP3    H253466   5.826   0.564  11.478  1.1210 -1.0383 -1.9486
10659TIP3   OH253467   0.294   0.804   2.110  0.1043 -0.2474 -0.3510
10659TIP3    H153468   0.244   0.722   2.113  0.4270 -0.4442  1.9777
10659TIP3    H253469   0.227   0.873   2.111 -0.1621 -0.5021 -0.1465
10660TIP3   OH253470   1.645   6.402   1.643 -0.1785 -0.0780  0.6086
10660TIP3    H153471   1.724   6.425   1.594  0.5889  0.7563  2.1729
10660TIP3    H253472   1.636   6.307   1.631  0.0613  0.0669 -0.9720
10661TIP3   OH253473   1.651   3.557  16.354  0.4973 -0.6078  0.2071
10661TIP3    H153474   1.686   3.642  16.328 -1.4516  0.3789  0.6251
10661TIP3    H253475   1.635   3.565  16.448 -0.6300 -1.0664  0.0708
10662TIP3   OH253476   1.938   6.388   2.172 -0.1177  0.1779 -0.0124
10662TIP3    H153477   1.939   6.327   2.246 -3.2030 -0.6755 -0.5218
10662TIP3    H253478   1.859   6.440   2.186 -0.2404  0.6597 -2.1745
10663TIP3   OH253479   3.332   1.050  13.938  0.0977 -0.4852 -0.3907
10663TIP3    H153480   3.397   1.017  14.000 -0.1398 -2.1754 -1.0083
10663TIP3    H253481   3.293   1.125  13.983 -0.5420 -2.0407  1.8517
10664TIP3   OH253482   4.266   2.329  15.000  0.2920 -0.5271 -0.0251
10664TIP3    H153483   4.264   2.309  14.906 -0.5795 -0.8053  0.0388
10664TIP3    H253484   4.216   2.410  15.008 -2.7271 -2.2910  0.5539
10665TIP3   OH253485   0.662   2.399   0.383 -0.1548  0.2396 -0.4335
10665TIP3    H153486   0.608   2.431   0.311 -1.7594 -1.3618 -0.0192
10665TIP3    H253487   0.602   2.391   0.457  1.5170  2.1208  1.2196
10666TIP3   OH253488   5.931   6.013   4.054 -0.6212  0.2338 -0.0995
10666TIP3    H153489   5.916   6.107   4.043  0.5323  0.4362 -0.0638
10666TIP3    H253490   5.996   6.008   4.125  0.3615 -0.5161 -1.0349
10667TIP3   OH253491   6.579   4.585   1.188 -0.0404  0.3214  0.6275
10667TIP3    H153492   6.562   4.557   1.098 -0.8959  2.2975  0.1221
10667TIP3    H253493   6.551   4.677   1.191  0.3550  0.4381  2.8025
10668TIP3   OH253494   3.671   4.487   1.451 -0.1054 -0.3313 -0.1634
10668TIP3    H153495   3.671   4.425   1.524 -0.4596  0.4645  0.5175
10668TIP3    H253496   3.581   4.487   1.420 -0.1890  0.1161  0.0755
10669TIP3   OH253497   2.452   5.484   4.296 -0.6379  0.6077 -0.1282
10669TIP3    H153498   2.473   5.550   4.229 -0.0278  1.7955  1.1840
10669TIP3    H253499   2.402   5.532   4.362 -1.0758 -0.5029  0.3693
10670TIP3   OH253500   2.564   6.357   4.910  0.0289  0.5784 -0.1508
10670TIP3    H153501   2.636   6.402   4.955  0.6122 -0.0140 -0.4629
10670TIP3    H253502   2.496   6.347   4.977  1.0850 -0.7562  0.7885
10671TIP3   OH253503   3.991   2.055  15.817 -0.0218  0.8868 -0.8931
10671TIP3    H153504   4.083   2.075  15.803  0.6727 -1.2347  0.2365
10671TIP3    H253505   3.978   1.969  15.777 -1.2671  0.7486 -0.2380
10672TIP3   OH253506   2.683   0.535  16.062  0.3560  1.0344 -0.0134
10672TIP3    H153507   2.754   0.507  16.004 -0.3809  1.4098 -1.1558
10672TIP3    H253508   2.645   0.453  16.096 -0.6574  0.6409 -1.9197
10673TIP3   OH253509   5.374   3.087  14.278  0.0547  0.3352  1.0457
10673TIP3    H153510   5.460   3.126  14.265 -0.4243  1.8545  2.1492
10673TIP3    H253511   5.324   3.111  14.201  0.7645 -1.0533  0.1224
10674TIP3   OH253512   6.322   4.009   2.054 -0.2565  0.0522 -0.4586
10674TIP3    H153513   6.232   4.031   2.030 -0.8834  1.0984  2.3700
10674TIP3    H253514   6.313   3.942   2.122  1.1706 -0.7237 -1.0022
10675TIP3   OH253515   1.945   5.009   1.019  0.0818  0.3038  0.5816
10675TIP3    H153516   1.925   5.052   1.102  1.5040 -1.5568  1.9749
10675TIP3    H253517   1.898   4.926   1.023  1.5003 -0.5441  0.2995
10676TIP3   OH253518   3.708   6.417   2.824 -0.1663 -0.1020  0.1251
10676TIP3    H153519   3.753   6.433   2.907 -0.4033 -2.4000  0.7797
10676TIP3    H253520   3.659   6.336   2.840 -1.5535  0.3236 -1.7472
10677TIP3   OH253521   2.521   5.928  15.577 -0.1113  0.2032 -0.2340
10677TIP3    H153522   2.570   5.855  15.539 -0.2014  0.5841 -1.0830
10677TIP3    H253523   2.429   5.905  15.564 -0.1416  0.3979 -0.3639
10678TIP3   OH253524   2.268   2.435   4.548 -1.1820  0.5755 -0.1660
10678TIP3    H153525   2.310   2.449   4.463 -0.5159  0.5075  0.1503
10678TIP3    H253526   2.266   2.340   4.557  0.2369  0.5958  0.6179
10679TIP3   OH253527   6.773   4.977  14.591 -0.2521 -0.2344 -0.0840
10679TIP3    H153528   6.763   4.882  14.587  1.3999 -0.3959 -1.8346
10679TIP3    H253529   6.859   4.994  14.552 -0.6333  2.0169 -0.0904
10680TIP3   OH253530   1.312   0.612  15.707  0.2851 -0.4848  0.5684
10680TIP3    H153531   1.262   0.564  15.774  0.3998 -0.9250  0.3408
10680TIP3    H253532   1.381   0.551  15.681 -1.1358 -1.2711 -1.6460
10681TIP3   OH253533   1.609   0.964   1.106 -0.2932  0.5843 -0.4070
10681TIP3    H153534   1.631   0.947   1.198 -0.4060  1.1895 -0.2641
10681TIP3    H253535   1.552   1.041   1.109  1.2042  1.7643 -1.1296
10682TIP3   OH253536   5.311   0.665  11.832  0.1826  0.1649 -0.0629
10682TIP3    H153537   5.274   0.588  11.874  1.0958  0.3402  1.1250
10682TIP3    H253538   5.270   0.739  11.877  0.3303  0.3624 -0.2489
10683TIP3   OH253539   5.058   5.027   0.962 -0.4462 -0.3679 -0.0225
10683TIP3    H153540   5.116   5.092   1.002 -0.5249 -1.2208  1.5477
10683TIP3    H253541   5.089   5.019   0.872 -0.5855  2.0011 -0.3642
10684TIP3   OH253542   1.734   5.991   4.568  0.6938  0.0546 -0.1049
10684TIP3    H153543   1.698   6.049   4.500 -1.6877 -0.4310  0.6576
10684TIP3    H253544   1.776   5.920   4.519  0.9693  0.8501 -1.0469
10685TIP3   OH253545   5.203   5.700  15.287 -0.2926  0.0529 -0.2555
10685TIP3    H153546   5.203   5.643  15.364 -0.7065  0.6327  0.1883
10685TIP3    H253547   5.115   5.689  15.250 -0.6036  0.8546  0.1966
10686TIP3   OH253548   1.725   2.043   5.631 -0.2312  0.0514 -0.5644
10686TIP3    H153549   1.638   2.005   5.623 -0.8843  1.1108  1.1081
10686TIP3    H253550   1.710   2.137   5.641  0.9549  0.1021  1.3733
10687TIP3   OH253551   3.084   3.498  13.346 -0.1575  0.3510 -0.6491
10687TIP3    H153552   3.036   3.493  13.263 -0.6700 -0.0765 -0.3379
10687TIP3    H253553   3.018   3.525  13.410 -0.0168 -0.3545 -0.1900
10688TIP3   OH253554   4.548   4.230   5.209 -0.8873 -0.4765  0.7706
10688TIP3    H153555   4.453   4.238   5.218 -0.6212  2.5416  2.1033
10688TIP3    H253556   4.581   4.244   5.297  0.8853  0.7085 -0.0406
10689TIP3   OH253557   6.255   6.493   2.073  0.3770  0.0022 -0.3166
10689TIP3    H153558   6.181   6.465   2.126  1.3732  0.2361  1.2743
10689TIP3    H253559   6.268   6.585   2.097 -0.9765  1.0752 -3.2163
10690TIP3   OH253560   4.676   3.725  10.790 -0.5799 -0.2491 -0.1578
10690TIP3    H153561   4.730   3.664  10.740 -1.7543 -0.3635 -1.3614
10690TIP3    H253562   4.640   3.784  10.724 -0.4797  0.9564  0.8377
10691TIP3   OH253563   0.332   3.882   1.020  0.3150 -0.0904  0.4735
10691TIP3    H153564   0.328   3.790   0.996  0.4157 -0.3407  1.3554
10691TIP3    H253565   0.417   3.912   0.987 -0.5883  0.2790 -1.6962
10692TIP3   OH253566   5.461   0.331  12.574 -0.1456 -0.8748 -0.0135
10692TIP3    H153567   5.512   0.253  12.595 -1.6246 -1.0922  3.2523
10692TIP3    H253568   5.394   0.301  12.512  0.2167 -1.8266  0.0459
10693TIP3   OH253569   2.901   2.207   5.285 -0.4352 -0.0485  0.3278
10693TIP3    H153570   2.953   2.164   5.218  0.3372 -0.2492  1.0424
10693TIP3    H253571   2.893   2.298   5.255 -2.7078 -0.7717 -1.5672
10694TIP3   OH253572   5.597   5.989  16.022  0.2215 -0.6964  0.2240
10694TIP3    H153573   5.665   5.948  16.076  0.2692  0.2488  0.9129
10694TIP3    H253574   5.518   5.938  16.042  0.7456 -1.9815 -0.8005
10695TIP3   OH253575   4.024   6.215   3.660 -0.2159 -0.3582 -0.6789
10695TIP3    H153576   3.934   6.248   3.655 -0.9236 -1.2969  2.8108
10695TIP3    H253577   4.078   6.293   3.673 -1.0181 -0.0127  0.7653
10696TIP3   OH253578   4.247   4.634   4.800 -0.2362  0.2768  0.1544
10696TIP3    H153579   4.227   4.603   4.889 -0.4024  0.9850  0.3695
10696TIP3    H253580   4.322   4.582   4.773  0.7090  1.0137  1.2575
10697TIP3   OH253581   2.750   1.356   6.041 -0.2256  0.0003 -0.1503
10697TIP3    H153582   2.769   1.445   6.071 -0.5176  0.2126 -0.5811
10697TIP3    H253583   2.834   1.310   6.045 -0.2738 -0.0186  1.1059
10698TIP3   OH253584   4.060   6.525  16.307  0.7314 -0.1564 -0.1692
10698TIP3    H153585   4.090   6.612  16.333 -1.8552  0.5959  0.6340
10698TIP3    H253586   4.123   6.465  16.345  2.9625  1.3322 -1.2887
10699TIP3   OH253587   0.639   1.108   2.033 -0.1879 -0.8444 -0.3412
10699TIP3    H153588   0.676   1.189   2.066 -3.2172  0.2402  0.7170
10699TIP3    H253589   0.699   1.040   2.063  1.3424  0.8003  0.5236
10700TIP3   OH253590   1.438   0.951   1.531 -0.1504 -0.2958 -0.2382
10700TIP3    H153591   1.352   0.972   1.567 -0.7272 -1.1882 -1.0350
10700TIP3    H253592   1.489   0.920   1.607 -1.2847 -1.9783 -0.1068
10701TIP3   OH253593   5.693   6.565  12.537  0.1112 -0.3155 -0.0227
10701TIP3    H153594   5.750   6.579  12.461 -0.1418 -1.9229 -0.5507
10701TIP3    H253595   5.605   6.579  12.505  0.0316 -0.5674  0.0800
10702TIP3   OH253596   0.047   1.107  16.718 -0.0584 -0.5069  0.2997
10702TIP3    H153597   0.041   1.158  16.637  0.4690 -0.2985  0.3889
10702TIP3    H253598  -0.029   1.135  16.769 -0.6686 -0.9877 -0.3109
10703TIP3   OH253599   5.458   3.207   1.223 -0.4293 -0.4543 -0.1974
10703TIP3    H153600   5.491   3.118   1.216 -0.8004 -0.4953 -1.7485
10703TIP3    H253601   5.413   3.223   1.140  1.2470  1.8150 -0.7650
10704TIP3   OH253602   5.308   1.030   5.577  0.1757  0.1702 -0.1477
10704TIP3    H153603   5.323   0.940   5.607 -3.0990  0.4477  2.9713
10704TIP3    H253604   5.234   1.023   5.517  0.5287  0.6920 -0.6480
10705TIP3   OH253605   5.374   1.279   6.026 -0.2047  0.2072 -0.7440
10705TIP3    H153606   5.331   1.363   6.008 -1.8682 -0.5421 -0.3371
10705TIP3    H253607   5.395   1.244   5.939  0.0974  0.8180 -0.9266
10706TIP3   OH253608   5.641   6.010   1.189 -0.2425  0.0405  0.0924
10706TIP3    H153609   5.569   6.071   1.172 -1.5118 -1.0715  1.2463
10706TIP3    H253610   5.683   5.999   1.103 -1.3938  0.7668 -0.5995
10707TIP3   OH253611   6.148   2.136   1.022  0.9338  0.2627 -0.4421
10707TIP3    H153612   6.085   2.172   1.085 -0.1198  0.5584 -1.6169
10707TIP3    H253613   6.124   2.044   1.014  2.3659 -0.2842  1.0752
10708TIP3   OH253614   6.493   6.577  16.814  0.4346  0.2821 -0.4202
10708TIP3    H153615   6.431   6.544  16.749  1.8887 -0.6145 -1.4280
10708TIP3    H253616   6.493   6.672  16.802  0.1884  0.1801 -1.2887
10709TIP3   OH253617   4.455   2.328  11.392 -0.5511 -0.4863  0.1481
10709TIP3    H153618   4.429   2.347  11.481  1.1266 -2.0423  1.0476
10709TIP3    H253619   4.375   2.297  11.349 -1.4858  0.7968  0.9289
10710TIP3   OH253620   3.997   6.236   3.317 -0.3223 -0.0112 -0.0248
10710TIP3    H153621   3.953   6.152   3.309  0.9875 -0.6709 -0.7941
10710TIP3    H253622   4.008   6.266   3.226 -0.8129  1.0121  0.2405
10711TIP3   OH253623   4.603   0.337   0.465 -0.2294  0.7368 -0.0960
10711TIP3    H153624   4.697   0.335   0.447  0.2842  0.1136  2.2909
10711TIP3    H253625   4.585   0.428   0.485  0.2400  0.6063  1.0048
10712TIP3   OH253626   4.789   5.116   4.689 -0.6974 -0.3412  0.1507
10712TIP3    H153627   4.757   5.119   4.779 -0.1482 -2.7004  0.5013
10712TIP3    H253628   4.882   5.095   4.697 -0.8958 -1.8281 -0.9410
10713TIP3   OH253629   4.474   1.503  13.695  0.0230  0.6985 -0.5909
10713TIP3    H153630   4.481   1.432  13.631  0.8278  1.0654 -0.9166
10713TIP3    H253631   4.557   1.501  13.743 -0.9986 -0.3302  1.2619
10714TIP3   OH253632   4.079   4.354  12.249  0.0916  0.2790  0.3107
10714TIP3    H153633   4.087   4.446  12.224  1.2480 -0.0350 -0.5406
10714TIP3    H253634   4.018   4.355  12.323  0.5951  1.7941  0.7430
10715TIP3   OH253635   6.273   3.231   4.031  0.3444 -0.0008 -0.9523
10715TIP3    H153636   6.182   3.202   4.027 -0.0350  1.1385 -0.8230
10715TIP3    H253637   6.270   3.325   4.013  1.2334  0.4987  1.1820
10716TIP3   OH253638   4.858   3.098  11.066 -0.9094 -0.4868 -0.3655
10716TIP3    H153639   4.779   3.135  11.104 -0.3806  0.9507 -0.5953
10716TIP3    H253640   4.877   3.021  11.119 -2.1872 -0.5683 -0.0124
10717TIP3   OH253641   2.757   0.394   1.950 -0.4199  0.4528 -0.8600
10717TIP3    H153642   2.729   0.323   1.892 -2.1187  1.6062 -1.5132
10717TIP3    H253643   2.693   0.394   2.021  1.4094 -0.6745  0.9043
10718TIP3   OH253644   2.306   1.561  16.966 -0.5150 -0.0827  0.4803
10718TIP3    H153645   2.364   1.526  16.899 -0.9607 -0.0034  0.0419
10718TIP3    H253646   2.346   1.644  16.992  1.6970 -1.8129  3.0571
10719TIP3   OH253647   1.686   5.475   2.143  0.3741 -0.1488 -0.4838
10719TIP3    H153648   1.626   5.541   2.108 -1.3397 -0.3970  1.7624
10719TIP3    H253649   1.771   5.496   2.104 -0.6990  1.5968 -2.0328
10720TIP3   OH253650   6.005   1.460   0.112  0.3339  0.3629 -0.2818
10720TIP3    H153651   6.079   1.478   0.055  0.8910 -1.4436 -0.2138
10720TIP3    H253652   5.934   1.437   0.052  0.3574  0.3574 -0.3075
10721TIP3   OH253653   2.857   2.035  16.965  0.2375 -0.1553 -0.1834
10721TIP3    H153654   2.874   1.995  17.050  0.2582  1.3901  0.5769
10721TIP3    H253655   2.935   2.086  16.945 -0.3987  0.7738 -0.3638
10722TIP3   OH253656   6.542   1.008  16.646  0.0505  0.1161  0.1270
10722TIP3    H153657   6.632   0.992  16.616 -0.5428  0.7898 -2.1528
10722TIP3    H253658   6.510   1.078  16.590 -1.9064 -0.0615  0.9561
10723TIP3   OH253659   4.043   1.130   2.095  0.0335  0.3032  0.5951
10723TIP3    H153660   4.031   1.076   2.173  0.3520  0.2660  0.6208
10723TIP3    H253661   3.996   1.211   2.114 -1.0100 -0.2162  0.2863
10724TIP3   OH253662   6.115   6.422  16.907  0.0597 -0.0627  0.5124
10724TIP3    H153663   6.190   6.435  16.849 -0.9340  0.7250 -0.6572
10724TIP3    H253664   6.049   6.483  16.874 -1.4000 -1.3449  0.9522
10725TIP3   OH253665   2.922   6.810   4.219  0.6344  0.3939  0.0534
10725TIP3    H153666   3.001   6.820   4.165  1.1764 -0.7129  0.6104
10725TIP3    H253667   2.857   6.772   4.159  1.2765 -0.9722  0.1769
10726TIP3   OH253668   3.408   5.988  16.879  0.4299 -0.8335 -0.5304
10726TIP3    H153669   3.482   6.006  16.821 -1.4604  0.1520 -2.8196
10726TIP3    H253670   3.391   6.072  16.922  1.3876 -1.3846  0.9756
10727TIP3   OH253671   5.283   5.522  16.803 -0.6806 -0.0818 -0.1081
10727TIP3    H153672   5.237   5.444  16.772 -1.0199  0.0838 -0.0223
10727TIP3    H253673   5.341   5.490  16.872 -0.4299 -0.3413 -0.4338
10728TIP3   OH253674   3.848   5.697   0.964 -0.1001  0.0996 -0.0375
10728TIP3    H153675   3.881   5.689   0.875 -0.4873 -0.4919 -0.1343
10728TIP3    H253676   3.786   5.770   0.960  1.7460  1.7576  0.3293
10729TIP3   OH253677   1.906   2.905   5.796 -0.2043 -0.1602  0.0159
10729TIP3    H153678   1.892   2.951   5.713 -0.1577  1.9679  1.1148
10729TIP3    H253679   1.819   2.902   5.836  0.2793  2.0158  1.3954
10730TIP3   OH253680   3.497   4.483  15.996 -0.0111 -0.3577 -0.2602
10730TIP3    H153681   3.479   4.389  16.007  2.8395 -0.9604  0.0223
10730TIP3    H253682   3.486   4.498  15.902 -2.1515 -0.5196 -0.0820
10731TIP3   OH253683   5.266   1.499  12.510  0.4090  0.0065 -0.1411
10731TIP3    H153684   5.342   1.553  12.488 -1.0795  1.8724 -0.9986
10731TIP3    H253685   5.236   1.463  12.426 -0.2720  0.1917  0.0109
10732TIP3   OH253686   5.637   2.471  13.980  0.1050 -0.1520 -0.2799
10732TIP3    H153687   5.620   2.458  14.073 -1.2210 -0.6236 -0.5600
10732TIP3    H253688   5.644   2.382  13.944 -2.2681 -0.1071 -1.0696
10733TIP3   OH253689   2.676   0.616   0.111 -0.6237  0.5667 -0.2163
10733TIP3    H153690   2.677   0.712   0.104 -1.1391  0.5007 -1.3452
10733TIP3    H253691   2.592   0.597   0.153 -0.5113  0.6080  0.0285
10734TIP3   OH253692   1.372   0.286   3.294  0.0246  0.0158  0.7120
10734TIP3    H153693   1.289   0.243   3.275 -0.0209  0.2741  0.3321
10734TIP3    H253694   1.350   0.379   3.301  0.6056  0.3670 -1.4580
10735TIP3   OH253695   3.788   4.543   4.243 -0.1615  0.3548 -0.4060
10735TIP3    H153696   3.811   4.600   4.170 -0.0718  0.4274 -0.3214
10735TIP3    H253697   3.815   4.456   4.215 -2.3380 -0.0451 -1.4825
10736TIP3   OH253698   2.959   1.666   0.308 -0.1261 -0.5851  0.0940
10736TIP3    H153699   2.889   1.611   0.342  1.2095 -2.0818  0.5404
10736TIP3    H253700   2.917   1.751   0.292 -1.4026 -0.5614  2.9980
10737TIP3   OH253701   3.549   6.545   1.149  0.6076  0.2936  0.2501
10737TIP3    H153702   3.481   6.485   1.177 -0.3368 -0.7846 -3.7094
10737TIP3    H253703   3.519   6.631   1.177 -2.2082 -0.2286 -0.8533
10738TIP3   OH253704   2.181   1.958   2.427  0.3349 -0.8043  0.5091
10738TIP3    H153705   2.118   1.980   2.359 -0.5967  0.0692  1.6304
10738TIP3    H253706   2.252   2.021   2.416 -0.1391 -0.2179  0.7711
10739TIP3   OH253707   4.686   4.261  13.875  0.1580  0.4187 -0.0379
10739TIP3    H153708   4.767   4.237  13.831 -0.9901 -1.9243 -1.1223
10739TIP3    H253709   4.676   4.195  13.944 -1.3038 -0.0088 -0.6145
10740TIP3   OH253710   1.985   4.360   5.549 -0.0020 -0.3206  0.1409
10740TIP3    H153711   1.994   4.394   5.639 -0.0085 -2.4766  1.0238
10740TIP3    H253712   2.064   4.390   5.504 -0.0603  0.9083  0.8085
10741TIP3   OH253713   3.014   4.180   3.221  0.9595 -1.0530  0.5608
10741TIP3    H153714   2.959   4.155   3.147  2.0086 -1.7009 -0.0239
10741TIP3    H253715   2.988   4.121   3.291  0.4311 -0.8867  0.5082
10742TIP3   OH253716   0.910   4.444   2.964 -0.0386 -0.7396  0.0143
10742TIP3    H153717   0.984   4.473   2.910  0.6789 -0.0752  1.2924
10742TIP3    H253718   0.834   4.452   2.907  0.7262 -0.3690 -0.9945
10743TIP3   OH253719   0.299   0.464  15.690  0.0087 -0.6010  0.2246
10743TIP3    H153720   0.246   0.461  15.610 -0.3365 -0.4027  0.4431
10743TIP3    H253721   0.240   0.500  15.757  0.4599 -0.2424  0.4374
10744TIP3   OH253722   2.475   2.198   4.074 -0.1766  0.4225  0.3001
10744TIP3    H153723   2.555   2.193   4.023  0.0926 -0.8850  0.8103
10744TIP3    H253724   2.409   2.230   4.013 -0.2473 -2.6173 -1.4028
10745TIP3   OH253725   6.510   2.488   5.101  0.0171 -0.0378 -0.1794
10745TIP3    H153726   6.440   2.549   5.124  0.4571 -0.6089  3.2408
10745TIP3    H253727   6.495   2.412   5.157  2.6398 -0.6843 -0.2318
10746TIP3   OH253728   6.047   6.089  16.719  0.0321  0.1235  0.1053
10746TIP3    H153729   6.023   6.002  16.751 -1.7127  0.2063 -0.8784
10746TIP3    H253730   6.049   6.144  16.798  2.5447 -1.0261  0.9518
10747TIP3   OH253731   5.849   5.344  16.693  0.2138  0.1217  0.2987
10747TIP3    H153732   5.754   5.343  16.707  0.2202  1.2351  0.4961
10747TIP3    H253733   5.864   5.415  16.631  0.9866  0.4311  0.8210
10748TIP3   OH253734   2.417   2.298   1.965  0.0586  0.2739  0.4762
10748TIP3    H153735   2.379   2.268   2.047 -1.8597 -0.1963 -0.5337
10748TIP3    H253736   2.379   2.384   1.951  0.7504  0.5607  0.2888
10749TIP3   OH253737   5.545   4.061   2.737 -0.0658  0.3849 -0.0338
10749TIP3    H153738   5.524   4.090   2.825  0.2092 -0.1907  0.2261
10749TIP3    H253739   5.595   3.980   2.749 -0.1137  0.2439 -0.7173
10750TIP3   OH253740   4.275   4.367   3.484 -0.5223 -0.4321  0.2130
10750TIP3    H153741   4.229   4.450   3.475 -1.8304 -1.1174  0.2950
10750TIP3    H253742   4.358   4.389   3.526 -1.2641  0.7032  1.1335
10751TIP3   OH253743   4.003   0.459   3.997 -0.2030 -0.0325 -0.6808
10751TIP3    H153744   4.000   0.529   4.062  2.9310 -0.7453  0.4425
10751TIP3    H253745   4.029   0.501   3.916 -1.6235  0.5115 -0.8766
10752TIP3   OH253746   4.221   2.711   3.304  0.1950  0.6298  0.4769
10752TIP3    H153747   4.258   2.668   3.381  1.0376  1.4727  0.5491
10752TIP3    H253748   4.296   2.750   3.260  0.2655 -2.3486 -2.4677
10753TIP3   OH253749   3.091   4.454  11.602 -0.1114  0.3202 -0.2826
10753TIP3    H153750   3.104   4.469  11.509  0.3765  0.2875 -0.2232
10753TIP3    H253751   3.109   4.360  11.614  0.8359  0.5293  0.0046
10754TIP3   OH253752   5.878   5.007  13.210  0.0973 -0.0449 -0.3022
10754TIP3    H153753   5.784   4.991  13.218 -0.2883  2.2367  0.8506
10754TIP3    H253754   5.891   5.027  13.117 -0.8028  0.7057 -0.2863
10755TIP3   OH253755   2.555   1.362  16.608 -0.5299  0.1672 -0.7643
10755TIP3    H153756   2.524   1.272  16.615 -0.2320  0.1521  0.7593
10755TIP3    H253757   2.630   1.366  16.668 -1.5581  1.8342  0.4774
10756TIP3   OH253758   0.266   1.025   4.498  0.0265  0.3829 -0.5639
10756TIP3    H153759   0.183   1.042   4.543  0.7913 -2.1254  2.1511
10756TIP3    H253760   0.325   1.094   4.529  0.7231 -1.6361  3.2295
10757TIP3   OH253761   6.192   6.494  15.787  0.2403  0.5984 -0.4800
10757TIP3    H153762   6.135   6.465  15.715 -1.2898 -3.2719  1.9594
10757TIP3    H253763   6.269   6.438  15.781  0.6268  1.0350  0.2223
10758TIP3   OH253764   0.160   3.359  15.131 -0.5401 -0.1311 -0.4448
10758TIP3    H153765   0.245   3.400  15.116 -0.6430  0.4989  0.6098
10758TIP3    H253766   0.126   3.403  15.209 -1.7284 -0.5428 -0.7179
10759TIP3   OH253767   1.073   3.496  13.137 -0.8718 -0.0746 -0.0598
10759TIP3    H153768   1.150   3.445  13.164  0.2635  0.9557 -1.1920
10759TIP3    H253769   1.072   3.489  13.042 -1.3022  1.1482 -0.1659
10760TIP3   OH253770   6.751   3.693   5.882  0.5171 -0.1558  0.7544
10760TIP3    H153771   6.669   3.742   5.874  0.0989 -0.5814  2.1289
10760TIP3    H253772   6.801   3.718   5.804 -2.1383 -2.2794 -1.8742
10761TIP3   OH253773   4.824   1.978   5.008  0.1653 -0.2615 -0.2770
10761TIP3    H153774   4.872   2.057   4.981  0.3978 -0.3124 -0.0265
10761TIP3    H253775   4.870   1.906   4.965  0.1106 -0.2797 -0.3039
10762TIP3   OH253776   2.790   3.434   5.219 -0.4652 -0.1711  0.8965
10762TIP3    H153777   2.775   3.502   5.153  0.0711 -1.4130 -0.5876
10762TIP3    H253778   2.707   3.387   5.225 -0.8039  0.5436  1.8398
10763TIP3   OH253779   4.986   3.565   6.085 -0.4164  0.6496 -0.6554
10763TIP3    H153780   5.078   3.586   6.102  0.1388 -0.0165 -2.6158
10763TIP3    H253781   4.959   3.626   6.017 -1.6184  1.1765  0.2561
10764TIP3   OH253782   2.078   0.174  16.346  0.5247  0.5139  0.3801
10764TIP3    H153783   2.070   0.088  16.305  0.3655  0.5924  0.2468
10764TIP3    H253784   2.088   0.155  16.439 -0.7172  0.3734  0.5107
10765TIP3   OH253785   2.662   2.379   3.176  0.1779 -0.5446  0.2498
10765TIP3    H153786   2.647   2.325   3.254 -0.0318 -0.5279  0.2217
10765TIP3    H253787   2.734   2.336   3.130  0.4994 -0.3866  0.6058
10766TIP3   OH253788   3.339   2.511   2.645  0.4868 -0.7272 -0.5863
10766TIP3    H153789   3.301   2.452   2.710 -0.1793 -1.2017 -1.3858
10766TIP3    H253790   3.359   2.455   2.570  0.1929 -0.0105 -1.2188
10767TIP3   OH253791   0.264   3.822   3.175  0.1760  0.0973 -0.2244
10767TIP3    H153792   0.197   3.873   3.131  0.6193 -0.5794 -1.7297
10767TIP3    H253793   0.239   3.731   3.159  0.5306 -0.1645  0.6563
10768TIP3   OH253794   2.216   0.625  10.593 -0.7880  0.1259 -0.4285
10768TIP3    H153795   2.194   0.543  10.637 -0.5964  0.1834 -0.2296
10768TIP3    H253796   2.182   0.693  10.651  0.4328  0.2414  0.1810
10769TIP3   OH253797   0.687   0.259   3.457  0.1334  0.0016  0.3705
10769TIP3    H153798   0.675   0.241   3.364 -0.7868  2.2366 -0.0165
10769TIP3    H253799   0.723   0.178   3.493  1.7822 -0.4939 -2.1510
10770TIP3   OH253800   3.990   3.963   5.328 -0.4837 -0.6736 -0.1006
10770TIP3    H153801   3.993   3.882   5.378 -1.5922  0.1647  1.3938
10770TIP3    H253802   4.079   3.975   5.295  0.4978 -0.8970  2.2892
10771TIP3   OH253803   3.552   1.992   1.351  0.3542 -0.2656 -0.1724
10771TIP3    H153804   3.556   2.021   1.260  2.1220 -0.3962 -0.1624
10771TIP3    H253805   3.581   2.068   1.402  0.3220 -0.5092  0.2157
10772TIP3   OH253806   0.657   5.696   2.484  0.2208  0.1868  0.2365
10772TIP3    H153807   0.599   5.651   2.423  3.1534 -3.4602 -0.1740
10772TIP3    H253808   0.744   5.663   2.464  1.6849  0.4989  4.9146
10773TIP3   OH253809   5.420   5.237   5.513 -0.1305  0.3442 -0.2520
10773TIP3    H153810   5.472   5.157   5.527  1.0291  0.9983 -0.6798
10773TIP3    H253811   5.443   5.264   5.425 -2.0271  0.0916 -0.8599
10774TIP3   OH253812   5.695   6.812   6.259  0.1130  0.1522  0.2864
10774TIP3    H153813   5.655   6.866   6.328 -1.0039 -0.1228 -0.1191
10774TIP3    H253814   5.621   6.783   6.206  0.8603 -0.4822 -0.4329
10775TIP3   OH253815   2.703   1.547   5.295 -0.2529 -0.8181 -0.0665
10775TIP3    H153816   2.718   1.459   5.261  0.6838 -0.2913 -1.0789
10775TIP3    H253817   2.702   1.536   5.390 -0.5604 -1.9811 -0.1912
10776TIP3   OH253818   1.117   4.503   2.793  0.2537 -0.0084 -0.0725
10776TIP3    H153819   1.186   4.464   2.846  0.0037 -1.2588 -0.6260
10776TIP3    H253820   1.149   4.496   2.703 -1.3130 -2.2575 -0.5252
10777TIP3   OH253821   6.811   4.751   4.593  0.6855  0.2367  0.5683
10777TIP3    H153822   6.779   4.664   4.569  0.8246  0.3399 -0.0077
10777TIP3    H253823   6.827   4.746   4.687 -1.2053  0.2333  0.9384
10778TIP3   OH253824   1.080   5.872  15.600  0.1659  0.0415  0.2380
10778TIP3    H153825   1.013   5.804  15.585 -1.3017  1.2624  0.9916
10778TIP3    H253826   1.059   5.939  15.535 -0.2784  1.0862  1.4284
10779TIP3   OH253827   6.514   1.879   5.783 -0.0292 -0.3600 -0.5679
10779TIP3    H153828   6.530   1.876   5.877 -1.9131  2.1095 -0.0722
10779TIP3    H253829   6.449   1.811   5.767  0.3910 -0.8701 -0.1093
10780TIP3   OH253830   0.941   5.428  15.661  0.2641 -0.1086 -0.4764
10780TIP3    H153831   0.892   5.346  15.660  1.7659 -1.0959  1.1250
10780TIP3    H253832   1.029   5.404  15.633  0.7557  0.9440  0.0989
10781TIP3   OH253833   0.046   5.858  16.514  0.4187  0.0530  0.5972
10781TIP3    H153834   0.039   5.913  16.592 -1.0247 -0.0495  0.5668
10781TIP3    H253835   0.072   5.918  16.444  0.1823  0.4324  0.8358
10782TIP3   OH253836   3.407   6.614  11.644  0.1282 -0.4128  0.3098
10782TIP3    H153837   3.474   6.561  11.600 -0.2614 -1.5666  1.0599
10782TIP3    H253838   3.359   6.551  11.698 -1.4336  0.4265 -0.0549
10783TIP3   OH253839   4.184   4.399  14.327  0.4007  0.7687  0.2535
10783TIP3    H153840   4.244   4.334  14.290 -2.3955 -0.5602 -2.3247
10783TIP3    H253841   4.121   4.348  14.377 -1.6292  1.4374 -1.4912
10784TIP3   OH253842   3.866   5.467  15.345 -0.5473 -0.3237  0.3392
10784TIP3    H153843   3.775   5.455  15.374  0.1448 -1.4002  2.2124
10784TIP3    H253844   3.909   5.386  15.368  0.8225 -0.0055 -0.9672
10785TIP3   OH253845   5.691   0.091   3.365  0.0359 -0.1808  0.4459
10785TIP3    H153846   5.695   0.025   3.296 -3.0789  0.3910 -0.4330
10785TIP3    H253847   5.657   0.044   3.441  0.3364 -0.1205  0.6188
10786TIP3   OH253848   3.443   0.832   2.045 -0.0878 -0.4779 -0.3301
10786TIP3    H153849   3.429   0.860   2.136 -0.2875 -2.3446  0.2614
10786TIP3    H253850   3.378   0.763   2.032  0.2488 -0.5378 -1.7662
10787TIP3   OH253851   4.242   4.470   0.742  0.0221 -0.1309 -0.2739
10787TIP3    H153852   4.230   4.511   0.656  0.3056 -0.2428 -0.3687
10787TIP3    H253853   4.223   4.540   0.804  0.2945  0.0932 -0.4352
10788TIP3   OH253854   5.168   6.773   4.482  0.0204 -0.1378 -0.2428
10788TIP3    H153855   5.190   6.757   4.573 -0.4120 -1.8181 -0.3897
10788TIP3    H253856   5.073   6.768   4.479 -0.0969  1.6042 -0.5315
10789TIP3   OH253857   5.738   3.687  10.723  0.0497  0.4749 -0.1909
10789TIP3    H153858   5.826   3.703  10.690  0.4344  0.3401  0.7572
10789TIP3    H253859   5.726   3.592  10.717  0.4859  0.3420  0.9556
10790TIP3   OH253860   0.055   1.178   5.499 -0.1287 -0.4730  0.4365
10790TIP3    H153861  -0.005   1.194   5.572 -2.2429 -0.5636 -1.1737
10790TIP3    H253862   0.085   1.088   5.511  0.3639 -0.1482  1.7276
10791TIP3   OH253863   3.448   2.884  11.206  0.4375  0.1044  0.2689
10791TIP3    H153864   3.397   2.851  11.131  0.1104 -1.4099  1.1204
10791TIP3    H253865   3.402   2.852  11.283  1.7830  0.0751  1.0992
10792TIP3   OH253866   3.977   5.483   4.573  0.0034 -0.1648 -0.2151
10792TIP3    H153867   4.048   5.423   4.548  0.7506  0.6753 -0.1608
10792TIP3    H253868   3.990   5.498   4.666 -1.4403 -1.5231  0.2499
10793TIP3   OH253869   5.166   2.521   4.928  0.1477 -0.2871 -0.2199
10793TIP3    H153870   5.213   2.597   4.961  0.6279 -0.7304  0.1394
10793TIP3    H253871   5.075   2.536   4.951  0.0552  0.7071 -1.1554
10794TIP3   OH253872   3.763   4.401  15.159 -0.2646  0.3169 -0.3390
10794TIP3    H153873   3.735   4.349  15.234  2.1494  1.1035  1.2300
10794TIP3    H253874   3.706   4.478  15.160 -1.3983 -0.5128 -0.4043
10795TIP3   OH253875   0.773   1.164   1.489 -0.1565  0.4035 -0.3659
10795TIP3    H153876   0.742   1.074   1.495  1.4641 -0.1686 -0.0521
10795TIP3    H253877   0.723   1.201   1.416 -1.2751 -0.5478 -0.1194
10796TIP3   OH253878   2.969   6.494  14.056  0.7794 -0.3960 -0.2156
10796TIP3    H153879   2.966   6.497  14.151 -0.4646 -1.8703 -0.1698
10796TIP3    H253880   2.961   6.401  14.034  0.4137 -0.0347 -1.7601
10797TIP3   OH253881   0.805   2.762  16.030 -0.7947 -0.0680 -0.2258
10797TIP3    H153882   0.795   2.836  15.971 -1.2579  0.3563  0.3716
10797TIP3    H253883   0.846   2.694  15.977 -1.2022  0.3032 -1.0289
10798TIP3   OH253884   4.162   4.734   3.906  0.4136 -0.3592  0.3160
10798TIP3    H153885   4.185   4.786   3.829  0.7395 -1.7213 -0.5335
10798TIP3    H253886   4.227   4.664   3.908  0.2872 -0.4726  1.7339
10799TIP3   OH253887   6.519   3.946   4.271  0.7361 -0.0548 -0.1572
10799TIP3    H153888   6.442   3.912   4.225 -1.9188  2.3266  2.1389
10799TIP3    H253889   6.490   3.955   4.362  3.7033  1.1545  0.7709
10800TIP3   OH253890   4.584   3.571  14.277 -0.1862  1.0424  0.0593
10800TIP3    H153891   4.670   3.543  14.308  0.7759  1.2784 -2.2374
10800TIP3    H253892   4.524   3.503  14.307  1.2847 -0.7422 -0.8915
10801TIP3   OH253893   5.787   3.847   2.464  0.0813  0.4634  0.6765
10801TIP3    H153894   5.801   3.941   2.471  1.1625  0.2985  0.9002
10801TIP3    H253895   5.711   3.838   2.406  0.3773  1.4508  0.1102
10802TIP3   OH253896   5.179   5.149  12.724 -0.6531 -0.4841  0.9979
10802TIP3    H153897   5.145   5.167  12.636  0.2830  2.0611  1.0674
10802TIP3    H253898   5.104   5.117  12.773 -1.5065 -0.6739 -0.3766
10803TIP3   OH253899   2.951   6.417   0.759 -0.6360 -0.0668  0.0403
10803TIP3    H153900   3.026   6.473   0.778  0.1594  0.5146 -3.8404
10803TIP3    H253901   2.989   6.331   0.741 -1.0172 -0.0745 -0.7649
10804TIP3   OH253902   0.718   0.392  13.902  0.7552 -0.4625  0.0298
10804TIP3    H153903   0.660   0.401  13.977  2.2746 -1.0516  1.3285
10804TIP3    H253904   0.701   0.305  13.868 -0.0409 -0.1388 -0.4251
10805TIP3   OH253905   4.816   4.792  13.500 -0.0208  0.2254  0.0716
10805TIP3    H153906   4.838   4.724  13.436 -0.4152 -0.5435  0.7414
10805TIP3    H253907   4.726   4.817  13.479 -0.3354 -0.3959  0.6274
10806TIP3   OH253908   1.493   1.587   5.727  0.1198  0.3158 -0.7320
10806TIP3    H153909   1.500   1.585   5.822  2.4166 -2.3307 -0.8158
10806TIP3    H253910   1.501   1.679   5.704 -0.1855  0.9862  1.6078
10807TIP3   OH253911   6.030   4.528  14.496 -1.0753 -0.3237  0.1942
10807TIP3    H153912   6.011   4.437  14.476 -1.2981 -0.1336 -0.4878
10807TIP3    H253913   6.074   4.562  14.418 -1.7211  0.3604  0.1061
10808TIP3   OH253914   1.888   6.326  13.346 -0.6636 -0.2216  0.5016
10808TIP3    H153915   1.888   6.422  13.350 -0.0243 -0.1637 -0.5261
10808TIP3    H253916   1.906   6.298  13.436  0.5934  0.6573  0.5537
10809TIP3   OH253917   6.479   3.043   5.081  0.5541  0.4335  0.1269
10809TIP3    H153918   6.502   3.079   4.995  0.9368 -1.2496 -0.5257
10809TIP3    H253919   6.516   2.954   5.080 -0.1661  0.0828  1.7121
10810TIP3   OH253920   2.608   3.923   1.920  0.2180 -0.4940  0.1110
10810TIP3    H153921   2.647   3.979   1.854  1.1148  0.3487  1.3173
10810TIP3    H253922   2.599   3.978   1.997  0.1444 -1.7240  1.0184
10811TIP3   OH253923   0.932   5.375  10.967  0.1344 -0.0805 -0.1257
10811TIP3    H153924   0.903   5.352  10.879  2.0014  1.0834 -1.1083
10811TIP3    H253925   1.025   5.353  10.968  0.4656  1.2096  1.0558
10812TIP3   OH253926   0.160   0.471   6.341  0.4455 -0.1476 -0.4399
10812TIP3    H153927   0.249   0.504   6.331  0.0193  1.2489  0.0742
10812TIP3    H253928   0.153   0.447   6.433  0.1322  0.3114 -0.3366
10813TIP3   OH253929   5.684   1.110   5.669  0.1313  0.1868  0.3094
10813TIP3    H153930   5.711   1.042   5.730  1.0819  1.4624  1.3657
10813TIP3    H253931   5.683   1.066   5.584 -2.1534 -1.8799  1.2867
10814TIP3   OH253932   1.076   6.103  13.405 -0.3579 -0.4478  0.3904
10814TIP3    H153933   1.040   6.190  13.422 -0.7710 -0.4548 -0.4119
10814TIP3    H253934   1.050   6.083  13.315  2.0449 -0.2460 -0.4398
10815TIP3   OH253935   0.039   3.614  11.514 -0.1855 -0.1344  0.3872
10815TIP3    H153936   0.127   3.640  11.486  0.1765 -1.6133  0.0683
10815TIP3    H253937  -0.015   3.692  11.498  1.0223  0.7394  0.4343
10816TIP3   OH253938   5.638   2.001  16.702  0.0904  0.2282 -0.2295
10816TIP3    H153939   5.602   1.947  16.773  1.0949 -0.2592 -0.0668
10816TIP3    H253940   5.680   1.938  16.644  0.8687  0.7983 -0.2912
10817TIP3   OH253941   1.039   2.647   5.444 -0.2164  0.0285 -0.3777
10817TIP3    H153942   1.102   2.718   5.453 -0.3582  0.2940 -1.3471
10817TIP3    H253943   1.009   2.653   5.353  2.1357 -3.2057 -1.5819
10818TIP3   OH253944   4.591   5.409  13.208  0.4450 -0.1532  0.2594
10818TIP3    H153945   4.567   5.502  13.217  0.1644 -0.0783 -1.0293
10818TIP3    H253946   4.554   5.383  13.123  1.4470 -1.1565  0.1121
10819TIP3   OH253947   2.725   3.082  14.402 -0.1059  0.6099  0.4192
10819TIP3    H153948   2.721   3.134  14.483  0.5221  2.7643 -0.8562
10819TIP3    H253949   2.634   3.059  14.385 -0.3806  1.0993  1.1433
10820TIP3   OH253950   3.591   3.932   2.000 -0.5884  0.0733  0.0628
10820TIP3    H153951   3.537   4.002   1.964 -2.1472 -0.7674  0.7033
10820TIP3    H253952   3.545   3.851   1.977  1.5141 -0.8433 -1.2528
10821TIP3   OH253953   6.379   0.545   4.786 -0.7187 -0.0798 -0.3945
10821TIP3    H153954   6.306   0.492   4.753 -0.1432  0.4272 -2.6472
10821TIP3    H253955   6.382   0.621   4.729  1.2717  0.1504 -0.0649
10822TIP3   OH253956   0.769   6.639  12.548 -0.0273 -0.1479 -0.1208
10822TIP3    H153957   0.811   6.556  12.525  1.4032  0.7256 -0.7870
10822TIP3    H253958   0.829   6.681  12.609 -0.3254  0.7663 -0.4283
10823TIP3   OH253959   1.178   0.774  11.650  0.3929  0.1855 -0.0029
10823TIP3    H153960   1.153   0.839  11.716  0.2148 -0.9375  1.0804
10823TIP3    H253961   1.185   0.692  11.699  1.8549 -0.3844 -1.0932
10824TIP3   OH253962   6.570   5.384   4.254 -0.1058  0.9775 -0.7370
10824TIP3    H153963   6.609   5.369   4.168 -0.1435  0.0108 -0.5947
10824TIP3    H253964   6.635   5.351   4.316 -0.9095 -0.1765 -0.4773
10825TIP3   OH253965   5.733   4.701  13.177  0.4122 -0.0319 -0.4485
10825TIP3    H153966   5.752   4.738  13.091 -0.1544  1.2888 -0.0333
10825TIP3    H253967   5.644   4.731  13.197  1.2191  1.3150  1.4052
10826TIP3   OH253968   3.732   2.934  13.637  0.0030 -0.4692  0.2379
10826TIP3    H153969   3.722   2.914  13.544 -0.9929  1.8298 -0.2104
10826TIP3    H253970   3.811   2.989  13.641  0.4601 -1.1473  0.8782
10827TIP3   OH253971   4.763   5.321  13.424  0.0485  0.0833  0.0039
10827TIP3    H153972   4.822   5.255  13.388  1.2650  2.0265 -1.8484
10827TIP3    H253973   4.702   5.339  13.352  0.2461  1.4919  0.1626
10828TIP3   OH253974   4.887   0.563   3.306  0.1956  0.3485 -0.0080
10828TIP3    H153975   4.874   0.636   3.247  1.5648 -0.1312 -0.9625
10828TIP3    H253976   4.862   0.596   3.392  1.5007  2.1916 -0.2839
10829TIP3   OH253977   0.341   2.221  11.268  0.0729 -0.2022 -0.6829
10829TIP3    H153978   0.378   2.309  11.261 -0.2829 -0.0042 -0.0790
10829TIP3    H253979   0.294   2.208  11.185 -3.9261  2.0307  0.9766
10830TIP3   OH253980   6.195   6.568   1.806  1.0938 -0.0107  0.0223
10830TIP3    H153981   6.192   6.540   1.897 -0.8593  0.9971  0.3243
10830TIP3    H253982   6.159   6.495   1.756 -0.3387  0.4272  0.3791
10831TIP3   OH253983   2.085   2.219   2.724 -0.2196 -0.2592 -0.0303
10831TIP3    H153984   2.143   2.291   2.699 -0.5276  0.7678  2.0138
10831TIP3    H253985   1.997   2.257   2.726 -0.4026 -0.6758  0.9683
10832TIP3   OH253986   2.569   1.244   2.717  0.1135 -0.5750 -0.8067
10832TIP3    H153987   2.608   1.201   2.793  0.1801 -0.8195 -0.9785
10832TIP3    H253988   2.529   1.173   2.667 -2.7552 -0.1102  0.6142
10833TIP3   OH253989   5.601   4.180  13.952  0.6063  0.4342 -0.3476
10833TIP3    H153990   5.523   4.178  14.007  1.0675 -0.3523  0.2929
10833TIP3    H253991   5.575   4.136  13.871 -0.0445  1.5077 -0.7399
10834TIP3   OH253992   1.324   1.334  14.513 -0.4906 -0.1133 -0.3213
10834TIP3    H153993   1.318   1.346  14.608 -2.1146 -1.1743 -0.2467
10834TIP3    H253994   1.404   1.380  14.488 -0.6411  1.1896  1.3942
10835TIP3   OH253995   4.329   5.654   3.528 -0.6926  0.1149 -1.1571
10835TIP3    H153996   4.306   5.682   3.616  0.8251 -0.4907 -0.5360
10835TIP3    H253997   4.260   5.691   3.472 -1.2394  1.1742  0.1712
10836TIP3   OH253998   2.881   5.239  16.735 -0.3305 -0.0860  0.2633
10836TIP3    H153999   2.968   5.278  16.747 -0.9991  0.8115  3.0886
10836TIP3    H254000   2.824   5.293  16.790 -2.4005 -1.5883 -0.3049
10837TIP3   OH254001   3.453   1.311  14.332 -0.2917  0.4616 -0.1460
10837TIP3    H154002   3.487   1.386  14.380 -3.0067  0.6243  1.7563
10837TIP3    H254003   3.494   1.316  14.246  0.5506  3.4017  0.3276
10838TIP3   OH254004   1.483   5.868   3.739  0.2111 -0.0179 -0.0574
10838TIP3    H154005   1.426   5.944   3.753 -1.4615 -1.1767 -0.1716
10838TIP3    H254006   1.464   5.810   3.812  1.3975 -0.3815 -0.0196
10839TIP3   OH254007   0.971   2.460  16.788 -0.0186  0.4928  0.8434
10839TIP3    H154008   0.922   2.391  16.743 -0.2671  0.2420  1.4802
10839TIP3    H254009   0.953   2.539  16.738 -0.8990  0.3644  0.9402
10840TIP3   OH254010   3.999   3.777   4.970  0.2274 -0.0568 -0.3785
10840TIP3    H154011   3.935   3.849   4.970 -1.5654 -1.5341 -2.2310
10840TIP3    H254012   3.950   3.702   5.002  0.8712 -1.3194 -2.2004
10841TIP3   OH254013   0.189   3.696   2.722  0.6728 -0.8211 -0.3413
10841TIP3    H154014   0.206   3.774   2.670  0.2565 -1.2397 -1.1197
10841TIP3    H254015   0.101   3.709   2.758  0.9038 -0.5962  0.1590
10842TIP3   OH254016   4.363   3.323  13.280 -0.0657  0.3158  0.3183
10842TIP3    H154017   4.392   3.281  13.360 -1.3214 -2.6905 -0.6801
10842TIP3    H254018   4.291   3.380  13.307  0.9681  1.0925  1.5611
10843TIP3   OH254019   0.779   4.590   1.651 -0.7025 -0.6203 -0.2623
10843TIP3    H154020   0.821   4.674   1.670 -3.9018  0.6367  2.1197
10843TIP3    H254021   0.848   4.537   1.611  2.5138  1.8690  1.5247
10844TIP3   OH254022   2.960   4.971  16.600  0.0487 -0.1938 -0.2112
10844TIP3    H154023   2.998   5.014  16.677  0.6386  0.7902 -1.0448
10844TIP3    H254024   2.900   5.035  16.564  0.6020 -0.2277 -1.2127
10845TIP3   OH254025   1.427   3.437  17.044 -0.2242  0.1097  0.2033
10845TIP3    H154026   1.462   3.360  17.089  1.3779  0.9527  0.4895
10845TIP3    H254027   1.341   3.451  17.082 -0.7511 -1.8215 -0.2087
10846TIP3   OH254028   0.014   3.639  15.783  0.7725  0.0091 -0.9526
10846TIP3    H154029   0.080   3.582  15.823  0.9804  1.1454  0.4269
10846TIP3    H254030  -0.069   3.592  15.796  0.8086  0.3928  1.0376
10847TIP3   OH254031   3.181   0.545   6.394 -0.1288  0.4488 -0.2182
10847TIP3    H154032   3.110   0.595   6.353 -2.1230 -0.5694  1.7762
10847TIP3    H254033   3.142   0.459   6.413  1.9213 -0.4587  0.1966
10848TIP3   OH254034   0.421   0.046  12.096 -0.6863 -0.1967 -0.1946
10848TIP3    H154035   0.408  -0.009  12.173  0.9947 -0.5527 -0.1261
10848TIP3    H254036   0.354   0.017  12.035 -2.2309  0.2888  1.2043
10849TIP3   OH254037   3.383   3.209   4.515 -0.5287 -0.1998  0.2302
10849TIP3    H154038   3.410   3.285   4.567 -2.5124  1.2753 -0.7265
10849TIP3    H254039   3.378   3.242   4.426 -0.5556 -1.7373 -0.3677
10850TIP3   OH254040   2.604   1.449   2.232 -0.1425  0.2440  0.1580
10850TIP3    H154041   2.582   1.459   2.325 -0.7120 -1.7397  0.2821
10850TIP3    H254042   2.567   1.526   2.190 -1.3582  0.3429  1.3431
10851TIP3   OH254043   3.519   4.507   2.881  0.1100  0.0347  0.0984
10851TIP3    H154044   3.473   4.590   2.866  2.7723  1.3509 -1.6871
10851TIP3    H254045   3.451   4.440   2.877 -1.6012  1.7259 -3.3154
10852TIP3   OH254046   1.007   6.376  14.846 -0.7468 -0.3006 -0.6525
10852TIP3    H154047   0.935   6.342  14.899 -0.3125  0.5503  0.5102
10852TIP3    H254048   1.012   6.469  14.869  1.1932 -0.4982 -0.1773
10853TIP3   OH254049   4.491   1.873  14.526  0.1174  0.5163  1.3420
10853TIP3    H154050   4.409   1.859  14.572 -1.1907  2.6605 -0.1807
10853TIP3    H254051   4.495   1.967  14.511  0.8525  0.0697 -2.1274
10854TIP3   OH254052   2.208   3.953  11.945  0.4981  0.2976  0.2081
10854TIP3    H154053   2.266   3.881  11.919  0.6372  0.0710  1.1326
10854TIP3    H254054   2.223   3.964  12.038 -1.2132 -0.0271  0.5548
10855TIP3   OH254055   2.568   2.663  10.421  0.0443  0.2625  0.3547
10855TIP3    H154056   2.659   2.652  10.394 -0.9597  0.6843 -3.9516
10855TIP3    H254057   2.561   2.755  10.447  0.4463  0.9862 -1.8349
10856TIP3   OH254058   6.666   6.046  15.521  0.4329  0.2334  0.6596
10856TIP3    H154059   6.581   6.075  15.486  0.2649 -1.8289 -0.8311
10856TIP3    H254060   6.725   6.051  15.446  1.0082 -0.6950  1.0376
10857TIP3   OH254061   1.991   4.365   1.867  0.0184 -0.7261 -0.0280
10857TIP3    H154062   2.032   4.421   1.801  0.0537  0.9438  1.3271
10857TIP3    H254063   2.047   4.287   1.871  3.2278  1.4429  1.7504
10858TIP3   OH254064   5.057   4.493   3.582 -0.1168  0.4664 -0.0401
10858TIP3    H154065   4.993   4.548   3.536  0.2986  1.2750  0.3177
10858TIP3    H254066   5.132   4.552   3.598  0.0893 -0.0293  0.9095
10859TIP3   OH254067   2.998   5.176  14.334 -0.2075 -0.4923  0.7232
10859TIP3    H154068   3.062   5.244  14.354 -1.7015  0.6079  2.0225
10859TIP3    H254069   3.043   5.118  14.272  1.3878  1.2293  0.1730
10860TIP3   OH254070   5.082   0.873  13.788  0.1362 -0.0021 -0.2416
10860TIP3    H154071   5.037   0.957  13.778 -0.8889 -0.5049  0.0578
10860TIP3    H254072   5.016   0.814  13.824  1.1112 -0.7016  0.4478
10861TIP3   OH254073   2.565   0.946   4.522  0.2798  0.2211 -0.5167
10861TIP3    H154074   2.590   0.855   4.507  0.0878  0.2490 -1.0741
10861TIP3    H254075   2.608   0.994   4.451  0.1833  0.5262 -0.3676
10862TIP3   OH254076   0.952   5.397   3.361 -0.3123  0.0684  1.0369
10862TIP3    H154077   1.008   5.380   3.285 -2.2579  2.4403 -1.1478
10862TIP3    H254078   1.006   5.452   3.418  0.0800  1.2893 -0.4262
10863TIP3   OH254079   4.571   5.976   0.949  0.3194 -0.2593 -0.0100
10863TIP3    H154080   4.657   5.961   0.989  0.6008  0.2135 -0.4305
10863TIP3    H254081   4.549   5.893   0.908  0.0167 -0.7668  1.1351
10864TIP3   OH254082   1.739   6.091  11.616  0.1423 -0.3988  0.1977
10864TIP3    H154083   1.729   6.075  11.522 -0.1390  2.0988 -0.2632
10864TIP3    H254084   1.829   6.122  11.626 -0.3638  1.0497  0.4457
10865TIP3   OH254085   1.044   6.080  10.658  0.6042 -0.0298 -0.6709
10865TIP3    H154086   1.114   6.046  10.602  0.4085 -0.8327 -0.4308
10865TIP3    H254087   1.031   6.013  10.724 -0.1614  0.2722 -0.5069
10866TIP3   OH254088   1.698   2.169   3.140  0.2812 -0.2738 -0.1293
10866TIP3    H154089   1.652   2.119   3.073 -1.1160 -0.8692  1.2259
10866TIP3    H254090   1.791   2.155   3.121  0.0080  1.2695 -3.1644
10867TIP3   OH254091   3.646   2.696   0.251  0.6565 -0.9373 -0.5104
10867TIP3    H154092   3.654   2.640   0.329  2.3582 -1.7016 -1.1747
10867TIP3    H254093   3.597   2.644   0.188  0.0928 -0.6844 -0.2896
10868TIP3   OH254094   5.064   0.658   2.583 -0.6875  0.1775 -0.9251
10868TIP3    H154095   5.149   0.629   2.548 -0.8963 -0.8682 -0.6053
10868TIP3    H254096   5.083   0.682   2.673 -0.6846  0.1706 -0.9238
10869TIP3   OH254097   4.446   3.229   4.594  0.1616  0.1212 -0.0524
10869TIP3    H154098   4.368   3.284   4.585  0.0290 -0.2121 -1.1127
10869TIP3    H254099   4.449   3.179   4.513  1.8112  0.5491 -0.2948
10870TIP3   OH254100   1.324   0.667   2.016 -0.0956  0.1208  0.0545
10870TIP3    H154101   1.244   0.657   1.965 -0.1700 -0.9913  0.3639
10870TIP3    H254102   1.297   0.716   2.094  0.1915  2.6012 -1.3246
10871TIP3   OH254103   2.234   4.846  12.592  0.3484  0.3659  0.5008
10871TIP3    H154104   2.275   4.925  12.628  0.6742  0.3326  0.2190
10871TIP3    H254105   2.159   4.878  12.542  0.9947  0.5967 -0.3633
10872TIP3   OH254106   5.392   2.846  13.290  0.2991  0.1159 -0.4059
10872TIP3    H154107   5.482   2.822  13.312 -0.3388 -2.3081 -0.1913
10872TIP3    H254108   5.350   2.861  13.375  0.1031 -0.3804 -0.4115
10873TIP3   OH254109   5.346   4.310   4.201  0.7130 -0.1423  0.0955
10873TIP3    H154110   5.328   4.236   4.260 -2.1607  0.6741  0.3808
10873TIP3    H254111   5.360   4.269   4.116 -0.1843 -1.0791  0.3713
10874TIP3   OH254112   4.904   2.443   3.011 -0.4776 -0.2967 -0.1837
10874TIP3    H154113   4.882   2.357   3.048 -0.6362 -0.1349  0.1014
10874TIP3    H254114   4.887   2.504   3.082  1.6096 -0.2117  0.3175
10875TIP3   OH254115   3.120   2.897  10.385  0.0865 -0.0181  0.3251
10875TIP3    H154116   3.056   2.888  10.314  0.9981  2.4597 -0.9331
10875TIP3    H254117   3.176   2.819  10.377 -0.0964 -0.0120 -1.4436
10876TIP3   OH254118   4.519   6.659  13.617  0.6704  0.3501  0.3259
10876TIP3    H154119   4.583   6.592  13.643 -0.4420 -0.4572  1.1232
10876TIP3    H254120   4.572   6.734  13.590  1.9481 -0.0232  1.6557
10877TIP3   OH254121   1.510   0.855  14.503 -0.0209 -0.3079 -0.1913
10877TIP3    H154122   1.564   0.858  14.424 -0.0920 -0.5881 -0.2535
10877TIP3    H254123   1.531   0.935  14.550  1.3559 -0.9885  0.3936
10878TIP3   OH254124   3.599   3.047  12.190  0.3303 -0.5157  0.1108
10878TIP3    H154125   3.505   3.065  12.179  0.4593 -0.1114 -0.3556
10878TIP3    H254126   3.632   3.121  12.240  0.4445 -0.5559  0.0945
10879TIP3   OH254127   1.189   5.695   3.637  0.1829 -0.1802 -0.0508
10879TIP3    H154128   1.115   5.711   3.578  0.0685 -0.1124  0.1109
10879TIP3    H254129   1.217   5.782   3.664  0.3718 -0.2040 -0.1750
10880TIP3   OH254130   0.734   1.039  11.475 -0.0384 -0.5051  0.1227
10880TIP3    H154131   0.661   1.036  11.536 -0.5573 -0.0911 -0.4678
10880TIP3    H254132   0.772   0.951  11.478  0.0968 -0.4201  1.2116
10881TIP3   OH254133   4.540   3.045   1.844 -0.6016  0.0221  0.1028
10881TIP3    H154134   4.449   3.044   1.873 -0.9159 -0.8752 -0.8418
10881TIP3    H254135   4.591   3.022   1.921 -1.2720 -0.6424  0.3484
10882TIP3   OH254136   1.411   0.609  11.458  0.3310 -0.0928  0.2071
10882TIP3    H154137   1.437   0.599  11.367  1.3590 -1.1980  0.6005
10882TIP3    H254138   1.394   0.520  11.489 -2.2702  0.4264  0.4926
10883TIP3   OH254139   6.243   0.793  16.958  0.4325 -0.0037 -0.3337
10883TIP3    H154140   6.296   0.766  16.884  0.9805 -0.2632  0.1444
10883TIP3    H254141   6.306   0.813  17.027 -0.0381  0.7963 -0.1169
10884TIP3   OH254142   2.930   0.243   1.618 -0.1973  0.7509 -0.3311
10884TIP3    H154143   3.015   0.285   1.633 -0.4805  0.9184  0.9632
10884TIP3    H254144   2.930   0.168   1.678 -0.4700  0.0212 -1.2286
10885TIP3   OH254145   1.830   4.663   5.851 -0.0070 -0.4728 -0.1618
10885TIP3    H154146   1.900   4.617   5.804  0.2879 -1.4747  1.1772
10885TIP3    H254147   1.874   4.699   5.929 -0.4936  1.0675 -0.5520
10886TIP3   OH254148   0.803   6.458   3.817 -0.4428  0.2408  0.1169
10886TIP3    H154149   0.774   6.446   3.907  0.4195 -0.6887  0.2938
10886TIP3    H254150   0.794   6.371   3.777  0.0566  0.4331 -0.4319
10887TIP3   OH254151   5.350   3.395  14.107 -1.2343  0.1468 -0.3068
10887TIP3    H154152   5.348   3.430  14.196 -1.4619 -1.1419  0.2187
10887TIP3    H254153   5.361   3.472  14.051 -0.4894  0.9165  0.8603
10888TIP3   OH254154   3.583   6.527  15.847  0.1789 -0.2047 -0.0572
10888TIP3    H154155   3.571   6.578  15.927  0.7136 -1.1530  0.6542
10888TIP3    H254156   3.494   6.508  15.816 -0.0469  2.1835 -1.0491
10889TIP3   OH254157   2.887   3.880   5.058  0.3276 -0.2197 -0.2600
10889TIP3    H154158   2.905   3.946   4.990 -1.9439  0.7962  0.0255
10889TIP3    H254159   2.972   3.861   5.096  1.3940  0.6656 -2.0748
10890TIP3   OH254160   2.358   2.342   0.647  0.5906  0.0138 -0.5661
10890TIP3    H154161   2.444   2.382   0.635  0.9274 -0.6921 -0.5433
10890TIP3    H254162   2.310   2.365   0.567  0.8060  0.3719 -0.5983
10891TIP3   OH254163   3.975   0.824   3.888 -0.1479 -0.3026  0.5537
10891TIP3    H154164   4.045   0.881   3.856 -1.1373 -0.4124 -1.9715
10891TIP3    H254165   3.919   0.881   3.941  0.7825  0.2062  1.0179
10892TIP3   OH254166   3.705   2.875   3.380 -0.3002  0.0214  0.5299
10892TIP3    H154167   3.687   2.834   3.295 -0.5166  0.6473  0.2667
10892TIP3    H254168   3.784   2.832   3.411 -0.0651 -0.0255 -0.1149
10893TIP3   OH254169   4.234   6.056   1.148 -0.2555 -0.2412  0.4319
10893TIP3    H154170   4.274   5.970   1.130 -0.1600  0.0398 -0.8371
10893TIP3    H254171   4.308   6.116   1.152 -0.4473  0.1683 -1.2305
10894TIP3   OH254172   0.139   3.057  17.022  0.2615 -0.2004  0.1454
10894TIP3    H154173   0.069   3.023  17.077 -0.7411  2.0117  0.3357
10894TIP3    H254174   0.171   3.135  17.068  0.4478  0.8275 -1.6104
10895TIP3   OH254175   6.323   0.195   1.462  0.0160  0.0481 -0.3580
10895TIP3    H154176   6.291   0.227   1.546 -1.7754 -0.6971 -0.7015
10895TIP3    H254177   6.335   0.101   1.476  1.6600  0.2277 -0.3929
10896TIP3   OH254178   0.311   4.898   5.149 -0.0479  0.3728  0.2025
10896TIP3    H154179   0.263   4.976   5.176 -0.7401  0.1790 -0.4338
10896TIP3    H254180   0.391   4.932   5.108  0.3509  0.6972  1.2139
10897TIP3   OH254181   5.880   2.250   5.489 -0.2339 -0.7472  0.2638
10897TIP3    H154182   5.825   2.210   5.421 -0.0902 -0.4933 -0.0056
10897TIP3    H254183   5.881   2.343   5.468  0.4933 -0.7773  0.1186
10898TIP3   OH254184   0.580   2.321   3.525 -0.4940 -1.0046 -0.0894
10898TIP3    H154185   0.555   2.241   3.479  1.6543 -0.2212 -2.9257
10898TIP3    H254186   0.655   2.355   3.476  0.3311  1.4111  2.5312
10899TIP3   OH254187   3.103   2.427  14.934  0.2812  0.0393  0.5809
10899TIP3    H154188   3.138   2.369  14.867  0.3033 -0.2080  0.8079
10899TIP3    H254189   3.133   2.514  14.908 -0.6483  0.0992 -0.3537
10900TIP3   OH254190   3.441   6.246  11.863 -0.0032  0.2735 -0.4533
10900TIP3    H154191   3.352   6.234  11.830  0.1048  0.1909 -0.7154
10900TIP3    H254192   3.450   6.179  11.931  0.8245 -1.6798 -2.3650
10901TIP3   OH254193   0.672   6.234   4.677 -0.0183  0.2133  0.3612
10901TIP3    H154194   0.662   6.144   4.708 -0.3765  0.0319 -0.2664
10901TIP3    H254195   0.621   6.237   4.596  0.1130  0.9416  0.3025
10902TIP3   OH254196   2.301   1.975   3.707 -0.2275  0.0642  0.0748
10902TIP3    H154197   2.219   1.928   3.717 -0.7242  0.4711 -1.7653
10902TIP3    H254198   2.276   2.064   3.683  0.7405  0.3081 -0.0880
10903TIP3   OH254199   4.295   3.669  16.504 -0.4257 -0.1059  0.2372
10903TIP3    H154200   4.357   3.739  16.522 -0.8423 -0.0084  1.4024
10903TIP3    H254201   4.247   3.698  16.426 -0.3605  0.7434  0.5052
10904TIP3   OH254202   3.873   2.758  16.274  0.8781 -0.4489 -0.0832
10904TIP3    H154203   3.943   2.703  16.308 -1.3250 -1.9939  2.4261
10904TIP3    H254204   3.847   2.812  16.349 -1.2929 -0.7678 -0.5258
10905TIP3   OH254205   0.560   6.528   1.478 -0.1583  0.2809  0.1110
10905TIP3    H154206   0.495   6.466   1.445  0.0444 -0.1707  0.5419
10905TIP3    H254207   0.644   6.485   1.461 -0.0372  0.1995  0.8747
10906TIP3   OH254208   4.064   3.048   0.323 -0.1502 -0.0241  0.4695
10906TIP3    H154209   3.978   3.014   0.348  0.5498 -1.3242  1.2098
10906TIP3    H254210   4.099   3.087   0.403  0.1294  0.0958  0.2913
10907TIP3   OH254211   2.861   3.650  13.463 -0.0929 -0.3194  0.0942
10907TIP3    H154212   2.902   3.736  13.452  1.1035 -0.8558  0.2089
10907TIP3    H254213   2.767   3.666  13.451  0.1443  0.9481 -0.1636
10908TIP3   OH254214   6.385   6.286   4.299  0.3039  1.1175 -0.2369
10908TIP3    H154215   6.412   6.199   4.330 -0.6495  1.3096  1.2395
10908TIP3    H254216   6.453   6.312   4.238 -0.7896 -1.8587 -2.9893
10909TIP3   OH254217   4.571   2.499   2.344  0.0268 -0.0526 -0.1833
10909TIP3    H154218   4.586   2.508   2.438  0.4620 -0.6835 -0.1831
10909TIP3    H254219   4.654   2.523   2.304 -0.2759  0.5960 -0.4355
10910TIP3   OH254220   5.100   2.842  12.728  0.2276  0.0984 -0.3595
10910TIP3    H154221   5.169   2.902  12.758  1.5479 -0.5808 -1.8968
10910TIP3    H254222   5.057   2.813  12.808  1.0594  1.3319  0.5740
10911TIP3   OH254223   6.786   4.448   4.463  0.0306  0.1731  0.3233
10911TIP3    H154224   6.764   4.363   4.502  3.4125 -1.8636 -1.7258
10911TIP3    H254225   6.879   4.458   4.479  0.3068  2.1052 -1.9855
10912TIP3   OH254226   0.085   6.108   4.502 -0.1960  0.5090  0.3960
10912TIP3    H154227  -0.006   6.135   4.490 -0.7950 -1.4568  0.1912
10912TIP3    H254228   0.128   6.131   4.420 -0.2509  2.2636  0.8171
10913TIP3   OH254229   0.787   0.319   2.868  0.1953 -0.0172  0.1931
10913TIP3    H154230   0.709   0.372   2.855 -0.2357 -1.0864 -2.0668
10913TIP3    H254231   0.755   0.229   2.868  1.3884 -0.4551 -0.3549
10914TIP3   OH254232   2.596   2.045  12.040  0.3528  0.2810 -0.7024
10914TIP3    H154233   2.529   2.111  12.024  0.0956 -0.2191 -1.7785
10914TIP3    H254234   2.633   2.026  11.953  0.1150 -1.3075 -0.4891
10915TIP3   OH254235   5.407   3.177   3.744  0.4260  0.2295 -0.2235
10915TIP3    H154236   5.336   3.213   3.692  1.0668  0.1015 -1.2196
10915TIP3    H254237   5.443   3.107   3.689 -0.0256 -1.1412  1.1535
10916TIP3   OH254238   2.206   5.446   4.869 -0.1627  0.6571  0.6168
10916TIP3    H154239   2.246   5.401   4.943 -0.2728  0.0524  0.3105
10916TIP3    H254240   2.231   5.538   4.881  1.5044  0.2843  0.3281
10917TIP3   OH254241   1.290   4.848   3.313  0.0405  0.4189  0.1620
10917TIP3    H154242   1.346   4.823   3.239 -0.1828  0.1719  0.0737
10917TIP3    H254243   1.346   4.902   3.368 -0.0660  1.4056 -0.6564
10918TIP3   OH254244   0.326   6.425   5.689  0.8177  0.1642 -0.0047
10918TIP3    H154245   0.277   6.347   5.663  2.1519 -0.8648  0.4152
10918TIP3    H254246   0.269   6.498   5.667  1.1104 -0.6410 -4.2054
10919TIP3   OH254247   5.124   0.762  14.867 -0.4119 -0.2940  0.6318
10919TIP3    H154248   5.066   0.690  14.844  0.5317 -1.9187  2.9825
10919TIP3    H254249   5.065   0.835  14.888 -1.3966 -0.5097 -1.1762
10920TIP3   OH254250   1.340   4.687   0.816  0.1676 -0.6741 -0.3974
10920TIP3    H154251   1.399   4.687   0.740 -1.4368  0.3974 -1.7227
10920TIP3    H254252   1.269   4.627   0.790 -0.1621 -0.6661  0.4629
10921TIP3   OH254253   5.008   6.381   3.799  0.3329 -0.0353  0.5406
10921TIP3    H154254   5.015   6.432   3.880 -3.7270  0.2004  0.9603
10921TIP3    H254255   4.987   6.292   3.828  0.0854 -0.2312 -0.2249
10922TIP3   OH254256   5.369   1.633  13.324 -0.2299 -0.2299  0.4290
10922TIP3    H154257   5.311   1.585  13.383  1.4394 -0.8686  1.6308
10922TIP3    H254258   5.422   1.689  13.382  0.8499 -0.2110 -0.5315
10923TIP3   OH254259   4.184   2.304   3.130  0.1207 -0.5870  0.1390
10923TIP3    H154260   4.100   2.257   3.129  0.5513 -1.4114  0.8730
10923TIP3    H254261   4.211   2.301   3.222  1.0597 -0.5146 -0.1344
10924TIP3   OH254262   1.600   0.307   2.247  0.3669  0.2125 -0.0294
10924TIP3    H154263   1.635   0.256   2.173 -0.0814  1.9854 -1.5563
10924TIP3    H254264   1.620   0.255   2.324  3.5151 -0.3957 -1.1035
10925TIP3   OH254265   5.313   4.348   6.101  0.3892 -0.3198 -0.2669
10925TIP3    H154266   5.302   4.258   6.132 -0.9362 -0.5171 -1.2108
10925TIP3    H254267   5.235   4.393   6.133  1.4655  0.7467  0.9566
10926TIP3   OH254268   6.410   4.923   3.788  0.4208  0.0245  0.0097
10926TIP3    H154269   6.356   4.997   3.761  0.3474  0.7040  1.8782
10926TIP3    H254270   6.500   4.954   3.780  0.4518 -0.2280 -0.6721
10927TIP3   OH254271   2.948   3.388  14.487  0.2618  0.1303  0.3396
10927TIP3    H154272   2.983   3.313  14.535  0.9373  0.4516  0.3695
10927TIP3    H254273   2.962   3.462  14.546  0.1724  0.3689  0.0599
10928TIP3   OH254274   1.800   1.521   3.584 -0.0628 -0.0926 -0.2125
10928TIP3    H154275   1.746   1.562   3.516 -4.0609 -3.8463  0.2460
10928TIP3    H254276   1.866   1.472   3.535  0.7524  1.6933 -0.9938
10929TIP3   OH254277   4.581   4.027   0.674  0.3308  0.7528 -0.1095
10929TIP3    H154278   4.532   4.106   0.651  1.2950  1.0632 -1.2241
10929TIP3    H254279   4.523   3.955   0.648 -0.5869  1.0714  0.9879
10930TIP3   OH254280   5.360   5.538  14.536 -0.4524  0.2560  0.0910
10930TIP3    H154281   5.411   5.476  14.485 -0.1377  0.7375 -0.1854
10930TIP3    H254282   5.415   5.558  14.612 -1.0593 -0.7145  0.8040
10931TIP3   OH254283   6.443   1.307   4.823 -0.1422 -0.4091  0.3119
10931TIP3    H154284   6.450   1.398   4.851  0.3253  0.0298 -1.1420
10931TIP3    H254285   6.406   1.312   4.734  0.9986 -1.5460 -0.2545
10932TIP3   OH254286   1.883   2.913  11.664 -0.3971 -0.6063  0.1333
10932TIP3    H154287   1.960   2.964  11.692 -0.1744 -0.7163 -0.2636
10932TIP3    H254288   1.817   2.931  11.730  0.2002 -1.0772  0.8774
10933TIP3   OH254289   2.804   2.951  14.654 -0.0660  0.4382 -0.4147
10933TIP3    H154290   2.871   3.012  14.624 -0.9756  0.7475 -1.9451
10933TIP3    H254291   2.765   2.992  14.731  2.6509 -0.5804  1.6524
10934TIP3   OH254292   0.970   1.469   2.255 -0.1088  0.5585 -0.1673
10934TIP3    H154293   0.951   1.422   2.337  0.9903 -2.7932 -1.6494
10934TIP3    H254294   0.900   1.443   2.196  0.3976  1.0185 -0.9804
10935TIP3   OH254295   2.756   2.024   1.492  0.5471 -0.0145 -0.4125
10935TIP3    H154296   2.684   2.064   1.443 -1.5590 -3.7661 -0.8151
10935TIP3    H254297   2.800   1.967   1.429  1.9320 -0.0970  0.5725
10936TIP3   OH254298   5.951   5.855   4.931  0.5049 -0.0823  0.5946
10936TIP3    H154299   5.894   5.892   4.999 -2.2257 -0.7626 -1.1645
10936TIP3    H254300   5.990   5.778   4.972 -0.4082 -0.0123  1.6489
10937TIP3   OH254301   1.346   0.718   5.581 -0.1244  0.6774  0.3160
10937TIP3    H154302   1.330   0.627   5.555  0.5541  0.3449  0.9994
10937TIP3    H254303   1.442   0.724   5.588 -0.2267  0.4614  3.5243
10938TIP3   OH254304   2.359   5.467   3.893  0.2704 -0.5076  0.2015
10938TIP3    H154305   2.384   5.375   3.904 -0.9092 -0.7312  1.2249
10938TIP3    H254306   2.279   5.464   3.841 -0.5323 -0.1715  1.3779
10939TIP3   OH254307   2.111   3.066   4.740  0.3069 -0.0638 -0.4541
10939TIP3    H154308   2.175   3.002   4.708  0.3068  0.2367 -1.0647
10939TIP3    H254309   2.162   3.123   4.798  0.7263  0.5152 -1.3769
10940TIP3   OH254310   2.825   3.768  15.202 -0.1431  0.2780 -0.2814
10940TIP3    H154311   2.830   3.778  15.107 -4.1470  0.4680 -0.6649
10940TIP3    H254312   2.852   3.678  15.218 -0.4800 -0.1275 -1.7679
10941TIP3   OH254313   3.533   1.727  10.280  0.3015 -0.2186 -0.1988
10941TIP3    H154314   3.439   1.729  10.258  0.3269 -2.0486 -0.5733
10941TIP3    H254315   3.541   1.659  10.346  1.0304  1.7123  1.8481
10942TIP3   OH254316   0.109   4.760   5.403  0.1821 -0.1213 -0.1383
10942TIP3    H154317   0.083   4.773   5.494 -2.3070  0.5541 -0.8623
10942TIP3    H254318   0.162   4.838   5.383 -1.9260  1.4161 -0.1052
10943TIP3   OH254319   2.795   6.223  12.473  0.1313  0.2127  0.2908
10943TIP3    H154320   2.780   6.194  12.563  0.0244  0.0968  0.2366
10943TIP3    H254321   2.712   6.263  12.446 -0.3663 -1.1518 -0.2832
10944TIP3   OH254322   0.702   5.820  13.865  0.0573 -0.1849  0.0952
10944TIP3    H154323   0.640   5.747  13.869  0.4163 -0.5889 -1.2238
10944TIP3    H254324   0.689   5.868  13.947 -0.2795 -1.6553  0.9257
10945TIP3   OH254325   4.362   5.820  10.213 -0.2675 -0.4026 -0.0804
10945TIP3    H154326   4.289   5.824  10.151  0.7971 -2.4807 -1.6161
10945TIP3    H254327   4.398   5.909  10.214 -0.2205 -0.3267 -2.6498
10946TIP3   OH254328   0.967   3.583   4.646  0.0790 -0.4368 -1.3149
10946TIP3    H154329   0.906   3.533   4.700 -0.1040  0.6144 -0.5352
10946TIP3    H254330   0.986   3.525   4.572  1.2340 -2.3833  0.4008
10947TIP3   OH254331   1.095   4.539   0.135 -0.2870 -0.4980 -0.5786
10947TIP3    H154332   1.038   4.471   0.099  1.0148 -1.6336 -0.6115
10947TIP3    H254333   1.072   4.618   0.086 -1.0062 -1.1955 -1.4004
10948TIP3   OH254334   2.973   1.883   5.627 -0.0925  0.1687  0.1835
10948TIP3    H154335   3.005   1.865   5.538 -0.3548  0.6930 -0.0217
10948TIP3    H254336   3.050   1.913   5.674  0.3030 -1.2397  0.4700
10949TIP3   OH254337   5.776   2.366  12.595 -0.6114  0.5003  0.7056
10949TIP3    H154338   5.745   2.419  12.522  1.4540 -0.6770 -1.1262
10949TIP3    H254339   5.860   2.404  12.618 -0.2303 -0.4884  0.9992
10950TIP3   OH254340   5.251   0.550   0.855  0.2106 -0.1114  0.0574
10950TIP3    H154341   5.182   0.573   0.917  0.6291 -1.6133  1.1525
10950TIP3    H254342   5.309   0.491   0.904  0.5831 -1.3498 -1.7446
10951TIP3   OH254343   5.441   1.043  10.945  0.2897  0.2798  0.4228
10951TIP3    H154344   5.364   1.098  10.931  0.8554  1.2627  1.0680
10951TIP3    H254345   5.457   1.002  10.860 -0.4294  0.7320  0.0594
10952TIP3   OH254346   0.443   0.194   0.234 -0.1370  0.4756  0.2241
10952TIP3    H154347   0.451   0.151   0.319  1.5224  0.3022  0.0127
10952TIP3    H254348   0.349   0.201   0.219 -0.4478 -1.4258  1.0896
10953TIP3   OH254349   5.094   6.323   3.043 -0.3638 -0.0977 -0.0712
10953TIP3    H154350   5.141   6.368   3.113 -0.0391 -0.3826 -0.1064
10953TIP3    H254351   5.068   6.239   3.081 -0.7568  0.0171 -0.0837
10954TIP3   OH254352   4.201   1.500   2.648 -0.2332 -0.3471 -0.2023
10954TIP3    H154353   4.222   1.497   2.555  1.6645  0.6728  0.1351
10954TIP3    H254354   4.284   1.525   2.690 -1.3170  0.3121  1.6398
10955TIP3   OH254355   5.706   0.479  14.648 -0.1403  0.2260 -0.1495
10955TIP3    H154356   5.710   0.571  14.622 -0.2038  0.3781  0.3671
10955TIP3    H254357   5.689   0.431  14.566 -0.2013  0.6817 -0.4043
10956TIP3   OH254358   2.231   5.034   4.550 -0.3758 -0.0443  0.1623
10956TIP3    H154359   2.317   5.004   4.578  0.1130  0.5936 -0.6225
10956TIP3    H254360   2.238   5.043   4.455 -1.0723  0.7436  0.1759
10957TIP3   OH254361   1.320   3.299   5.035 -0.2758 -0.3897  0.0249
10957TIP3    H154362   1.325   3.395   5.041  0.3822 -0.4199  0.0692
10957TIP3    H254363   1.286   3.272   5.121 -1.3401 -0.1474 -0.3057
10958TIP3   OH254364   4.718   5.337  10.707  0.4409 -0.8183  0.0071
10958TIP3    H154365   4.767   5.292  10.637  0.2698  0.2011 -0.7919
10958TIP3    H254366   4.633   5.293  10.707  0.3071 -0.5788 -0.7056
10959TIP3   OH254367   3.769   3.217  12.281 -0.0452 -0.1902  0.1351
10959TIP3    H154368   3.810   3.214  12.367  0.7471 -2.7454 -0.2390
10959TIP3    H254369   3.806   3.295  12.239  3.0162 -1.2974  0.5326
10960TIP3   OH254370   5.243   4.647   5.065 -0.1848 -0.2517 -0.3021
10960TIP3    H154371   5.292   4.717   5.022 -1.0172  2.3526  2.5985
10960TIP3    H254372   5.291   4.629   5.145 -1.8659 -0.3799  0.7358
10961TIP3   OH254373   4.090   3.826   3.018  0.1159 -0.0620  0.2603
10961TIP3    H154374   4.025   3.804   2.952  0.4264  0.5013 -0.2447
10961TIP3    H254375   4.163   3.766   3.000  0.6916  0.8953 -0.6915
10962TIP3   OH254376   4.078   1.141   4.944 -0.0766  0.3760 -0.2839
10962TIP3    H154377   4.133   1.194   5.001  0.7469 -0.9010  0.1735
10962TIP3    H254378   4.010   1.200   4.912  1.7899  2.1231 -1.1985
10963TIP3   OH254379   1.705   3.425   3.514 -0.5545  0.5659 -0.6519
10963TIP3    H154380   1.637   3.470   3.565 -0.4661  0.4643 -0.4435
10963TIP3    H254381   1.658   3.387   3.440 -0.5594  1.4204 -1.1089
10964TIP3   OH254382   4.060   2.441  16.319 -0.0514  0.1580  0.6433
10964TIP3    H154383   4.076   2.536  16.319 -0.9683  0.3284  1.2051
10964TIP3    H254384   4.081   2.413  16.408  2.3546 -0.5896 -0.0850
10965TIP3   OH254385   0.580   0.305  13.309 -0.3613  0.3135 -0.5143
10965TIP3    H154386   0.545   0.393  13.322  0.9826  0.8854 -0.5585
10965TIP3    H254387   0.641   0.315  13.236  0.5302 -0.4397  0.1109
10966TIP3   OH254388   3.658   2.491  16.348  0.3879  0.0637 -0.0567
10966TIP3    H154389   3.682   2.468  16.258 -1.0060  1.3015 -0.7819
10966TIP3    H254390   3.692   2.418  16.400  1.4858 -0.5483 -1.5292
10967TIP3   OH254391   0.750   2.857  11.846 -0.1296 -0.0638 -0.4384
10967TIP3    H154392   0.738   2.796  11.772  0.1854  1.4006 -1.7460
10967TIP3    H254393   0.756   2.943  11.805  1.2345  0.6841  1.2324
10968TIP3   OH254394   1.714   5.152   3.658  0.2128  0.2025  0.0550
10968TIP3    H154395   1.806   5.140   3.636  0.0070 -0.3716 -0.5294
10968TIP3    H254396   1.676   5.193   3.580 -0.1932 -0.3512 -0.0477
10969TIP3   OH254397   5.636   6.524  15.736 -0.2682  0.0940 -0.1495
10969TIP3    H154398   5.542   6.529  15.751 -0.6190 -0.4906 -1.9359
10969TIP3    H254399   5.648   6.444  15.685  0.9031  1.3442 -1.9407
10970TIP3   OH254400   2.783   6.510   1.671  0.1845 -0.2346 -0.0479
10970TIP3    H154401   2.785   6.564   1.592  1.9799 -0.3639 -0.1134
10970TIP3    H254402   2.712   6.548   1.724  1.0182  1.8610 -0.3443
10971TIP3   OH254403   3.984   2.946  15.125  0.0144 -0.8802 -0.1893
10971TIP3    H154404   4.073   2.954  15.090 -0.2369 -1.3835 -0.9802
10971TIP3    H254405   3.941   2.883  15.067 -1.3266  0.5166 -0.7768
10972TIP3   OH254406   1.470   6.397  11.859  0.1421  0.2837  0.0395
10972TIP3    H154407   1.410   6.424  11.928 -1.8091 -1.7982 -0.7286
10972TIP3    H254408   1.536   6.344  11.904  1.1772  2.1170  0.7990
10973TIP3   OH254409   2.465   0.050  13.480  0.1062 -0.3539 -0.4083
10973TIP3    H154410   2.414   0.002  13.546  1.7013  1.4668  2.3705
10973TIP3    H254411   2.420   0.134  13.471  0.6983 -0.0414 -0.5280
10974TIP3   OH254412   3.993   2.279  14.354 -0.8047 -0.0730 -0.6422
10974TIP3    H154413   3.900   2.288  14.372 -0.5130 -0.8367  1.4619
10974TIP3    H254414   4.019   2.201  14.401  1.1253  0.7316 -0.2869
10975TIP3   OH254415   3.165   2.996   4.027  0.2171  0.1558  0.3879
10975TIP3    H154416   3.223   2.945   4.084  0.0970 -0.5666 -0.1283
10975TIP3    H254417   3.134   2.934   3.962 -0.5465  0.7154  0.2005
10976TIP3   OH254418   6.583   4.920  15.523 -0.4352  0.6437 -0.3176
10976TIP3    H154419   6.568   4.844  15.467  0.1763  0.1167  0.2167
10976TIP3    H254420   6.497   4.962  15.531 -0.8339 -0.1515 -0.3915
10977TIP3   OH254421   2.531   1.482   0.907 -0.1965 -0.2543  0.3087
10977TIP3    H154422   2.450   1.521   0.874 -0.4905 -0.4004  0.8282
10977TIP3    H254423   2.511   1.462   0.999  1.0739  1.4870  1.0076
10978TIP3   OH254424   1.429   4.630  16.457 -0.3419 -0.3728  0.4222
10978TIP3    H154425   1.346   4.586  16.438  0.3843 -1.6403  0.0774
10978TIP3    H254426   1.488   4.559  16.482  0.7891  0.4511  0.1523
10979TIP3   OH254427   2.724   6.736  12.174  0.2763  0.5717 -0.7443
10979TIP3    H154428   2.728   6.717  12.080 -0.9828 -0.4914 -0.6067
10979TIP3    H254429   2.631   6.744  12.193  0.4950  0.3616  0.4993
10980TIP3   OH254430   1.200   1.546  11.856  0.2846 -0.0960 -0.2327
10980TIP3    H154431   1.264   1.601  11.811 -0.0325 -0.7755 -1.5842
10980TIP3    H254432   1.115   1.574  11.821 -0.0496 -0.0163  0.6389
10981TIP3   OH254433   4.911   3.818  14.899 -0.4986 -0.0551  0.1387
10981TIP3    H154434   4.953   3.895  14.936 -1.4351 -0.0605  1.2795
10981TIP3    H254435   4.871   3.774  14.974 -0.5365 -1.2975 -0.5859
10982TIP3   OH254436   1.493   3.775  15.125 -1.1018  0.2516  0.0747
10982TIP3    H154437   1.540   3.742  15.202  2.1255  0.2114 -1.7393
10982TIP3    H254438   1.458   3.860  15.153  0.5328  0.5291  1.4153
10983TIP3   OH254439   3.518   1.010   5.453  0.1027  0.4077  0.0100
10983TIP3    H154440   3.553   0.974   5.535  1.8117  2.3571  0.2234
10983TIP3    H254441   3.423   1.004   5.464  0.2823  0.1995  1.9669
10984TIP3   OH254442   3.112   3.011  11.358  0.0887  0.3888  0.6702
10984TIP3    H154443   3.177   2.972  11.418  0.2469 -0.7006 -0.1690
10984TIP3    H254444   3.072   2.935  11.315  0.1970  1.1574 -0.8281
10985TIP3   OH254445   0.682   4.948   5.673  0.0485  0.4594 -0.2073
10985TIP3    H154446   0.631   4.949   5.592  0.4436  0.6437 -0.4568
10985TIP3    H254447   0.628   4.996   5.736 -0.4668 -0.0823 -0.2305
10986TIP3   OH254448   6.087   5.520  15.485 -0.0515 -0.5173 -0.2916
10986TIP3    H154449   6.182   5.532  15.484 -0.1087  0.1302 -2.1411
10986TIP3    H254450   6.067   5.479  15.401 -1.7085  2.4016 -1.4808
10987TIP3   OH254451   3.231   1.663  11.104 -0.5873 -0.1337  0.0720
10987TIP3    H154452   3.147   1.692  11.067  0.3226 -0.7328 -2.6945
10987TIP3    H254453   3.297   1.702  11.046  1.0454 -0.1189  1.8693
10988TIP3   OH254454   2.799   2.734  12.713  0.0528 -0.0567 -0.2686
10988TIP3    H154455   2.726   2.690  12.669  0.6723 -1.5488  0.1315
10988TIP3    H254456   2.871   2.731  12.651  1.2816 -3.1903  1.1101
10989TIP3   OH254457   3.196   2.004  16.696 -0.3366 -0.0533 -0.2542
10989TIP3    H154458   3.170   2.034  16.609 -0.0200  0.3090 -0.2260
10989TIP3    H254459   3.132   1.937  16.719 -0.1797 -0.4464 -0.9427
10990TIP3   OH254460   5.811   1.426   4.550  0.1692 -0.5215 -0.0462
10990TIP3    H154461   5.731   1.442   4.499  0.7601 -0.0612 -0.8635
10990TIP3    H254462   5.780   1.384   4.630 -1.3801  2.9540  1.4366
10991TIP3   OH254463   3.553   5.616   1.691  0.1112  0.0100 -0.2144
10991TIP3    H154464   3.513   5.543   1.738  1.5134  0.4014  1.7215
10991TIP3    H254465   3.631   5.578   1.650 -0.4040 -0.0359 -1.2039
10992TIP3   OH254466   1.551   2.248   6.298 -0.0906  0.1856 -0.0364
10992TIP3    H154467   1.521   2.170   6.252 -0.1560 -0.0571  0.4151
10992TIP3    H254468   1.489   2.316   6.272 -0.0531  0.0808 -0.4043
10993TIP3   OH254469   5.793   6.761   5.947 -0.3345 -0.4157 -0.8059
10993TIP3    H154470   5.850   6.834   5.971  0.0842 -1.2730  1.0662
10993TIP3    H254471   5.705   6.799   5.943 -0.1103  0.2307  0.0679
10994TIP3   OH254472   5.648   1.947  14.484  0.2762  0.1421 -0.1161
10994TIP3    H154473   5.595   1.871  14.508  0.7446  0.3728  1.7912
10994TIP3    H254474   5.733   1.931  14.524  1.0932  0.6509 -1.5782
10995TIP3   OH254475   6.006   3.751  15.470 -0.3924 -0.1083 -0.1215
10995TIP3    H154476   5.936   3.815  15.479 -0.1037  0.2331 -0.2785
10995TIP3    H254477   6.074   3.782  15.530  0.3922  0.6103 -1.3351
10996TIP3   OH254478   2.950   2.720  15.842  0.3460 -0.0161 -0.2333
10996TIP3    H154479   3.044   2.723  15.824  0.5022 -1.8313  0.0789
10996TIP3    H254480   2.916   2.655  15.781 -0.8044  0.9875 -0.6744
10997TIP3   OH254481   6.548   2.897  14.498 -0.1703 -0.7136 -0.0595
10997TIP3    H154482   6.452   2.903  14.505 -0.1707  1.1490 -1.1970
10997TIP3    H254483   6.579   2.982  14.528  1.0319 -0.6790 -1.3491
10998TIP3   OH254484   6.430   6.592   3.943  0.1085  0.7466  0.0323
10998TIP3    H154485   6.379   6.598   3.862  3.6354  1.1131 -2.3749
10998TIP3    H254486   6.461   6.681   3.959  1.5467  0.2327  0.2660
10999TIP3   OH254487   4.772   3.602  13.559  0.1572 -0.8864  0.3014
10999TIP3    H154488   4.728   3.626  13.478  0.7926 -1.9643 -0.3818
10999TIP3    H254489   4.703   3.564  13.614  0.1292 -2.1784 -0.5990
11000TIP3   OH254490   0.220   6.314  14.032 -0.1100 -0.2770 -0.1877
11000TIP3    H154491   0.172   6.235  14.006  2.1980 -1.1187 -2.3298
11000TIP3    H254492   0.309   6.284  14.048  0.4067  1.6393  0.8455
11001TIP3   OH254493   2.655   6.863   5.223  0.7295 -0.2645  0.9267
11001TIP3    H154494   2.608   6.798   5.170 -0.2670  0.6175  0.7093
11001TIP3    H254495   2.598   6.880   5.297  0.6345  0.9176  0.5953
11002TIP3   OH254496   5.423   0.257   1.068 -0.0409 -0.1430  0.0935
11002TIP3    H154497   5.483   0.224   1.001  1.9245  1.7710  0.8110
11002TIP3    H254498   5.452   0.346   1.085 -0.7193 -0.4091  3.2162
11003TIP3   OH254499   5.948   1.887  14.164  0.4754  0.7770  0.1218
11003TIP3    H154500   5.970   1.879  14.257  0.5374  0.5098  0.0853
11003TIP3    H254501   5.855   1.907  14.162  0.0240 -1.0865  0.2000
11004TIP3   OH254502   3.803   0.616  12.979 -0.2183  0.3228  0.2042
11004TIP3    H154503   3.734   0.634  12.915 -0.2315  0.0069  0.1274
11004TIP3    H254504   3.867   0.563  12.932 -0.1247  0.2664  0.3924
11005TIP3   OH254505   3.844   1.963   2.678  0.1102  0.5939  0.0990
11005TIP3    H154506   3.864   1.930   2.765  0.7609  0.9425  0.0888
11005TIP3    H254507   3.901   2.040   2.667 -1.2591  1.6342  0.0614
11006TIP3   OH254508   0.255   6.205  13.196  0.2763  0.4730 -0.4778
11006TIP3    H154509   0.272   6.147  13.270 -1.5492  0.3681 -0.1034
11006TIP3    H254510   0.202   6.276  13.233 -0.5251  0.5071 -1.6456
11007TIP3   OH254511   4.708   1.934   1.466 -0.0378  0.2386  0.4450
11007TIP3    H154512   4.748   1.904   1.548 -0.6269  1.2816  1.1313
11007TIP3    H254513   4.762   2.008   1.439 -0.8834  1.0151  0.8419
11008TIP3   OH254514   6.337   5.190   0.497  0.2636  0.5414 -0.0924
11008TIP3    H154515   6.266   5.127   0.507  2.2203 -1.5956  1.3358
11008TIP3    H254516   6.386   5.159   0.421  0.6140  1.0528 -0.0820
11009TIP3   OH254517   3.994   1.662  16.355 -0.0763 -0.1627 -0.4269
11009TIP3    H154518   4.047   1.663  16.434 -2.7438 -0.4074  1.5205
11009TIP3    H254519   4.044   1.714  16.291  2.2431 -0.1032  1.3221
11010TIP3   OH254520   2.721   0.465   6.390  0.8114 -0.3772  0.1639
11010TIP3    H154521   2.684   0.551   6.409  0.0457 -0.4752 -0.7986
11010TIP3    H254522   2.773   0.477   6.311  3.9061  0.0070  2.0775
11011TIP3   OH254523   4.139   6.249   1.523  0.4398 -0.1643 -0.0749
11011TIP3    H154524   4.045   6.234   1.536  0.4167  1.3197  1.8965
11011TIP3    H254525   4.147   6.267   1.429 -0.7831 -3.0043 -0.8239
11012TIP3   OH254526   6.426   6.040   4.370 -0.0604 -0.3560  0.2730
11012TIP3    H154527   6.480   6.001   4.439  0.7741  0.7766  0.2987
11012TIP3    H254528   6.382   5.966   4.328  0.2805 -1.1546  1.3028
11013TIP3   OH254529   1.145   0.243   6.575  0.1993  0.1574 -0.4052
11013TIP3    H154530   1.122   0.336   6.573  1.0177  0.3495 -1.1028
11013TIP3    H254531   1.064   0.200   6.604 -0.3223  1.0380 -0.5033
11014TIP3   OH254532   5.212   5.321   3.268  0.2715 -0.1221 -0.3375
11014TIP3    H154533   5.227   5.393   3.206  3.7309 -0.3765  0.0155
11014TIP3    H254534   5.191   5.365   3.350  1.1428  0.4924 -0.4208
11015TIP3   OH254535   2.356   4.969  15.210  0.6571 -0.3586  0.2911
11015TIP3    H154536   2.286   4.904  15.223 -0.2729  0.2460 -1.3283
11015TIP3    H254537   2.370   4.969  15.115  0.0416  2.3798  0.1411
11016TIP3   OH254538   5.016   3.889  10.585  0.1710 -0.2261 -0.0910
11016TIP3    H154539   4.985   3.980  10.582  1.2085  0.1626 -3.8488
11016TIP3    H254540   4.946   3.841  10.629 -1.2336  2.0927  0.3755
11017TIP3   OH254541   2.412   2.601   5.455  0.1776 -0.2636 -0.0474
11017TIP3    H154542   2.406   2.553   5.372 -1.1841 -0.3547  0.0766
11017TIP3    H254543   2.429   2.692   5.429 -1.3518 -0.0850 -0.5102
11018TIP3   OH254544   0.807   2.524  14.495  0.3262  0.5946  0.3031
11018TIP3    H154545   0.888   2.559  14.532 -0.2597  2.3144  0.0449
11018TIP3    H254546   0.832   2.490  14.409  0.7005  1.6051 -0.0027
11019TIP3   OH254547   0.931   5.168  16.741  0.2523  0.0890  0.4475
11019TIP3    H154548   0.949   5.106  16.671 -0.6490  0.6262 -0.2912
11019TIP3    H254549   0.980   5.136  16.816  1.3789 -0.4011 -0.4808
11020TIP3   OH254550   0.374   3.902  15.062 -0.6836  0.5889  0.0890
11020TIP3    H154551   0.447   3.944  15.107 -1.0421 -1.4944  2.9126
11020TIP3    H254552   0.308   3.889  15.130 -1.8761 -1.5282 -1.3372
11021TIP3   OH254553   5.843   4.670  14.636 -0.1450  0.3287 -0.1162
11021TIP3    H154554   5.879   4.756  14.655 -2.5962  1.5253 -0.5334
11021TIP3    H254555   5.910   4.627  14.582  1.2672  1.8243  0.3875
11022TIP3   OH254556   6.083   0.365   0.476 -0.0788 -0.1522  0.6410
11022TIP3    H154557   6.092   0.271   0.490 -0.0334 -0.1641  0.5372
11022TIP3    H254558   5.989   0.381   0.483 -0.0085 -0.0724  1.4580
11023TIP3   OH254559   1.126   2.596   1.125 -0.0885 -0.2133 -0.1528
11023TIP3    H154560   1.102   2.511   1.162  0.0225  0.4955  1.6266
11023TIP3    H254561   1.169   2.642   1.197  0.4356  1.1161 -1.2808
11024TIP3   OH254562   2.457   1.291  13.711 -0.0152  0.7241  0.0723
11024TIP3    H154563   2.504   1.353  13.655  0.6293 -0.0218 -0.2271
11024TIP3    H254564   2.515   1.216  13.718 -0.2597  0.6316  1.4233
11025TIP3   OH254565   0.616   4.861  13.149  0.5091 -0.1283  0.3133
11025TIP3    H154566   0.555   4.793  13.120  0.0901  0.1896  0.4394
11025TIP3    H254567   0.631   4.915  13.071  0.4572 -0.0805  0.3359
11026TIP3   OH254568   0.954   2.531   0.434  0.3372 -0.2949  0.0678
11026TIP3    H154569   0.859   2.538   0.448  0.2646 -2.0429  0.6985
11026TIP3    H254570   0.963   2.483   0.352  0.6712 -0.8959  0.4550
11027TIP3   OH254571   4.137   1.897  15.030 -0.2134  0.0245  0.2955
11027TIP3    H154572   4.163   1.805  15.017 -0.0695 -0.1989  1.8811
11027TIP3    H254573   4.215   1.938  15.068 -1.2332  0.0129  2.5312
11028TIP3   OH254574   6.338   5.394  10.888 -0.0639  0.6193  0.8442
11028TIP3    H154575   6.434   5.395  10.878 -0.1207 -1.9199 -0.9714
11028TIP3    H254576   6.310   5.477  10.849  1.3636  1.0923  0.7385
11029TIP3   OH254577   5.411   3.396  10.189  0.2519 -0.2824  0.0505
11029TIP3    H154578   5.490   3.389  10.242  0.1010 -0.2848  0.2792
11029TIP3    H254579   5.414   3.484  10.152 -0.9697  0.7682  2.2287
11030TIP3   OH254580   3.739   5.460  13.612 -0.5983 -0.8434  0.6217
11030TIP3    H154581   3.827   5.451  13.575 -0.3175  0.4110  0.9364
11030TIP3    H254582   3.717   5.373  13.644  0.4638 -1.2071  0.3979
11031TIP3   OH254583   6.757   5.431   5.476  0.0046 -0.3347  0.2774
11031TIP3    H154584   6.830   5.440   5.415 -0.7909  1.1906 -0.5093
11031TIP3    H254585   6.750   5.517   5.518 -2.3342  0.0973 -0.8474
11032TIP3   OH254586   5.981   0.459   1.233 -0.1476 -0.3405  0.1941
11032TIP3    H154587   5.974   0.536   1.289 -0.4051 -0.0012 -0.3003
11032TIP3    H254588   6.009   0.389   1.292 -0.0035  0.1078  0.6633
11033TIP3   OH254589   1.884   2.080   2.507  0.1201  0.6660  0.0693
11033TIP3    H154590   1.883   1.985   2.491  1.0089 -0.0909  3.5846
11033TIP3    H254591   1.929   2.116   2.430  0.0055 -1.7723 -1.2576
11034TIP3   OH254592   1.756   3.942  14.725  0.2230  0.1322 -0.1833
11034TIP3    H154593   1.749   3.988  14.809 -1.0533  1.6868 -1.0773
11034TIP3    H254594   1.842   3.900  14.728  1.1706  1.9922  1.0042
11035TIP3   OH254595   1.150   1.329   0.626  0.2587 -0.8209 -0.1782
11035TIP3    H154596   1.244   1.330   0.610  0.6281 -0.3127  1.8532
11035TIP3    H254597   1.136   1.394   0.694 -1.4832 -1.4022  0.0745
11036TIP3   OH254598   0.210   1.395  11.980 -0.1527 -0.1619 -0.4228
11036TIP3    H154599   0.136   1.343  11.948 -0.3760 -0.1556  0.0696
11036TIP3    H254600   0.175   1.441  12.056 -0.0990  1.1062 -1.1477
11037TIP3   OH254601   5.479   5.810   3.057  0.0046  0.5098 -0.2409
11037TIP3    H154602   5.497   5.784   3.148  0.5968  0.7941 -0.2697
11037TIP3    H254603   5.511   5.737   3.004 -1.0670 -0.0064 -0.1909
11038TIP3   OH254604   1.283   0.010  13.221  0.0802  0.1516 -0.2202
11038TIP3    H154605   1.205  -0.037  13.251  0.5708 -0.4233  0.1510
11038TIP3    H254606   1.296   0.079  13.286  0.4420 -0.3489  0.2425
11039TIP3   OH254607   6.581   6.061  11.322 -0.1449 -0.5594  0.6304
11039TIP3    H154608   6.600   6.151  11.294  0.8504 -0.6930  0.8483
11039TIP3    H254609   6.498   6.040  11.279  0.0321  0.1649 -0.0953
11040TIP3   OH254610   6.120   3.031   4.224  0.0158 -0.2763 -0.3242
11040TIP3    H154611   6.025   3.026   4.227  0.0137 -0.1414 -0.1979
11040TIP3    H254612   6.142   3.116   4.261  0.2127 -0.5349  0.1598
11041TIP3   OH254613   4.702   2.979   4.775 -0.2150 -0.1520 -0.3046
11041TIP3    H154614   4.738   2.998   4.689  0.0277 -0.8672 -0.3749
11041TIP3    H254615   4.674   3.063   4.810  1.1797  0.3812 -0.4180
11042TIP3   OH254616   2.731   1.138   4.359  0.2287 -0.5880 -0.6251
11042TIP3    H154617   2.684   1.208   4.313  2.0880 -0.6673 -2.8803
11042TIP3    H254618   2.815   1.178   4.382  1.0687 -1.8693 -1.3799
11043TIP3   OH254619   3.685   0.362   3.144  0.0512  0.0132  0.3293
11043TIP3    H154620   3.720   0.301   3.209  1.6293 -1.1480 -1.4953
11043TIP3    H254621   3.608   0.317   3.109  0.2959 -0.2361  0.1009
11044TIP3   OH254622   6.588   2.917   1.082 -0.1070  0.1497  0.0429
11044TIP3    H154623   6.537   2.938   1.160  1.5961 -1.5180  1.7151
11044TIP3    H254624   6.635   2.998   1.061  0.5681  0.2236  1.7194
11045TIP3   OH254625   1.214   6.808   4.672  0.4913  0.3654  0.1782
11045TIP3    H154626   1.298   6.836   4.634  0.6366  2.1662  1.6636
11045TIP3    H254627   1.239   6.747   4.742  0.4504 -0.2388 -0.3272
11046TIP3   OH254628   1.318   4.104   5.933  0.2653  0.2321 -0.3084
11046TIP3    H154629   1.354   4.124   6.020 -0.3346  0.7095 -0.1626
11046TIP3    H254630   1.227   4.076   5.950 -0.0220  0.8330 -0.8235
11047TIP3   OH254631   6.514   1.050   4.177 -0.5768 -0.7713 -0.6982
11047TIP3    H154632   6.470   1.076   4.258 -0.7810 -1.2273 -0.6573
11047TIP3    H254633   6.590   0.999   4.207 -0.4799 -0.6777 -0.7855
11048TIP3   OH254634   6.553   1.415  12.393 -0.5231 -0.3729 -0.3836
11048TIP3    H154635   6.549   1.367  12.476  2.1955 -0.0379  0.0225
11048TIP3    H254636   6.577   1.348  12.329  1.5702  0.0402 -0.1073
11049TIP3   OH254637   4.825   4.984  14.411  0.0465  0.2265 -0.3538
11049TIP3    H154638   4.891   4.937  14.462 -0.4788 -0.9979 -0.7752
11049TIP3    H254639   4.773   4.915  14.370 -0.9631  1.1851 -0.7136
11050TIP3   OH254640   3.813   2.431   3.095  0.2439 -0.3327  0.5756
11050TIP3    H154641   3.790   2.426   3.003  0.5199 -0.1424  0.4981
11050TIP3    H254642   3.830   2.340   3.120  2.7949 -0.1534 -0.2292
11051TIP3   OH254643   4.893   1.782  15.880 -0.2465 -0.7103 -0.1535
11051TIP3    H154644   4.880   1.697  15.924  0.6071 -0.8074 -0.0703
11051TIP3    H254645   4.971   1.818  15.922  0.7734 -0.9346 -1.7729
11052TIP3   OH254646   3.313   2.344  15.715  0.2700 -0.0265  0.0089
11052TIP3    H154647   3.296   2.377  15.627  0.0933  1.1405  0.4505
11052TIP3    H254648   3.236   2.292  15.737 -0.5067  1.1304  0.1182
11053TIP3   OH254649   1.022   4.651  11.677  0.3859  0.1805  0.1387
11053TIP3    H154650   1.081   4.681  11.746  0.2612  1.1115 -0.1464
11053TIP3    H254651   0.991   4.731  11.635 -0.8342 -0.2964  0.0804
11054TIP3   OH254652   1.935   3.362   3.991 -0.2478 -0.5085 -0.5835
11054TIP3    H154653   1.879   3.301   3.944 -0.1020 -1.4260  0.4124
11054TIP3    H254654   1.876   3.432   4.018 -0.8231 -1.2159  0.0275
11055TIP3   OH254655   6.043   6.587   5.384  0.1981 -0.0251  0.2076
11055TIP3    H154656   6.012   6.675   5.407 -2.1139 -0.3270 -1.3606
11055TIP3    H254657   6.138   6.594   5.384  0.0871  2.4081  0.4050
11056TIP3   OH254658   6.281   6.517  12.603 -1.1226 -0.4429 -0.1545
11056TIP3    H154659   6.191   6.509  12.636 -0.8300  0.4472  0.9476
11056TIP3    H254660   6.330   6.450  12.650 -1.0933 -0.4939 -0.2593
11057TIP3   OH254661   2.604   2.941  13.855 -0.0721 -0.2027 -0.2132
11057TIP3    H154662   2.627   3.026  13.818 -2.2901  0.1141 -1.0402
11057TIP3    H254663   2.650   2.877  13.801  0.8955  0.4145 -0.1441
11058TIP3   OH254664   5.646   0.720   1.728  0.2101  0.0719 -0.0218
11058TIP3    H154665   5.668   0.634   1.766  0.5530 -0.7953 -2.0395
11058TIP3    H254666   5.670   0.712   1.636  0.4792  2.4509 -0.2218
11059TIP3   OH254667   1.179   5.999   0.410 -0.2955 -0.1929 -0.0436
11059TIP3    H154668   1.151   6.042   0.329  0.5402  0.5234  0.0377
11059TIP3    H254669   1.245   6.058   0.447 -0.2804 -0.7793  0.8849
11060TIP3   OH254670   3.258   1.488   4.899  0.0008 -0.7265  0.0588
11060TIP3    H154671   3.311   1.408   4.904 -1.0069 -1.3736  0.9634
11060TIP3    H254672   3.252   1.518   4.990  0.0044  0.1461 -0.2208
11061TIP3   OH254673   0.719   1.910   2.973  0.8454 -0.0880  0.3718
11061TIP3    H154674   0.805   1.928   3.011  1.2855 -2.0257  0.3780
11061TIP3    H254675   0.688   1.833   3.020  0.2620 -0.9963 -1.4138
11062TIP3   OH254676   0.495   3.554  16.967  0.2773 -0.7527  0.1151
11062TIP3    H154677   0.578   3.531  16.925  0.7020 -2.0624  1.5977
11062TIP3    H254678   0.431   3.495  16.928  0.2432 -0.4898 -0.2343
11063TIP3   OH254679   2.294   2.967  10.828 -0.5804 -0.1094  0.2260
11063TIP3    H154680   2.289   2.910  10.752 -1.2571  2.5111 -1.8364
11063TIP3    H254681   2.378   3.013  10.819 -0.7924  0.4276  0.8855
11064TIP3   OH254682   2.116   5.452  11.559  0.1733  0.2292  0.3461
11064TIP3    H154683   2.156   5.368  11.578 -0.2301  0.1428  0.8382
11064TIP3    H254684   2.031   5.449  11.603 -0.7022  0.1170 -1.2568
11065TIP3   OH254685   0.235   5.488  11.523 -0.2710 -0.2721 -0.8488
11065TIP3    H154686   0.261   5.479  11.432  0.2070  1.9526 -0.9763
11065TIP3    H254687   0.293   5.555  11.559 -2.8801  1.6705  0.0326
11066TIP3   OH254688   1.957   4.992   1.451  0.0521 -0.3481 -0.3541
11066TIP3    H154689   1.955   5.044   1.370 -0.1837  0.8337  0.3785
11066TIP3    H254690   1.884   5.026   1.503  0.8391 -0.3505  0.7891
11067TIP3   OH254691   1.923   0.653   3.181  0.4770 -0.3747 -0.6539
11067TIP3    H154692   2.017   0.651   3.196  0.2096 -0.3035  1.4136
11067TIP3    H254693   1.885   0.663   3.269 -1.4596 -0.5160 -1.4156
11068TIP3   OH254694   6.086   3.931  14.910  0.3272  0.9792 -0.1069
11068TIP3    H154695   6.030   3.881  14.850 -0.5286  1.1604  0.5237
11068TIP3    H254696   6.127   3.997  14.854 -1.0463  1.6359 -0.3839
11069TIP3   OH254697   2.638   4.579  14.630 -0.5462 -0.5878  0.1056
11069TIP3    H154698   2.553   4.546  14.661 -1.2168 -0.6496 -1.6822
11069TIP3    H254699   2.630   4.580  14.535  0.9322  0.8667 -0.0418
11070TIP3   OH254700   6.541   0.406  15.084  0.1271  0.8814 -0.0083
11070TIP3    H154701   6.487   0.481  15.063  0.0101  0.5228 -1.0409
11070TIP3    H254702   6.629   0.430  15.055  0.0676  0.5824 -0.4489
11071TIP3   OH254703   6.188   1.189  13.353 -0.3353 -0.0945  0.5351
11071TIP3    H154704   6.158   1.232  13.273 -0.0954 -1.9977 -0.6346
11071TIP3    H254705   6.172   1.254  13.422  2.4130  2.9799 -1.3702
11072TIP3   OH254706   6.718   4.216   1.837  0.4669 -0.1032 -0.0994
11072TIP3    H154707   6.785   4.282   1.818  0.1872 -0.3399 -2.1811
11072TIP3    H254708   6.667   4.252   1.910  0.5108  1.8428 -0.9858
11073TIP3   OH254709   5.077   0.852   1.624  0.3483 -0.0788 -0.2016
11073TIP3    H154710   5.080   0.947   1.632 -0.3831  0.0261 -1.0600
11073TIP3    H254711   5.028   0.823   1.701 -1.3329  0.4288 -1.0355
11074TIP3   OH254712   2.890   0.321   3.522  0.5747  0.2489 -0.4656
11074TIP3    H154713   2.806   0.325   3.569  1.2565  0.5864  0.7627
11074TIP3    H254714   2.867   0.288   3.435 -0.9208  0.9362 -0.3622
11075TIP3   OH254715   6.453   5.469  14.085 -0.3926 -0.0595 -0.3665
11075TIP3    H154716   6.416   5.509  14.006 -2.5810 -0.5298  0.3371
11075TIP3    H254717   6.484   5.383  14.056 -0.1351  0.2160 -0.9232
11076TIP3   OH254718   6.807   4.307  10.453 -0.2524  0.3530 -0.4256
11076TIP3    H154719   6.795   4.365  10.378 -2.2439  1.9956  1.0718
11076TIP3    H254720   6.722   4.304  10.496 -0.2371 -3.6332 -0.2928
11077TIP3   OH254721   0.395   5.665  13.133  0.2604 -0.0768  0.5805
11077TIP3    H154722   0.383   5.755  13.101  0.3799  0.4065  1.8115
11077TIP3    H254723   0.482   5.640  13.101  0.2063  0.2294  0.1834
11078TIP3   OH254724   4.237   4.937   4.632  0.1653 -0.4449 -0.1517
11078TIP3    H154725   4.274   4.973   4.551 -0.5736  2.0029  0.5390
11078TIP3    H254726   4.221   4.844   4.611 -0.6455  0.2349 -3.0546
11079TIP3   OH254727   1.164   1.034  13.501 -0.3790  0.6713  0.3634
11079TIP3    H154728   1.218   1.031  13.580  0.1398 -0.1629 -0.0060
11079TIP3    H254729   1.223   1.070  13.434  0.1503 -1.3720 -0.3366
11080TIP3   OH254730   0.188   6.724   4.391 -0.4874 -0.3447 -0.0530
11080TIP3    H154731   0.208   6.683   4.307 -0.2004  1.0523 -0.6987
11080TIP3    H254732   0.121   6.669   4.429 -0.1746 -1.3588 -0.9159
11081TIP3   OH254733   6.571   0.023   0.082  0.0312  0.3767 -0.0575
11081TIP3    H154734   6.505  -0.035   0.120  0.8356  0.5993  1.7875
11081TIP3    H254735   6.602   0.075   0.156  0.9523  1.5809 -1.2460
11082TIP3   OH254736   3.828   3.229   5.720  0.6628  0.0469  0.0275
11082TIP3    H154737   3.861   3.150   5.762 -0.8596  0.0622  1.3297
11082TIP3    H254738   3.775   3.273   5.787 -1.3457  0.3971 -1.6575
11083TIP3   OH254739   2.379   0.168  12.985  0.1119  0.0872 -0.3858
11083TIP3    H154740   2.429   0.139  12.910  0.0681  1.5480 -1.0127
11083TIP3    H254741   2.435   0.149  13.060 -0.4182 -2.6926 -0.5802
11084TIP3   OH254742   4.701   0.850   1.963 -0.7935 -0.0199  0.4090
11084TIP3    H154743   4.646   0.924   1.984 -1.7014 -0.1438 -1.3345
11084TIP3    H254744   4.654   0.804   1.893  1.9635  0.4998 -1.9826
11085TIP3   OH254745   4.745   6.494   4.758 -0.6525  0.0498  0.0777
11085TIP3    H154746   4.825   6.488   4.706 -1.0761 -1.2563 -0.4563
11085TIP3    H254747   4.771   6.468   4.846 -0.5445 -0.7067 -0.1719
11086TIP3   OH254748   3.209   4.074  10.619  0.5460 -0.3299  0.0829
11086TIP3    H154749   3.129   4.125  10.603 -0.2321 -1.1415  1.2874
11086TIP3    H254750   3.187   3.985  10.592  0.9283 -0.6267  0.7327
11087TIP3   OH254751   1.058   2.064   1.452 -0.0701 -0.1020 -0.3086
11087TIP3    H154752   1.139   2.114   1.464 -0.0615 -0.4365  1.3782
11087TIP3    H254753   0.992   2.113   1.500 -0.5842 -0.4935 -0.5995
11088TIP3   OH254754   0.881   2.946   5.994 -0.7200  0.4470  1.1714
11088TIP3    H154755   0.939   3.019   5.972 -2.9061  1.8740 -0.2673
11088TIP3    H254756   0.792   2.980   5.978 -1.9275 -1.9326  2.2854
11089TIP3   OH254757   6.090   5.894  11.130 -0.3499 -0.0557 -0.2992
11089TIP3    H154758   6.054   5.871  11.044 -2.0376 -0.0623  0.3591
11089TIP3    H254759   6.044   5.974  11.154  1.6948  1.1700 -0.3089
11090TIP3   OH254760   2.102   0.894   3.808 -0.2135  0.4804 -0.1289
11090TIP3    H154761   2.139   0.894   3.897  0.7649  1.2092 -0.5151
11090TIP3    H254762   2.066   0.806   3.797 -3.3763  1.2898  2.1781
11091TIP3   OH254763   3.477   6.806  13.246 -0.1785  0.3744 -0.2170
11091TIP3    H154764   3.494   6.738  13.181  2.6785  0.4193  0.3650
11091TIP3    H254765   3.427   6.761  13.315 -2.4044  0.1002 -1.8904
11092TIP3   OH254766   5.708   6.786   0.503 -0.5343 -0.2972 -0.3896
11092TIP3    H154767   5.701   6.800   0.598  1.6274 -0.2950 -0.1660
11092TIP3    H254768   5.753   6.702   0.495  2.6223  1.3186 -1.2406
11093TIP3   OH254769   1.036   5.674  13.773  0.2635  0.3215 -0.4821
11093TIP3    H154770   1.034   5.715  13.686  1.9658 -1.3857 -1.3939
11093TIP3    H254771   0.955   5.623  13.776  0.0306  0.6506 -0.9367
11094TIP3   OH254772   6.510   4.430   3.815 -0.4497 -0.1866 -0.1808
11094TIP3    H154773   6.486   4.395   3.901 -3.9010  1.0836 -0.4665
11094TIP3    H254774   6.516   4.524   3.828 -1.8321  0.1051 -1.4277
11095TIP3   OH254775   4.698   1.073  11.441 -0.1375  0.7830 -0.3520
11095TIP3    H154776   4.706   1.083  11.536 -1.0577 -0.6820 -0.0958
11095TIP3    H254777   4.608   1.099  11.422 -0.0993  0.6211 -0.7573
11096TIP3   OH254778   0.049   3.683   3.450  0.1940 -0.2213  0.1843
11096TIP3    H154779   0.011   3.683   3.538  1.6295 -1.6247  0.8503
11096TIP3    H254780   0.118   3.749   3.453  1.1818 -1.2558  0.5639
11097TIP3   OH254781   4.712   0.887   1.143  0.0856  0.0443  0.0757
11097TIP3    H154782   4.637   0.946   1.142  1.4550  1.8531 -0.4698
11097TIP3    H254783   4.724   0.865   1.235 -2.1193 -1.7184  0.0407
11098TIP3   OH254784   1.621   3.327  11.542 -0.4847 -0.2508 -0.0336
11098TIP3    H154785   1.652   3.275  11.616 -0.8878  1.8476  1.7192
11098TIP3    H254786   1.647   3.417  11.564  0.1257  0.3624 -2.8732
11099TIP3   OH254787   0.381   5.018   4.796 -0.2013 -0.2388 -0.3983
11099TIP3    H154788   0.383   4.927   4.827  0.9260 -0.4171 -0.9353
11099TIP3    H254789   0.383   5.071   4.876 -2.6776 -0.6424  0.0120
11100TIP3   OH254790   3.506   5.743  17.035  0.1614 -0.4898  0.4874
11100TIP3    H154791   3.430   5.796  17.056  1.2828  0.4042  2.5345
11100TIP3    H254792   3.480   5.653  17.056 -1.0548 -0.5502 -1.0617
11101TIP3   OH254793   5.772   3.020  12.851  0.0596 -0.3872  0.0322
11101TIP3    H154794   5.782   3.048  12.760  0.9407 -0.5071  0.0789
11101TIP3    H254795   5.690   3.059  12.880 -0.6492 -1.0297 -1.0613
11102TIP3   OH254796   2.763   1.069  12.432  0.5408  1.0070 -0.2267
11102TIP3    H154797   2.689   1.108  12.478  0.9764  2.0855 -0.4146
11102TIP3    H254798   2.797   1.003  12.493 -1.0006 -0.0435 -0.4269
11103TIP3   OH254799   0.550   2.151  15.300  0.5883  0.1711  0.5279
11103TIP3    H154800   0.601   2.222  15.340 -0.6786  1.4739 -0.0880
11103TIP3    H254801   0.614   2.103  15.247  1.6199  0.3913  1.5361
11104TIP3   OH254802   3.474   4.396  13.436  0.9970  0.6712  0.1523
11104TIP3    H154803   3.394   4.428  13.478  0.1435 -0.7494 -0.3288
11104TIP3    H254804   3.480   4.448  13.355  0.8873  1.1735  0.4596
11105TIP3   OH254805   3.951   4.006   2.750  0.1922 -0.4523 -0.2743
11105TIP3    H154806   3.955   4.057   2.668 -0.5959  0.6724  0.3529
11105TIP3    H254807   3.968   3.916   2.723 -1.1886 -0.2937 -1.8696
11106TIP3   OH254808   4.837   6.772   0.424  0.4548  0.1218  0.8434
11106TIP3    H154809   4.774   6.737   0.487 -0.1187  2.7968  1.9175
11106TIP3    H254810   4.919   6.781   0.474  1.1432 -1.3115  0.0546
11107TIP3   OH254811   5.172   2.478   2.942 -0.3009 -0.6332  0.6713
11107TIP3    H154812   5.082   2.480   2.975 -0.1275 -0.5297  1.1449
11107TIP3    H254813   5.163   2.452   2.850 -0.8900  0.3810  0.4306
11108TIP3   OH254814   0.323   0.774   1.257  0.3591 -0.3548 -0.1511
11108TIP3    H154815   0.237   0.787   1.215 -0.1965  3.2025  1.7041
11108TIP3    H254816   0.307   0.707   1.324 -0.4193 -1.1754 -1.1260
11109TIP3   OH254817   3.153   2.789  15.434 -0.2525 -0.9794  0.7061
11109TIP3    H154818   3.133   2.695  15.434 -0.3122 -0.9817  1.7284
11109TIP3    H254819   3.067   2.831  15.433 -0.2833 -0.9657  1.9217
11110TIP3   OH254820   3.229   4.255   2.160 -0.1471 -0.9741 -0.0155
11110TIP3    H154821   3.141   4.240   2.128 -0.5186  3.1046 -1.4830
11110TIP3    H254822   3.228   4.344   2.194  3.2071 -1.0592  0.7077
11111TIP3   OH254823   3.944   3.841   4.635  0.3112 -0.2349 -0.0077
11111TIP3    H154824   3.881   3.790   4.686 -2.1484  3.0331  0.5480
11111TIP3    H254825   3.927   3.932   4.659  0.5277  1.4303 -4.9501
11112TIP3   OH254826   0.143   6.637  12.953 -0.1126 -0.1987 -0.3700
11112TIP3    H154827   0.169   6.720  12.914 -0.1291  0.5059  1.0509
11112TIP3    H254828   0.116   6.583  12.879  0.5636  0.8094 -1.3880
11113TIP3   OH254829   2.869   6.350   4.710  0.4510  0.4588 -0.5840
11113TIP3    H154830   2.835   6.381   4.626 -0.4132  0.0222 -0.4028
11113TIP3    H254831   2.882   6.430   4.761  0.3824  0.6786 -0.9069
11114TIP3   OH254832   4.432   1.047   1.263 -0.2434  0.6547 -0.0381
11114TIP3    H154833   4.452   0.981   1.328  0.1149 -1.0304 -1.7733
11114TIP3    H254834   4.446   1.130   1.308  0.6362 -0.4353  1.8131
11115TIP3   OH254835   0.272   1.413   5.172 -0.1716  0.0232 -0.3111
11115TIP3    H154836   0.349   1.428   5.227 -1.3943  0.0387  1.4856
11115TIP3    H254837   0.298   1.445   5.086  1.8773 -0.1209  0.1881
11116TIP3   OH254838   4.531   6.800   3.687  0.4649  0.1796 -0.8935
11116TIP3    H154839   4.573   6.726   3.732 -1.8165 -0.1399  0.9132
11116TIP3    H254840   4.508   6.861   3.757 -1.6968  0.4802 -1.7848
11117TIP3   OH254841   4.637   0.538  16.122 -0.4498  0.2842  0.5516
11117TIP3    H154842   4.604   0.456  16.158  4.1513 -0.9689  2.5276
11117TIP3    H254843   4.650   0.520  16.029  1.2554 -1.6372  1.0911
11118TIP3   OH254844   0.720   2.010   5.925 -0.6655 -0.0386  0.2512
11118TIP3    H154845   0.749   2.070   5.994 -1.1485  0.8383 -0.3036
11118TIP3    H254846   0.734   2.058   5.843  0.5620 -1.3266 -0.3428
11119TIP3   OH254847   0.880   4.838   4.803 -0.5011  0.0392 -0.1900
11119TIP3    H154848   0.801   4.795   4.769  0.0307 -2.8233  1.8698
11119TIP3    H254849   0.946   4.823   4.735 -0.7646 -1.0194 -0.2339
11120TIP3   OH254850   5.458   5.265  12.490  0.3108 -0.2579 -0.5082
11120TIP3    H154851   5.408   5.280  12.410  0.4647 -1.3203 -0.8098
11120TIP3    H254852   5.519   5.339  12.493  0.9977 -0.7367 -1.9182
11121TIP3   OH254853   4.333   0.489  13.607  0.1816 -0.4831 -0.3067
11121TIP3    H154854   4.357   0.581  13.618 -1.2239  0.0294 -1.2176
11121TIP3    H254855   4.262   0.490  13.542 -1.9039 -1.8906  1.7538
11122TIP3   OH254856   5.932   5.206   6.472  0.0620 -0.1761 -0.2726
11122TIP3    H154857   5.998   5.258   6.426  0.6218 -0.5091  0.1390
11122TIP3    H254858   5.919   5.251   6.556  0.4454 -0.6073  0.0277
11123TIP3   OH254859   6.604   4.976  14.800 -0.2841 -0.0352  0.1720
11123TIP3    H154860   6.627   5.007  14.712 -0.5386  0.5701  0.3143
11123TIP3    H254861   6.632   5.048  14.858 -1.0608  0.0119  0.4917
11124TIP3   OH254862   0.052   1.180   2.472 -0.1403  0.1973 -0.3433
11124TIP3    H154863   0.022   1.269   2.487 -1.8241 -0.1873 -1.1707
11124TIP3    H254864   0.135   1.174   2.519 -0.7462  1.7214  1.0154
11125TIP3   OH254865   1.484   2.111  13.567 -0.0162 -0.0352 -0.4655
11125TIP3    H154866   1.529   2.118  13.483 -0.0184  0.4392 -0.4287
11125TIP3    H254867   1.454   2.200  13.586  1.2144  0.1493  0.7173
11126TIP3   OH254868   5.248   5.699  15.794  0.0019  0.5434  0.7614
11126TIP3    H154869   5.169   5.714  15.742 -0.0496 -0.7990  0.4290
11126TIP3    H254870   5.224   5.629  15.855  0.4643  1.1937  1.7260
11127TIP3   OH254871   1.259   1.286   5.139 -0.3297 -0.0664 -0.1602
11127TIP3    H154872   1.178   1.334   5.150  0.7859  1.6185  1.1898
11127TIP3    H254873   1.232   1.198   5.113 -2.4861  0.8811 -1.3602
11128TIP3   OH254874   4.147   1.039   3.517 -0.4425 -0.6343  0.2154
11128TIP3    H154875   4.121   1.131   3.517  1.5477 -0.0216  0.2719
11128TIP3    H254876   4.064   0.990   3.512 -1.5388  1.1375  0.2712
11129TIP3   OH254877   5.550   6.458   1.516 -0.5457  0.2519  0.0054
11129TIP3    H154878   5.577   6.420   1.432 -0.6854 -0.7719  0.4103
11129TIP3    H254879   5.475   6.513   1.494 -1.2489 -0.8378 -0.4148
11130TIP3   OH254880   4.302   4.868   3.683 -0.5643  0.5388  0.2769
11130TIP3    H154881   4.317   4.815   3.604 -0.5257  1.1336 -0.1231
11130TIP3    H254882   4.216   4.908   3.668  1.0016  3.7579 -1.3174
11131TIP3   OH254883   2.540   4.412  14.159  0.1251  0.0983  0.6924
11131TIP3    H154884   2.606   4.465  14.114 -0.8249  0.1043 -0.7640
11131TIP3    H254885   2.460   4.463  14.153 -0.8504 -1.4741 -0.8436
11132TIP3   OH254886   1.719   5.583  13.988 -0.9036  0.6566 -0.0715
11132TIP3    H154887   1.767   5.547  14.063  1.0832  2.3065 -0.4473
11132TIP3    H254888   1.741   5.524  13.915 -2.2885 -0.5540  0.4339
11133TIP3   OH254889   3.978   0.915   2.264  0.1498 -0.2164  0.0677
11133TIP3    H154890   3.891   0.952   2.272  0.1843 -0.0961 -0.1162
11133TIP3    H254891   3.965   0.830   2.224 -0.1109 -1.1747  2.0634
11134TIP3   OH254892   0.025   0.579  16.374 -0.0044 -0.0368 -0.2316
11134TIP3    H154893   0.082   0.621  16.437  1.2903 -1.6173 -0.2834
11134TIP3    H254894   0.075   0.577  16.293 -0.6205 -0.3615 -0.6170
11135TIP3   OH254895   5.722   4.111  14.967 -0.2649  0.3834 -1.6431
11135TIP3    H154896   5.747   4.142  15.054 -0.6838  1.0410 -1.7513
11135TIP3    H254897   5.673   4.184  14.929 -1.1065 -0.3453 -1.9870
11136TIP3   OH254898   3.251   1.652  15.027  0.6260  0.5615 -0.3214
11136TIP3    H154899   3.271   1.637  14.935 -2.1050 -0.7125 -0.7884
11136TIP3    H254900   3.158   1.671  15.029  0.8190  1.6506  2.0991
11137TIP3   OH254901   5.810   0.979   0.656  0.3738  0.5833 -0.0955
11137TIP3    H154902   5.839   0.891   0.632 -0.3897  0.2974  0.0068
11137TIP3    H254903   5.859   0.999   0.737  0.5942  0.2849 -0.1530
11138TIP3   OH254904   4.353   0.895  15.525 -0.3010  0.0257 -0.0710
11138TIP3    H154905   4.373   0.988  15.528 -0.2339 -0.0087  0.7100
11138TIP3    H254906   4.422   0.854  15.577 -0.6731 -0.3960  0.0977
11139TIP3   OH254907   6.126   6.441   4.550  0.6850  0.0375 -0.1868
11139TIP3    H154908   6.126   6.348   4.575  0.4050 -0.4669 -1.8989
11139TIP3    H254909   6.202   6.478   4.594  0.8630 -1.0291  0.4475
11140TIP3   OH254910   6.663   0.751   3.738 -0.6856  0.0509 -0.2310
11140TIP3    H154911   6.611   0.722   3.814 -3.5944 -0.7593 -2.3465
11140TIP3    H254912   6.723   0.678   3.721 -0.5627 -0.1035  0.7654
11141TIP3   OH254913   1.467   3.386  15.276  0.2741  0.4438 -0.0106
11141TIP3    H154914   1.522   3.334  15.217  0.7736  0.2746  0.5963
11141TIP3    H254915   1.528   3.439  15.326 -0.1279  0.4428  0.4951
11142TIP3   OH254916   5.559   5.707  16.464 -0.0061 -0.6831 -0.0943
11142TIP3    H154917   5.592   5.778  16.519  1.2116  0.2341 -1.9080
11142TIP3    H254918   5.472   5.737  16.436  0.4822  0.0927 -0.8086
11143TIP3   OH254919   0.872   0.761  13.905  0.3281  0.5031 -0.3459
11143TIP3    H154920   0.845   0.813  13.981  0.5316 -0.5267  0.4591
11143TIP3    H254921   0.798   0.766  13.844 -1.4109 -1.5430  1.4326
11144TIP3   OH254922   5.428   6.485  13.462 -0.7466  0.5171  0.2597
11144TIP3    H154923   5.486   6.410  13.451 -2.2912 -0.4777 -1.7987
11144TIP3    H254924   5.412   6.490  13.556  1.9718  0.3420  0.8060
11145TIP3   OH254925   3.428   0.309  14.608 -0.1092  0.6334 -0.0851
11145TIP3    H154926   3.397   0.269  14.527 -0.6554 -1.2672  1.0043
11145TIP3    H254927   3.470   0.238  14.655  2.1210  2.1704  0.4180
11146TIP3   OH254928   4.871   2.692   5.783 -0.0281  0.1283  0.2194
11146TIP3    H154929   4.809   2.620   5.773  1.7868 -1.3343 -1.5838
11146TIP3    H254930   4.956   2.653   5.760  1.5288  2.0917  2.2671
11147TIP3   OH254931   3.841   5.858  16.247 -0.3236 -0.0045 -0.6088
11147TIP3    H154932   3.763   5.838  16.197 -3.1844  2.0884  2.5400
11147TIP3    H254933   3.840   5.795  16.320  0.0292  0.9718  0.2680
11148TIP3   OH254934   6.368   5.242  16.867 -0.7592 -0.7920  0.1566
11148TIP3    H154935   6.441   5.216  16.812 -0.0460 -0.4073  0.8909
11148TIP3    H254936   6.318   5.304  16.814 -0.6284 -1.1644 -0.3990
11149TIP3   OH254937   3.693   2.738  10.912  0.0992  0.3651  0.0042
11149TIP3    H154938   3.726   2.802  10.849  0.8413 -1.7174 -1.8894
11149TIP3    H254939   3.762   2.732  10.978  0.6067  0.6193 -0.4929
11150TIP3   OH254940   5.281   2.396   6.176 -0.4611 -0.0181 -0.1631
11150TIP3    H154941   5.371   2.421   6.199 -0.6045  1.4409 -1.0472
11150TIP3    H254942   5.230   2.475   6.191 -1.5827 -0.7836  0.1590
11151TIP3   OH254943   0.955   5.211   3.623 -0.3569 -0.2934 -0.0866
11151TIP3    H154944   0.980   5.187   3.713 -0.4752 -2.0002 -0.4662
11151TIP3    H254945   1.028   5.180   3.569 -0.7247 -0.1670 -0.6713
11152TIP3   OH254946   4.952   1.174  10.533 -0.3186 -0.1389 -0.2150
11152TIP3    H154947   4.932   1.085  10.563 -0.3989  0.2012  0.7861
11152TIP3    H254948   5.044   1.188  10.556 -0.2594 -0.0276 -0.5191
11153TIP3   OH254949   1.901   2.073   1.043  0.8153  0.4515 -0.2094
11153TIP3    H154950   1.908   2.164   1.073 -1.6250  0.4826  0.5045
11153TIP3    H254951   1.835   2.076   0.974 -0.0204 -0.8931  0.4909
11154TIP3   OH254952   0.331   2.922   1.166  0.3523  0.7847 -0.3791
11154TIP3    H154953   0.420   2.894   1.186 -0.1312 -0.8384 -0.3529
11154TIP3    H254954   0.331   3.016   1.185  1.6736  0.5575  0.9764
11155TIP3   OH254955   2.973   2.750  15.207  0.2415 -0.8250  0.1023
11155TIP3    H154956   2.945   2.830  15.252  2.4826 -0.3142  0.6750
11155TIP3    H254957   3.005   2.779  15.122  2.4434 -0.8447  0.8621
11156TIP3   OH254958   0.878   5.484   5.266 -0.0654  0.4512 -0.0840
11156TIP3    H154959   0.866   5.425   5.191  0.7811  0.1622 -0.0132
11156TIP3    H254960   0.968   5.467   5.295 -0.7278 -0.2965  1.7183
11157TIP3   OH254961   0.968   2.229  14.612 -0.5562 -0.4859  0.3576
11157TIP3    H154962   1.032   2.236  14.683  1.3881  1.7932 -1.4470
11157TIP3    H254963   1.009   2.170  14.548 -1.1584 -0.5626  0.0337
11158TIP3   OH254964   3.665   3.033  14.682 -0.4869 -0.1651 -1.0232
11158TIP3    H154965   3.652   2.972  14.755 -2.3343 -0.4042 -1.4869
11158TIP3    H254966   3.693   3.114  14.723 -2.5621  0.0434  0.1236
11159TIP3   OH254967   4.044   1.923   3.806  0.2138 -0.0792  1.0194
11159TIP3    H154968   3.983   1.995   3.825  1.1091  0.9701 -0.0019
11159TIP3    H254969   4.026   1.900   3.715  2.1392  1.0737  0.2957
11160TIP3   OH254970   4.589   0.310   3.461 -0.2502 -0.0792 -0.8619
11160TIP3    H154971   4.598   0.319   3.556 -0.6939 -2.4712 -0.5221
11160TIP3    H254972   4.574   0.399   3.430 -0.6989  0.7048  1.3815
11161TIP3   OH254973   1.517   2.922   4.923 -0.7257  0.3127 -0.1541
11161TIP3    H154974   1.422   2.917   4.930 -0.7522  0.6779 -0.2279
11161TIP3    H254975   1.533   2.942   4.831 -0.5376 -0.7048 -0.3504
11162TIP3   OH254976   1.025   6.855   0.193  0.1904 -0.7566 -0.2190
11162TIP3    H154977   1.098   6.820   0.244  0.4469  2.5520  1.9684
11162TIP3    H254978   1.066   6.903   0.122  0.0755 -0.3713 -0.0266
11163TIP3   OH254979   5.896   0.167  15.739  0.1198  0.2618  0.7598
11163TIP3    H154980   5.819   0.152  15.794  0.6051  0.4550  1.5012
11163TIP3    H254981   5.962   0.107  15.773  0.0470 -0.5452 -0.4375
11164TIP3   OH254982   3.379   6.588  12.406  0.4684  0.1138  0.1726
11164TIP3    H154983   3.399   6.516  12.347  0.1943 -0.1493  0.3984
11164TIP3    H254984   3.310   6.555  12.463  0.3392  0.5533  0.2809
11165TIP3   OH254985   5.661   2.747  14.252 -0.5218 -0.2962 -0.0743
11165TIP3    H154986   5.747   2.752  14.211 -1.0006 -0.5838 -1.1402
11165TIP3    H254987   5.676   2.694  14.331  1.0201  2.7706  1.9026
11166TIP3   OH254988   2.405   0.657   0.323 -0.1675  0.6624 -0.1537
11166TIP3    H154989   2.419   0.597   0.396  1.7216  2.0811  0.7501
11166TIP3    H254990   2.334   0.715   0.353  0.8735  1.4922  0.7616
11167TIP3   OH254991   5.767   3.712  15.752 -0.0047  0.5813 -0.4014
11167TIP3    H154992   5.780   3.687  15.843 -0.5985  0.0108 -0.4652
11167TIP3    H254993   5.815   3.794  15.742 -1.1629  1.4457  0.8132
11168TIP3   OH254994   2.785   4.970   0.736  0.2730  0.4160 -0.3894
11168TIP3    H154995   2.805   5.061   0.760 -0.7337  0.9135 -1.3271
11168TIP3    H254996   2.719   4.943   0.800  1.1422  0.0688  0.3708
11169TIP3   OH254997   3.625   1.079  15.406  0.0481  0.8614 -0.0821
11169TIP3    H154998   3.619   1.026  15.326 -0.8367  0.6328  0.1239
11169TIP3    H254999   3.680   1.153  15.381  1.1914 -0.0767 -0.4067
11170TIP3   OH255000   2.540   4.663  14.359  0.8143  0.3943  0.3050
11170TIP3    H155001   2.585   4.667  14.274  0.0066  1.4815 -0.0928
11170TIP3    H255002   2.525   4.754  14.383  1.4168  0.1231  1.8519
11171TIP3   OH255003   4.535   4.135  16.460 -0.0266  0.2162  0.1078
11171TIP3    H155004   4.493   4.187  16.529  0.3881 -0.8721  1.2297
11171TIP3    H255005   4.624   4.122  16.491 -0.0403 -0.8995 -0.2596
11172TIP3   OH255006   1.548   3.379  14.953  0.0813  0.3895 -0.1741
11172TIP3    H155007   1.548   3.354  14.861 -3.1061  0.9224 -0.4370
11172TIP3    H255008   1.564   3.298  15.001 -1.1216 -0.4680 -1.1724
11173TIP3   OH255009   3.531   1.061  13.690 -0.1764 -0.7428 -0.3295
11173TIP3    H155010   3.609   1.010  13.712  0.0512 -0.7543 -1.1374
11173TIP3    H255011   3.500   1.025  13.607  0.1598  0.6085 -1.0800
11174TIP3   OH255012   1.287   0.487  14.764 -0.4188 -0.2661  0.0867
11174TIP3    H155013   1.328   0.573  14.771  0.1500 -0.4118 -1.1349
11174TIP3    H255014   1.358   0.429  14.736 -0.8603 -1.0799  0.6255
11175TIP3   OH255015   2.072   2.599   4.431 -1.0730  0.0992 -0.0227
11175TIP3    H155016   2.103   2.689   4.442 -1.0977  0.0258  0.7763
11175TIP3    H255017   2.129   2.547   4.488  0.1199 -0.6716 -1.8404
11176TIP3   OH255018   5.998   1.192   5.955 -0.2424  0.0817  0.2513
11176TIP3    H155019   6.016   1.125   6.020 -0.6201  0.0529  0.3277
11176TIP3    H255020   5.962   1.266   6.005 -1.4301 -0.2831 -0.0199
11177TIP3   OH255021   2.516   1.240  14.676  0.4726 -0.4960 -0.5350
11177TIP3    H155022   2.525   1.170  14.741 -0.6643 -0.5281 -0.3810
11177TIP3    H255023   2.429   1.277  14.693  0.5384  0.1123 -1.4373
11178TIP3   OH255024   4.625   0.423  14.392  0.2713 -0.4303 -0.2105
11178TIP3    H155025   4.626   0.433  14.487  1.7142 -0.1823 -0.2261
11178TIP3    H255026   4.668   0.339  14.376 -2.8031 -2.1029 -0.5596
11179TIP3   OH255027   2.771   2.340   2.425  0.1674  0.1194 -0.3025
11179TIP3    H155028   2.821   2.419   2.450 -0.6007  0.4983  0.0563
11179TIP3    H255029   2.826   2.298   2.359  0.0303  1.6254 -1.4502
11180TIP3   OH255030   4.074   1.249  16.905  0.1524  0.3299 -0.3673
11180TIP3    H155031   4.014   1.322  16.923  0.0718  0.5221 -1.3742
11180TIP3    H255032   4.152   1.291  16.867  1.2568  0.1681  1.5845
11181TIP3   OH255033   6.155   0.554   3.109 -0.2016 -0.3767  0.4740
11181TIP3    H155034   6.136   0.635   3.061  0.5746 -0.3212  0.2421
11181TIP3    H255035   6.079   0.498   3.092  0.0371 -0.3441 -0.8131
11182TIP3   OH255036   0.341   1.594   0.386 -0.5453  0.2352 -0.5879
11182TIP3    H155037   0.375   1.604   0.297  0.9281 -1.5759 -0.2904
11182TIP3    H255038   0.287   1.515   0.381 -0.3381  0.0459  0.1502
11183TIP3   OH255039   0.160   1.970   0.733  0.4704  0.1924  0.2917
11183TIP3    H155040   0.179   1.938   0.644  0.7061 -0.5809  0.6053
11183TIP3    H255041   0.246   1.995   0.767  0.2435  1.4850 -0.0605
11184TIP3   OH255042   1.047   1.474  17.098  0.7708 -0.4922 -0.0611
11184TIP3    H155043   1.080   1.541  17.038  0.4167  0.5598  0.9051
11184TIP3    H255044   0.953   1.472  17.083  0.8118 -0.9628 -0.2704
11185TIP3   OH255045   0.913   5.862  10.505 -0.0601  0.4765 -0.1494
11185TIP3    H155046   0.879   5.930  10.447  0.4239 -2.4945 -4.3950
11185TIP3    H255047   0.838   5.834  10.556 -0.4498  3.4115  1.0973
11186TIP3   OH255048   3.175   1.663  12.591  0.0409  0.0906 -0.0456
11186TIP3    H155049   3.172   1.567  12.598 -0.4944  0.0955 -0.1089
11186TIP3    H255050   3.140   1.681  12.503  0.6093  0.3236 -0.2309
11187TIP3   OH255051   1.806   0.180   4.570  0.0235  0.6546 -0.6316
11187TIP3    H155052   1.727   0.167   4.623  0.9960  1.6989  1.1687
11187TIP3    H255053   1.793   0.265   4.528 -0.0915  0.5242 -0.8607
11188TIP3   OH255054   1.325   1.026   5.643  0.5597 -0.0829  0.3237
11188TIP3    H155055   1.368   1.050   5.561  0.3491  0.3171  0.3278
11188TIP3    H255056   1.319   1.108   5.692 -1.9885  0.3270 -0.4979
11189TIP3   OH255057   0.184   2.093   4.290  0.5042 -0.1701 -0.3992
11189TIP3    H155058   0.158   2.042   4.214 -0.0343  0.4824 -0.6629
11189TIP3    H255059   0.247   2.156   4.256  1.6595 -1.0638  0.0451
11190TIP3   OH255060   5.992   6.227  12.196 -0.0917 -0.0308 -0.7669
11190TIP3    H155061   5.986   6.149  12.140 -1.7920  0.2812 -1.0597
11190TIP3    H255062   6.022   6.193  12.280 -0.4526 -0.9599 -1.0005
11191TIP3   OH255063   1.929   1.830   0.366  0.0099  0.3432 -0.1504
11191TIP3    H155064   1.905   1.899   0.427 -1.9749 -1.1399  0.8422
11191TIP3    H255065   1.865   1.838   0.295  0.0759 -0.1698 -0.2694
11192TIP3   OH255066   2.008   5.019  15.282  0.3330  0.1075 -0.1111
11192TIP3    H155067   2.000   5.036  15.188 -0.3135  0.9353  0.0808
11192TIP3    H255068   2.092   4.973  15.291  1.3944  1.7829 -0.8727
11193TIP3   OH255069   2.012   6.215  13.670 -0.0602  0.1433 -0.1062
11193TIP3    H155070   1.920   6.191  13.660 -0.1263  0.5336 -0.4843
11193TIP3    H255071   2.014   6.269  13.749 -0.3135  0.9038 -0.6128
11194TIP3   OH255072   5.325   3.424  15.762 -0.3023 -0.0283 -0.2595
11194TIP3    H155073   5.249   3.462  15.717  0.7667  0.6772 -1.5576
11194TIP3    H255074   5.392   3.492  15.757  0.3111 -0.5000  1.1841
11195TIP3   OH255075   0.002   4.804  11.806  0.7212 -0.2603  0.5151
11195TIP3    H155076   0.036   4.760  11.884  0.6072  2.7986  2.4570
11195TIP3    H255077  -0.090   4.819  11.826  0.4477 -0.3000 -0.6670
11196TIP3   OH255078   0.086   6.779  14.983  0.0137 -0.6422  0.3001
11196TIP3    H155079   0.103   6.837  14.909  0.2260 -0.7738  0.2461
11196TIP3    H255080   0.152   6.804  15.048 -1.1495  0.5501  1.0606
11197TIP3   OH255081   0.487   4.482   6.520 -0.8762 -0.3874 -0.7457
11197TIP3    H155082   0.455   4.443   6.601 -0.0511 -0.0102 -0.2282
11197TIP3    H255083   0.409   4.490   6.465 -2.0609  2.0041  1.0991
11198TIP3   OH255084   1.622   1.727   0.283 -0.1997 -0.4703 -0.1178
11198TIP3    H155085   1.638   1.803   0.227 -0.7387 -0.0406  0.3016
11198TIP3    H255086   1.557   1.675   0.234 -0.6468 -0.1105  0.0811
11199TIP3   OH255087   4.262   4.747  15.388 -0.0667 -0.2990 -0.3747
11199TIP3    H155088   4.260   4.780  15.298 -0.9475  0.0379 -0.2453
11199TIP3    H255089   4.185   4.692  15.394  0.5082 -1.0842 -0.0967
11200TIP3   OH255090   1.320   4.972  12.471 -0.4943 -0.4815 -0.6321
11200TIP3    H155091   1.274   5.001  12.550 -1.5806 -0.5502 -1.2194
11200TIP3    H255092   1.413   4.981  12.493 -0.7766 -0.2637  0.5608
11201TIP3   OH255093   3.542   6.446  15.173  0.4554 -0.1566 -0.3809
11201TIP3    H155094   3.605   6.464  15.104 -1.3857 -1.0505 -2.3940
11201TIP3    H255095   3.528   6.530  15.216  1.4217  0.4721 -1.2674
11202TIP3   OH255096   1.932   3.990  14.024 -0.0768 -0.5594  0.1815
11202TIP3    H155097   1.915   4.081  14.000  0.8900 -0.4186  0.0115
11202TIP3    H255098   1.889   3.980  14.109 -1.1235 -0.2696 -0.2944
11203TIP3   OH255099   5.970   4.727   3.494  0.0301  0.2833 -0.2396
11203TIP3    H155100   5.878   4.706   3.477 -0.6228  1.0158  2.1057
11203TIP3    H255101   6.013   4.641   3.505 -0.0622 -0.1134 -2.4798
11204TIP3   OH255102   4.900   0.921   5.472 -0.1364 -0.2848  0.1313
11204TIP3    H155103   4.891   0.869   5.393 -2.2960  0.3263 -0.0684
11204TIP3    H255104   4.948   0.864   5.533 -0.1177 -1.4668 -0.9636
11205TIP3   OH255105   6.462   3.025  16.448 -0.8274  0.5371 -0.0899
11205TIP3    H155106   6.520   3.077  16.504 -0.5279  0.9070 -0.7352
11205TIP3    H255107   6.475   3.060  16.360 -2.2612  0.8296 -0.2049
11206TIP3   OH255108   2.189   1.791  12.827  0.2407 -0.6373  0.1864
11206TIP3    H155109   2.118   1.753  12.879  0.7115 -1.3283  0.3285
11206TIP3    H255110   2.267   1.744  12.855  0.8938  0.6153  0.5683
11207TIP3   OH255111   3.156   6.079   2.100  0.1981 -0.3682 -0.0025
11207TIP3    H155112   3.148   6.070   2.195 -2.9331  0.3856 -0.1066
11207TIP3    H255113   3.168   5.989   2.068  0.8433 -0.6693  1.0259
11208TIP3   OH255114   2.273   4.752   4.369 -0.2147 -0.7044 -0.2094
11208TIP3    H155115   2.202   4.701   4.330 -0.6941  0.1408 -0.4681
11208TIP3    H255116   2.248   4.843   4.353  0.5164 -0.3853  0.4383
11209TIP3   OH255117   5.359   4.833  11.588 -0.6328  0.7181  0.5404
11209TIP3    H155118   5.308   4.770  11.537 -0.4644  0.4165  0.7411
11209TIP3    H255119   5.336   4.918  11.550  0.8705  0.3775 -1.2980
11210TIP3   OH255120   3.883   2.331  12.855 -0.2448  0.1087 -0.2962
11210TIP3    H155121   3.907   2.416  12.819  1.2569  0.2622  0.9633
11210TIP3    H255122   3.919   2.267  12.794  1.8792  0.3700  0.5957
11211TIP3   OH255123   6.347   2.536   2.137  0.0157 -0.2775  0.1689
11211TIP3    H155124   6.438   2.530   2.164  0.3620 -0.7618 -1.0170
11211TIP3    H255125   6.314   2.446   2.145 -0.0818 -0.2847 -0.3052
11212TIP3   OH255126   3.998   3.671  12.701  0.9236 -0.1453  0.6547
11212TIP3    H155127   4.082   3.646  12.662  0.4472  0.3377 -0.7364
11212TIP3    H255128   3.982   3.760  12.669 -0.2491 -0.3337  0.6658
11213TIP3   OH255129   1.518   5.703  14.396 -0.4240 -0.7106 -0.0243
11213TIP3    H155130   1.430   5.679  14.425 -0.0061 -1.4852  0.6579
11213TIP3    H255131   1.573   5.685  14.472  0.5361 -1.6065 -0.8965
11214TIP3   OH255132   1.017   5.334   6.001  0.6492 -0.2354  0.1845
11214TIP3    H155133   0.961   5.267   5.961  0.4326  1.3046 -2.3316
11214TIP3    H255134   0.971   5.416   5.984  2.5576  0.8574  0.0786
11215TIP3   OH255135   4.221   4.192  11.336 -0.4794 -0.1410 -0.6475
11215TIP3    H155136   4.235   4.204  11.242 -0.1415 -1.1379 -0.7369
11215TIP3    H255137   4.252   4.103  11.354  1.6609  0.8383  0.8403
11216TIP3   OH255138   5.699   0.253   0.456 -0.4416  0.3723 -0.2999
11216TIP3    H155139   5.705   0.159   0.474 -0.2649  0.3973 -0.2301
11216TIP3    H255140   5.724   0.295   0.538  0.1012  0.4834 -0.5196
11217TIP3   OH255141   3.371   3.808  15.135  0.0351  0.1581  0.5479
11217TIP3    H155142   3.368   3.803  15.039  0.7384 -1.9522  0.5852
11217TIP3    H255143   3.279   3.820  15.161 -0.1470  0.8878 -0.3832
11218TIP3   OH255144   0.113   6.091  16.970  0.5391  0.3673 -0.6215
11218TIP3    H155145   0.172   6.100  16.895 -0.1970 -2.3008 -1.6366
11218TIP3    H255146   0.125   6.000  16.998 -1.7442  0.2975  0.2847
11219TIP3   OH255147   3.386   1.300  13.745 -0.0652  0.1120 -0.6122
11219TIP3    H155148   3.449   1.232  13.723  1.4263  1.6877 -1.4947
11219TIP3    H255149   3.315   1.254  13.789  1.7421 -1.7432  0.5343
11220TIP3   OH255150   4.323   3.919  11.365  0.5161 -0.0185  0.1797
11220TIP3    H155151   4.404   3.898  11.411  1.2080 -0.1764 -1.0643
11220TIP3    H255152   4.305   3.841  11.311  1.1398  1.0900 -1.7383
11221TIP3   OH255153   1.918   3.819   1.141  0.3744 -0.7480  0.0637
11221TIP3    H155154   2.007   3.783   1.143  0.5274 -0.3824 -0.1650
11221TIP3    H255155   1.925   3.897   1.086 -0.6307 -2.1894 -2.2632
11222TIP3   OH255156   5.580   6.832   0.264 -0.2033 -0.0039  0.3447
11222TIP3    H155157   5.652   6.807   0.322  0.2317 -2.3383 -1.0605
11222TIP3    H255158   5.603   6.794   0.180 -3.2970 -1.3438 -0.0365
11223TIP3   OH255159   4.736   1.852  16.354 -0.1301 -0.8976 -0.5728
11223TIP3    H155160   4.832   1.859  16.354  0.1109 -3.1214 -2.5701
11223TIP3    H255161   4.706   1.938  16.324  1.2419 -0.3906 -0.5762
11224TIP3   OH255162   4.138   1.001  12.897 -0.3228 -0.3450  0.2418
11224TIP3    H155163   4.085   0.923  12.880  0.9258 -1.4307  1.0957
11224TIP3    H255164   4.211   0.994  12.836 -0.9026  0.9195 -0.6363
11225TIP3   OH255165   2.077   6.738   1.230 -0.0337 -0.4407  0.2127
11225TIP3    H155166   2.166   6.711   1.250  0.3299  1.4036  1.2956
11225TIP3    H255167   2.078   6.833   1.237 -1.6474 -0.2089 -1.6904
11226TIP3   OH255168   0.161   4.350   3.852  0.3176  0.4778 -0.3871
11226TIP3    H155169   0.154   4.443   3.829  0.7571  0.2518 -1.5026
11226TIP3    H255170   0.123   4.344   3.939 -2.1966  1.2651 -1.3469
11227TIP3   OH255171   5.261   2.693  13.055  0.6158  1.0925  0.3219
11227TIP3    H155172   5.333   2.639  13.022  0.2582  1.1590 -0.5934
11227TIP3    H255173   5.303   2.759  13.110  1.4073  1.9689 -1.2853
11228TIP3   OH255174   4.368   0.220  13.321  0.0295 -0.2013  0.0619
11228TIP3    H155175   4.311   0.297  13.318 -1.3948 -1.2608 -1.4318
11228TIP3    H255176   4.432   0.240  13.390 -0.0962  2.4374 -0.4971
11229TIP3   OH255177   3.268   2.816  12.754  1.1104 -0.2835  0.2654
11229TIP3    H155178   3.222   2.884  12.704  0.7668 -0.2077  0.6729
11229TIP3    H255179   3.204   2.788  12.820  1.2681 -0.9686  0.1343
11230TIP3   OH255180   4.795   6.117   4.666  0.4145 -0.2586 -0.0512
11230TIP3    H155181   4.744   6.069   4.730  0.1249  0.6077  0.3813
11230TIP3    H255182   4.737   6.187   4.636  1.6181  1.3033  1.1144
11231TIP3   OH255183   4.304   5.437  11.817 -0.2510 -0.0325  0.3849
11231TIP3    H155184   4.321   5.422  11.724  0.5193 -1.6469  0.7628
11231TIP3    H255185   4.380   5.401  11.862 -0.6526  0.6536  1.6670
11232TIP3   OH255186   3.426   2.605   0.092  0.3669  0.1328  0.1373
11232TIP3    H155187   3.435   2.626  -0.001  0.3598  0.6090  0.2396
11232TIP3    H255188   3.462   2.517   0.101 -1.3927 -0.7283 -0.6702
11233TIP3   OH255189   6.281   5.065   4.748  0.5741  0.2812 -0.1186
11233TIP3    H155190   6.365   5.021   4.735  0.5773  0.0532  0.6381
11233TIP3    H255191   6.304   5.158   4.755  0.8760  0.1356  0.9948
11234TIP3   OH255192   4.014   5.607   0.157 -0.4758  0.3214  0.2145
11234TIP3    H155193   4.055   5.681   0.204 -1.3824  1.1169 -0.2131
11234TIP3    H255194   4.003   5.639   0.068  1.1627 -1.1563 -0.5728
11235TIP3   OH255195   1.519   3.587  11.927 -0.3744 -0.3031 -0.4631
11235TIP3    H155196   1.484   3.620  12.010  0.2382  1.1423 -0.7530
11235TIP3    H255197   1.524   3.492  11.939  0.2182 -0.0829  1.3532
11236TIP3   OH255198   0.373   0.423  13.566  0.3204  0.1385 -0.2138
11236TIP3    H155199   0.393   0.488  13.499  0.4760 -1.3602 -1.6932
11236TIP3    H255200   0.446   0.427  13.627  0.7939  0.6770 -0.8091
11237TIP3   OH255201   4.787   1.572  12.686  0.2945 -0.8177  0.3021
11237TIP3    H155202   4.741   1.616  12.615 -0.9186 -1.9586  0.3506
11237TIP3    H255203   4.850   1.515  12.643  1.4257  0.4397  0.2275
11238TIP3   OH255204   6.027   5.417  11.351 -0.1142  0.6586 -0.2714
11238TIP3    H155205   6.102   5.428  11.292  1.3560  0.1220  1.4143
11238TIP3    H255206   6.043   5.478  11.423  0.2140 -1.3750  1.4947
11239TIP3   OH255207   0.542   5.201   1.073  0.0868 -0.4463  0.2910
11239TIP3    H155208   0.553   5.113   1.111  2.0952 -0.9702 -1.3472
11239TIP3    H255209   0.609   5.254   1.116 -2.1902  0.8536  2.5322
11240TIP3   OH255210   6.710   6.165  16.483  0.3160  0.2467 -0.6171
11240TIP3    H155211   6.786   6.142  16.430  2.4621  0.0519  2.3092
11240TIP3    H255212   6.695   6.087  16.538  0.8076  1.7777  1.8361
11241TIP3   OH255213   3.184   0.015   1.245 -0.1268 -0.1890  1.0232
11241TIP3    H155214   3.169   0.025   1.151  0.2387 -0.9120  0.8824
11241TIP3    H255215   3.202   0.104   1.276 -1.6054  0.2608  0.6641
11242TIP3   OH255216   6.506   6.477  11.483  0.0107  0.2296  0.1414
11242TIP3    H155217   6.416   6.457  11.456  0.0413 -1.1537  1.0029
11242TIP3    H255218   6.557   6.466  11.403 -0.3996 -0.2869 -0.0569
11243TIP3   OH255219   1.505   6.616  16.051 -0.2512 -0.2918 -0.1915
11243TIP3    H155220   1.599   6.601  16.051 -0.3000 -0.6634 -1.2135
11243TIP3    H255221   1.492   6.690  16.111  0.5743 -0.8700  0.7105
11244TIP3   OH255222   3.808   4.738  16.001  0.1961  0.0202 -0.2800
11244TIP3    H155223   3.766   4.779  15.926  1.4901  0.1425 -0.9518
11244TIP3    H255224   3.894   4.780  16.007  0.7993 -1.2318  0.1772
11245TIP3   OH255225   3.129   6.488  10.986  0.0559  0.1436  0.2109
11245TIP3    H155226   3.154   6.562  11.042  2.2925 -0.9120  0.7353
11245TIP3    H255227   3.094   6.423  11.047 -0.7290  0.2863 -0.0842
11246TIP3   OH255228   0.652   2.417  13.027 -0.3720 -0.4263  0.5506
11246TIP3    H155229   0.604   2.498  13.047 -1.7320 -0.4819 -2.0375
11246TIP3    H255230   0.738   2.447  12.997 -0.4908 -0.0055  0.6236
11247TIP3   OH255231   2.874   1.107   5.791  0.7705  0.7496 -0.1733
11247TIP3    H155232   2.914   1.063   5.865 -2.0249  0.4070  1.2474
11247TIP3    H255233   2.927   1.186   5.779  1.2733  0.8452  2.2395
11248TIP3   OH255234   4.185   6.744   4.582  0.4887 -0.6896 -0.1028
11248TIP3    H155235   4.191   6.671   4.644  1.6945 -0.7914 -0.3230
11248TIP3    H255236   4.097   6.735   4.544 -0.0147 -1.0172  1.0936
11249TIP3   OH255237   5.733   3.077  16.208  0.6408  0.5788  0.1851
11249TIP3    H155238   5.655   3.132  16.204 -0.8160 -1.4070 -0.7665
11249TIP3    H255239   5.798   3.123  16.154 -0.4299  1.4569 -0.3929
11250TIP3   OH255240   3.417   4.995   1.919  0.2212  0.2983  0.1683
11250TIP3    H155241   3.412   4.936   1.994 -0.2763  1.2601  0.9182
11250TIP3    H255242   3.361   4.954   1.853 -1.0095  0.4607  1.0741
11251TIP3   OH255243   1.149   1.939  12.427  0.3943  1.0084 -0.2354
11251TIP3    H155244   1.096   1.990  12.366 -0.0693  0.7097 -0.0925
11251TIP3    H255245   1.105   1.854  12.431  0.3095  1.0814  0.6443
11252TIP3   OH255246   0.205   0.463  10.885  0.9535  0.7156  0.7587
11252TIP3    H155247   0.126   0.470  10.938 -0.0582  0.9319 -0.6968
11252TIP3    H255248   0.265   0.410  10.937 -1.1928 -1.9417  0.7337
11253TIP3   OH255249   4.894   5.201  15.674 -0.7680  0.2814  0.0910
11253TIP3    H155250   4.980   5.245  15.676  1.1906 -3.2221  0.8072
11253TIP3    H255251   4.836   5.264  15.630  1.8538  3.2555  0.5078
11254TIP3   OH255252   2.805   1.589   4.672  0.2956  0.2764 -0.3677
11254TIP3    H155253   2.740   1.521   4.656  0.4279 -0.0424  0.4066
11254TIP3    H255254   2.801   1.603   4.767  1.5014  0.1087 -0.2873
11255TIP3   OH255255   3.820   3.304   2.875  0.0786  0.0517  0.6853
11255TIP3    H155256   3.783   3.282   2.961  1.2613 -0.2285  1.1418
11255TIP3    H255257   3.743   3.318   2.819 -0.7444 -2.1946  1.1461
11256TIP3   OH255258   5.820   2.851   5.195  0.2425  0.1619  0.2138
11256TIP3    H155259   5.914   2.834   5.198  0.8211  2.9522  2.0283
11256TIP3    H255260   5.780   2.765   5.208  2.4184 -1.4203 -2.4345
11257TIP3   OH255261   6.641   0.794  14.856  0.4033 -0.5175 -0.3042
11257TIP3    H155262   6.681   0.881  14.853  1.2411 -0.9090 -1.3212
11257TIP3    H255263   6.710   0.736  14.823 -0.1194 -1.5778  0.4421
11258TIP3   OH255264   1.762   4.304  17.062 -0.0141 -0.2209  0.1810
11258TIP3    H155265   1.792   4.361  17.133 -2.6608 -0.0050  1.2293
11258TIP3    H255266   1.840   4.254  17.037  1.6786  1.7555  1.2321
11259TIP3   OH255267   1.945   0.288  11.128  0.6225  0.1690 -0.4887
11259TIP3    H155268   1.921   0.240  11.049  1.2454  1.9411 -1.8243
11259TIP3    H255269   1.979   0.371  11.096 -2.2297  2.4079  1.7395
11260TIP3   OH255270   3.544   0.323   4.686 -0.1308 -0.0268 -0.2579
11260TIP3    H155271   3.553   0.228   4.696  0.1753 -0.1087 -1.1899
11260TIP3    H255272   3.459   0.343   4.726 -0.1328 -0.6662  0.0821
11261TIP3   OH255273   4.277   2.176  13.667 -0.1149  0.0288  0.6253
11261TIP3    H155274   4.270   2.145  13.757  0.3571  1.6315  1.2490
11261TIP3    H255275   4.187   2.198  13.641 -0.0623  1.1492  1.3241
11262TIP3   OH255276   0.490   2.699  10.868  0.1427 -0.1402 -0.7362
11262TIP3    H155277   0.419   2.686  10.930  1.0131  0.0902  0.3239
11262TIP3    H255278   0.479   2.789  10.837 -0.7436 -0.4977 -1.5287
11263TIP3   OH255279   2.859   6.562  13.138  0.1428  0.1945  0.4102
11263TIP3    H155280   2.779   6.606  13.110  0.1559  1.5841  2.3691
11263TIP3    H255281   2.929   6.610  13.093 -0.0355 -0.3996 -0.5358
11264TIP3   OH255282   5.322   5.218   4.207 -0.1516  0.5874  0.5305
11264TIP3    H155283   5.383   5.284   4.240  0.0761  0.6605 -0.0170
11264TIP3    H255284   5.377   5.155   4.161 -0.5578  1.0840 -0.6632
11265TIP3   OH255285   0.475   2.702  15.756 -0.0038 -0.6264  0.4423
11265TIP3    H155286   0.551   2.667  15.710  1.4184  0.2765  1.9569
11265TIP3    H255287   0.461   2.641  15.828  1.2967  0.7470  1.9707
11266TIP3   OH255288   2.162   5.871  12.942 -0.2391 -0.2667  0.2285
11266TIP3    H155289   2.256   5.855  12.933 -0.2621 -0.5359  0.4586
11266TIP3    H255290   2.148   5.956  12.902  0.0677 -0.3298 -0.0101
11267TIP3   OH255291   1.562   2.349  11.957 -0.0518 -0.4272  0.4059
11267TIP3    H155292   1.503   2.422  11.978  0.7055 -0.1033  1.4270
11267TIP3    H255293   1.503   2.275  11.942 -0.9632  0.6881 -2.2147
11268TIP3   OH255294   5.758   5.459  12.335  0.1813 -0.2057 -0.9540
11268TIP3    H155295   5.768   5.524  12.265  0.7818  0.1668 -0.5349
11268TIP3    H255296   5.718   5.507  12.407 -0.6085 -0.6339 -1.0971
11269TIP3   OH255297   0.946   2.496   2.351  0.1564 -0.2483  0.0833
11269TIP3    H155298   0.861   2.508   2.393 -0.8488 -0.1261 -1.8398
11269TIP3    H255299   1.004   2.558   2.395 -0.7238 -0.3599  1.4566
11270TIP3   OH255300   3.537   4.331  14.781 -0.6738  0.8621 -0.3644
11270TIP3    H155301   3.625   4.305  14.807 -1.4434 -1.0125  0.5809
11270TIP3    H255302   3.547   4.366  14.693  0.9657  0.2644 -0.4467
11271TIP3   OH255303   1.758   5.045   3.009  0.6933  0.1318  0.2691
11271TIP3    H155304   1.796   4.962   2.981  1.5312  0.0798  1.4825
11271TIP3    H255305   1.826   5.110   2.989  0.4950  0.3698  0.3699
11272TIP3   OH255306   4.457   1.560  11.820  0.3905  0.0190  0.3714
11272TIP3    H155307   4.464   1.612  11.740 -0.4161  1.4683  1.1996
11272TIP3    H255308   4.535   1.504  11.818  1.6777  1.7310 -0.2513
11273TIP3   OH255309   5.430   2.657   2.831 -0.2002 -0.2033 -0.6122
11273TIP3    H155310   5.394   2.595   2.895 -0.7171 -0.0544 -0.7512
11273TIP3    H255311   5.372   2.733   2.837  0.0055 -0.0206 -0.9561
11274TIP3   OH255312   3.482   4.116  14.980 -0.5259  0.2981 -0.2098
11274TIP3    H155313   3.539   4.167  14.922 -0.2652 -0.2680 -0.4624
11274TIP3    H255314   3.479   4.029  14.940 -0.3870 -0.0836  0.5965
11275TIP3   OH255315   1.565   6.193  17.085  0.6749  0.2656 -0.2786
11275TIP3    H155316   1.526   6.159  17.165 -0.7288  0.8102 -0.6926
11275TIP3    H255317   1.560   6.121  17.023  1.6098 -0.1021  0.0495
11276TIP3   OH255318   5.345   2.594  14.926 -0.0133 -0.1594  0.4215
11276TIP3    H155319   5.326   2.650  14.851 -1.0501 -2.0888 -0.8510
11276TIP3    H255320   5.259   2.571  14.961  0.3925 -0.9203  0.9498
11277TIP3   OH255321   0.695   2.817   6.633 -0.1214 -0.6928 -0.0768
11277TIP3    H155322   0.758   2.858   6.573  2.5560 -3.4036  0.6408
11277TIP3    H255323   0.749   2.766   6.693 -2.8971 -0.7584  2.6168
11278TIP3   OH255324   5.886   6.613  13.261 -0.1495 -0.3418 -0.5427
11278TIP3    H155325   5.967   6.598  13.211 -1.4754 -0.0036 -2.9446
11278TIP3    H255326   5.820   6.632  13.194 -1.4470  3.2759  1.4882
11279TIP3   OH255327   2.761   0.748  10.233  0.2227 -0.4182  0.0099
11279TIP3    H155328   2.855   0.737  10.221  0.0995 -0.9196 -0.5378
11279TIP3    H255329   2.726   0.659  10.230 -0.2700 -0.2328  0.2079
11280TIP3   OH255330   6.454   1.336  11.205  0.1910  0.0156  0.5086
11280TIP3    H155331   6.389   1.313  11.140  0.9700 -1.6541  0.2682
11280TIP3    H255332   6.452   1.432  11.209 -0.2290  0.1376 -1.5849
11281TIP3   OH255333   5.602   4.371   0.571 -0.0668 -0.0079 -0.1869
11281TIP3    H155334   5.536   4.338   0.631  0.8603  1.3119  1.6682
11281TIP3    H255335   5.556   4.436   0.518 -0.6499 -0.3755 -0.1389
11282TIP3   OH255336   5.862   1.796  11.240  0.0890  0.5439 -0.3606
11282TIP3    H155337   5.893   1.713  11.276  2.0360  1.1677 -0.4403
11282TIP3    H255338   5.871   1.786  11.145 -0.3689  0.5933 -0.4095
11283TIP3   OH255339   0.849   0.428  15.043 -0.0687 -0.1209 -0.3211
11283TIP3    H155340   0.804   0.471  15.115 -0.4631  0.1561 -0.7295
11283TIP3    H255341   0.942   0.436  15.064 -0.1203  1.2556 -0.5799
11284TIP3   OH255342   6.140   3.706  16.505 -0.1789  0.0591  0.1582
11284TIP3    H155343   6.083   3.687  16.579 -0.7865  2.8625  0.5265
11284TIP3    H255344   6.191   3.782  16.532  0.7915  0.1324 -1.6866
11285TIP3   OH255345   3.430   2.420  14.305 -0.2182  0.3857  0.2329
11285TIP3    H155346   3.467   2.507  14.318  0.8169  0.1539 -0.9363
11285TIP3    H255347   3.424   2.383  14.393 -1.3778  1.8988  0.8228
11286TIP3   OH255348   1.466   6.800  16.573 -0.0883 -0.1924 -0.1722
11286TIP3    H155349   1.511   6.732  16.522 -1.8408 -0.6902 -1.1522
11286TIP3    H255350   1.390   6.755  16.611 -0.8821  1.0337 -0.2468
11287TIP3   OH255351   2.906   1.552   5.720  0.0349  0.2893 -0.3700
11287TIP3    H155352   2.903   1.627   5.779 -0.1675  0.4164 -0.5405
11287TIP3    H255353   2.833   1.566   5.660 -1.1679 -1.0033  0.7445
11288TIP3   OH255354   4.344   0.919  11.243 -0.3914  0.1362  0.2418
11288TIP3    H155355   4.382   0.863  11.311  0.9675  1.3115  0.4961
11288TIP3    H255356   4.365   0.874  11.161 -1.8046 -1.1518  0.5323
11289TIP3   OH255357   2.654   2.037  16.372 -0.4748  0.7922 -0.1528
11289TIP3    H155358   2.690   2.042  16.461  1.3985  1.3966 -0.8987
11289TIP3    H255359   2.689   2.115  16.328  0.0077 -0.3632 -1.9035
11290TIP3   OH255360   4.992   3.559   5.769 -0.0180 -0.9784  0.3287
11290TIP3    H155361   5.087   3.569   5.761  0.0262  0.9081  2.2660
11290TIP3    H255362   4.957   3.613   5.698  0.3796 -0.0866  0.7934
11291TIP3   OH255363   0.690   4.558   5.129 -0.0825  0.1805  0.2020
11291TIP3    H155364   0.747   4.527   5.059  0.4471  0.3757  0.5423
11291TIP3    H255365   0.660   4.478   5.173  0.1666  0.0923  0.2089
11292TIP3   OH255366   3.643   6.099  17.045  0.2394  0.4969  0.2459
11292TIP3    H155367   3.638   6.004  17.033 -2.2188  0.7912 -2.0412
11292TIP3    H255368   3.716   6.127  16.990 -0.7679  0.1129 -1.3828
11293TIP3   OH255369   2.382   1.240   1.907 -0.1298  0.3336 -0.1871
11293TIP3    H155370   2.401   1.172   1.842  1.6462  0.9610 -0.4009
11293TIP3    H255371   2.456   1.300   1.900 -0.9524  1.5329  0.9857
11294TIP3   OH255372   5.445   1.224  14.263  0.1619  0.2225  0.2050
11294TIP3    H155373   5.477   1.270  14.186 -0.3232  0.6623  0.2610
11294TIP3    H255374   5.467   1.132  14.247  0.1326  0.3208 -0.4240
11295TIP3   OH255375   5.562   4.154   2.105  0.4073  0.1275 -0.3999
11295TIP3    H155376   5.548   4.088   2.038 -0.2071  0.2925 -0.4421
11295TIP3    H255377   5.610   4.224   2.061 -1.7275  1.1454 -1.2483
11296TIP3   OH255378   5.048   1.387  11.005 -0.1319  0.2892 -0.0646
11296TIP3    H155379   5.028   1.478  10.982 -2.6463  0.0229  0.7522
11296TIP3    H255380   5.060   1.389  11.100  1.0173 -0.0768 -0.1834
11297TIP3   OH255381   2.455   5.560   1.460  0.1559 -0.4243  0.0931
11297TIP3    H155382   2.371   5.523   1.488 -1.0081  0.6965 -1.6991
11297TIP3    H255383   2.438   5.595   1.373  1.7043  2.3492  0.7618
11298TIP3   OH255384   0.209   2.732  13.511  0.3957 -0.5909 -0.0083
11298TIP3    H155385   0.184   2.699  13.597 -0.0035 -1.5515 -0.4798
11298TIP3    H255386   0.172   2.821  13.507  1.0779 -0.2482  1.0937
11299TIP3   OH255387   6.422   1.187  16.467  0.1599 -0.0112  0.0342
11299TIP3    H155388   6.380   1.161  16.385  1.0758  1.7175 -1.0374
11299TIP3    H255389   6.452   1.277  16.452  1.3834 -0.0505  1.8741
11300TIP3   OH255390   0.266   5.406  14.013 -0.4225 -0.2759  0.2697
11300TIP3    H155391   0.174   5.380  14.009 -0.8116  1.0492 -0.0027
11300TIP3    H255392   0.271   5.465  14.088  0.1973 -0.2977  0.2504
11301TIP3   OH255393   5.760   6.617  14.384  0.5358 -0.3399  0.5561
11301TIP3    H155394   5.765   6.684  14.452  1.0325  0.1614  0.0378
11301TIP3    H255395   5.832   6.556  14.405  0.3595 -0.4712  0.7777
11302TIP3   OH255396   3.684   0.536   0.367  0.3780  0.1234 -0.6487
11302TIP3    H155397   3.757   0.503   0.315  0.2188 -0.2036 -0.6725
11302TIP3    H255398   3.681   0.478   0.443  0.1799  0.1675 -0.6216
11303TIP3   OH255399   2.164   0.476  14.054  0.5682  1.1308 -0.0568
11303TIP3    H155400   2.127   0.478  13.966 -0.9910  0.2784  0.5517
11303TIP3    H255401   2.257   0.458  14.039  0.2294  0.3475 -1.5178
11304TIP3   OH255402   1.652   5.207  14.042  0.0267  0.9651  0.0510
11304TIP3    H155403   1.644   5.261  14.121 -0.0420  2.9466 -1.2587
11304TIP3    H255404   1.724   5.247  13.993 -0.9016  0.6694 -1.5918
11305TIP3   OH255405   1.865   2.089  16.978 -0.1888  0.5266 -0.3952
11305TIP3    H155406   1.877   2.177  17.014  0.0660  0.2864  0.1198
11305TIP3    H255407   1.944   2.041  17.005 -0.9032 -0.2170  0.4286
11306TIP3   OH255408   4.152   4.826   5.325  0.1840 -0.2495 -0.1880
11306TIP3    H155409   4.206   4.854   5.252  1.3488 -0.3090  0.6236
11306TIP3    H255410   4.214   4.797   5.392 -0.8961 -1.7499  0.2241
11307TIP3   OH255411   2.511   6.058  14.510 -0.5416  0.1659 -0.1235
11307TIP3    H155412   2.553   6.081  14.427  0.1302  2.1006  0.7016
11307TIP3    H255413   2.420   6.085  14.500 -1.3317 -2.5661 -1.3282
11308TIP3   OH255414   1.403   4.988   3.507  0.0696  0.5735 -0.0073
11308TIP3    H155415   1.400   4.913   3.567  0.3801  1.2587  0.8740
11308TIP3    H255416   1.472   5.044   3.542 -1.2176  2.0453  0.2637
11309TIP3   OH255417   2.182   5.782   1.814  0.1244 -0.3256 -0.3073
11309TIP3    H155418   2.201   5.815   1.727 -1.5601  0.3183 -0.4527
11309TIP3    H255419   2.174   5.860   1.869 -0.3999 -0.6430  0.0798
11310TIP3   OH255420   2.122   4.604   3.664 -0.2111 -0.0312  0.1027
11310TIP3    H155421   2.137   4.695   3.691  0.7320 -0.4408  1.0420
11310TIP3    H255422   2.118   4.555   3.746 -1.0520 -0.7992 -0.3821
11311TIP3   OH255423   1.462   6.409  14.197 -0.2926 -0.2646 -0.0603
11311TIP3    H155424   1.372   6.435  14.175  0.2822  0.8128 -1.3010
11311TIP3    H255425   1.506   6.491  14.218  1.3076 -0.2264 -3.0498
11312TIP3   OH255426   3.833   0.976  12.403 -0.9580  0.8365 -0.2949
11312TIP3    H155427   3.881   0.935  12.332 -1.3411 -0.1826  0.0143
11312TIP3    H255428   3.829   1.069  12.379 -1.2851  0.4823 -1.7110
11313TIP3   OH255429   2.706   5.157  16.100 -0.7070  0.2086 -0.9019
11313TIP3    H155430   2.619   5.150  16.059 -0.6410 -1.6564 -0.8049
11313TIP3    H255431   2.707   5.087  16.165  0.5660  0.7738 -0.2935
11314TIP3   OH255432   6.737   6.594   3.816 -0.2065 -0.2172  0.0270
11314TIP3    H155433   6.769   6.684   3.815  0.0475 -0.3083  0.0442
11314TIP3    H255434   6.743   6.566   3.908  0.9358 -0.6901 -0.1804
11315TIP3   OH255435   2.789   2.001  13.911 -0.3259 -0.2352  0.5521
11315TIP3    H155436   2.725   2.026  13.844 -0.0196  0.1547  0.4027
11315TIP3    H255437   2.769   2.057  13.985  0.3549  0.4662  0.2196
11316TIP3   OH255438   3.650   0.767   4.115 -0.2589  0.2869 -0.1122
11316TIP3    H155439   3.576   0.811   4.073  1.6380  2.1177 -1.8237
11316TIP3    H255440   3.653   0.681   4.074  0.7489  1.5567 -3.0281
11317TIP3   OH255441   2.178   3.509  14.021  0.5921  0.2520 -0.6093
11317TIP3    H155442   2.189   3.604  14.014  0.9507  0.1144 -2.9853
11317TIP3    H255443   2.235   3.474  13.952 -0.6408 -1.6026 -0.7502
11318TIP3   OH255444   5.897   0.080   0.223  0.0739 -0.5542  0.4912
11318TIP3    H155445   5.962   0.015   0.196  0.7853 -0.0573  0.9692
11318TIP3    H255446   5.879   0.059   0.314  1.5665  0.9063  1.1683
11319TIP3   OH255447   2.857   0.377   2.940 -0.0712 -0.2910 -0.5816
11319TIP3    H155448   2.790   0.385   2.873 -1.4043 -0.1107  0.7267
11319TIP3    H255449   2.891   0.466   2.951 -0.0306 -0.2762 -0.8316
11320TIP3   OH255450   0.117   2.928  16.300 -0.0837  0.2794  0.6428
11320TIP3    H155451   0.185   2.914  16.366  2.6323 -0.4968 -2.0924
11320TIP3    H255452   0.042   2.959  16.350  1.9587  0.3691  3.9912
11321TIP3   OH255453   3.116   4.967  13.574 -0.1321  0.4621  0.4308
11321TIP3    H155454   3.188   5.021  13.608  0.2909  1.1124 -1.3940
11321TIP3    H255455   3.159   4.896  13.526 -0.7098 -0.1783  0.8378
11322TIP3   OH255456   6.063   2.209  14.513 -0.1078  0.3713  0.5118
11322TIP3    H155457   6.055   2.154  14.435 -1.8172 -1.5010  1.9120
11322TIP3    H255458   6.148   2.184  14.550 -1.2291 -2.1059  1.6024
11323TIP3   OH255459   3.902   1.160  11.282  0.5803  0.1044 -0.6814
11323TIP3    H155460   3.818   1.205  11.292 -0.0386 -1.4532  1.9103
11323TIP3    H255461   3.882   1.081  11.233  0.5785 -0.1342 -0.2990
11324TIP3   OH255462   1.996   5.763  13.154  0.2455  0.3393 -0.1917
11324TIP3    H155463   1.971   5.848  13.192 -1.8699 -0.0766 -0.4876
11324TIP3    H255464   2.037   5.786  13.071  0.1183  1.0878 -0.0620
11325TIP3   OH255465   6.413   0.498   0.044  0.0690 -0.2734  0.3412
11325TIP3    H155466   6.388   0.477   0.134  1.0817 -1.1152  0.4491
11325TIP3    H255467   6.491   0.553   0.052  0.8329 -1.2580 -0.0005
11326TIP3   OH255468   6.512   5.948  13.263  0.6577 -0.7316 -0.0904
11326TIP3    H155469   6.535   6.030  13.220  2.5867 -1.2539 -0.1506
11326TIP3    H255470   6.490   5.973  13.353  3.8395 -0.3268  0.6904
11327TIP3   OH255471   1.556   1.144   2.007 -0.4188  0.1718  0.0744
11327TIP3    H155472   1.651   1.159   2.009 -0.5015  0.7034  0.1785
11327TIP3    H255473   1.543   1.079   1.937 -0.0399  0.5689 -0.3696
11328TIP3   OH255474   5.457   4.061  13.750 -0.1649  0.4985 -0.0331
11328TIP3    H155475   5.384   4.035  13.806 -2.0561  0.8912 -2.1887
11328TIP3    H255476   5.482   3.982  13.703 -2.3228  1.2057 -2.6091
11329TIP3   OH255477   0.667   6.718   3.963  0.6971  0.2324 -0.2636
11329TIP3    H155478   0.650   6.777   4.036 -0.1510  0.3987 -0.5897
11329TIP3    H255479   0.728   6.767   3.907  2.1342 -0.2755  0.7870
11330TIP3   OH255480   0.788   5.987   0.350  0.2722  0.6272 -0.3248
11330TIP3    H155481   0.785   5.956   0.260 -0.4914  1.8472 -0.7484
11330TIP3    H255482   0.850   6.060   0.349  0.1797  0.7193  0.1178
11331TIP3   OH255483   6.573   5.299  13.910 -0.2162 -0.1769 -0.2715
11331TIP3    H155484   6.559   5.214  13.870  0.5258 -0.1625 -0.5802
11331TIP3    H255485   6.579   5.360  13.837  1.7563 -0.2397 -0.2206
11332TIP3   OH255486   5.435   0.091   4.985  0.0107 -0.3122  0.2847
11332TIP3    H155487   5.502   0.159   4.988  0.1315 -0.4362  0.3906
11332TIP3    H255488   5.391   0.105   4.901  2.2962 -2.2302 -1.3609
11333TIP3   OH255489   5.226   2.098  15.927 -0.0357  0.0778  0.1322
11333TIP3    H155490   5.245   2.170  15.987  1.6247  0.3659 -0.6825
11333TIP3    H255491   5.206   2.141  15.844  1.6336 -0.3750 -0.5392
11334TIP3   OH255492   3.447   4.943   3.132  0.3725  0.9868  0.0803
11334TIP3    H155493   3.355   4.955   3.107  0.3777  0.5039 -0.1908
11334TIP3    H255494   3.474   5.028   3.166 -0.9710  0.4664  2.7348
11335TIP3   OH255495   0.267   6.700  12.641 -0.5084  0.1229  0.2584
11335TIP3    H155496   0.205   6.627  12.647 -1.0373  0.6011  0.7868
11335TIP3    H255497   0.224   6.771  12.689 -0.2959  0.9896 -0.8005
11336TIP3   OH255498   3.838   1.150  16.708 -0.0674 -0.8286  0.1451
11336TIP3    H155499   3.836   1.133  16.802  1.9066 -0.0950  0.3832
11336TIP3    H255500   3.824   1.065  16.667  1.0662 -1.5362  1.1593
11337TIP3   OH255501   3.883   4.660   1.184  0.6982 -0.1086 -0.1500
11337TIP3    H155502   3.891   4.615   1.268 -0.6601  3.0998  1.8856
11337TIP3    H255503   3.954   4.624   1.130  0.1671 -3.9594  1.4519
11338TIP3   OH255504   6.236   4.743  14.538  0.2914 -0.3455 -0.0247
11338TIP3    H155505   6.156   4.696  14.559 -0.3560 -0.5363 -2.5370
11338TIP3    H255506   6.248   4.805  14.610 -1.0618 -1.5831  1.3177
11339TIP3   OH255507   2.749   6.401   4.021  0.0031  0.0521 -0.2345
11339TIP3    H155508   2.772   6.308   4.026 -2.8059 -0.7414 -0.2079
11339TIP3    H255509   2.664   6.403   3.977 -0.4069  2.5328  0.4756
11340TIP3   OH255510   4.724   3.108   2.701 -0.5466 -0.4571  0.6400
11340TIP3    H155511   4.699   3.195   2.670  0.0574 -0.1332  1.0388
11340TIP3    H255512   4.642   3.058   2.701 -0.9894  0.2568  0.8989
11341TIP3   OH255513   3.612   4.926   5.007  0.8652 -0.0536 -0.3641
11341TIP3    H155514   3.526   4.967   5.010  0.7324 -0.3820  0.5571
11341TIP3    H255515   3.601   4.842   5.053  1.2380 -0.9376 -1.8120
11342TIP3   OH255516   3.047   1.436  10.804 -0.6792 -0.2088  0.4115
11342TIP3    H155517   3.052   1.408  10.895  1.7843 -2.8006 -0.3901
11342TIP3    H255518   2.962   1.480  10.797 -1.8452 -1.7004  3.4597
11343TIP3   OH255519   2.236   2.932  16.981  0.4677  0.5490 -0.4797
11343TIP3    H155520   2.202   2.847  17.009  0.9651  0.3362 -0.5183
11343TIP3    H255521   2.178   2.996  17.024 -0.1763  0.1920 -0.8002
11344TIP3   OH255522   2.970   3.886   1.719 -0.4879 -0.1079  0.0079
11344TIP3    H155523   3.063   3.884   1.694 -0.2469  0.5323  0.8268
11344TIP3    H255524   2.926   3.926   1.643 -0.1522 -0.7231 -0.5221
11345TIP3   OH255525   0.578   4.769   6.294  0.2719 -0.5956 -0.1944
11345TIP3    H155526   0.634   4.706   6.339 -0.8670 -0.8423  0.9421
11345TIP3    H255527   0.596   4.852   6.339 -0.6998 -0.7962  0.5811
11346TIP3   OH255528   4.833   2.298  11.652 -0.2341 -0.3693  1.5925
11346TIP3    H155529   4.871   2.374  11.610 -1.5071 -0.2878  0.5235
11346TIP3    H255530   4.907   2.239  11.668  0.3869 -0.1161 -0.1787
11347TIP3   OH255531   4.499   3.490  16.832 -0.2665  0.4927 -0.0249
11347TIP3    H155532   4.548   3.494  16.750  1.0959 -1.9088  0.5908
11347TIP3    H255533   4.475   3.581  16.850  1.6705  1.4124 -1.7279
11348TIP3   OH255534   6.620   2.352   5.718 -0.4152 -0.0248 -0.4604
11348TIP3    H155535   6.543   2.315   5.761 -1.4378  1.9462 -0.4305
11348TIP3    H255536   6.637   2.434   5.766  0.1145  0.8426 -2.0552
11349TIP3   OH255537   5.605   5.172  16.290 -0.5055 -0.4222 -0.0461
11349TIP3    H155538   5.627   5.085  16.322 -0.0768 -0.4169 -0.3301
11349TIP3    H255539   5.677   5.228  16.319 -1.1176 -0.0212  0.7412
11350TIP3   OH255540   2.109   5.591   1.987 -0.8593 -0.5234 -0.2817
11350TIP3    H155541   2.134   5.666   1.935 -1.0210  0.4319  0.9600
11350TIP3    H255542   2.046   5.626   2.051  1.6827 -0.8497  2.6750
11351TIP3   OH255543   1.118   2.306   1.150  0.3119 -0.0476  0.3950
11351TIP3    H155544   1.140   2.214   1.137  0.0808 -0.0543  0.0181
11351TIP3    H255545   1.026   2.312   1.125  0.5728  0.4603 -0.5172
11352TIP3   OH255546   1.337   1.842   0.489 -0.0915  0.4157 -0.2083
11352TIP3    H155547   1.324   1.853   0.583 -0.1948 -0.5185 -0.0988
11352TIP3    H255548   1.427   1.871   0.473 -0.0784  0.5843  0.1760
11353TIP3   OH255549   3.330   1.010  11.328  0.2619 -0.2873 -0.3651
11353TIP3    H155550   3.405   0.952  11.337  0.8901  0.3736 -1.2269
11353TIP3    H255551   3.304   1.030  11.418  0.4643 -1.3343 -0.0612
11354TIP3   OH255552   0.155   5.649   0.669  0.3462  0.1667 -1.1996
11354TIP3    H155553   0.131   5.741   0.667  0.6089  0.4878  2.6915
11354TIP3    H255554   0.072   5.602   0.661 -0.1717  0.8633 -0.1265
11355TIP3   OH255555   0.772   4.094   5.165 -0.0463 -0.5864 -0.2725
11355TIP3    H155556   0.842   4.142   5.121  0.5219 -0.4268  0.7616
11355TIP3    H255557   0.710   4.161   5.193 -0.0456 -0.6133 -0.2048
11356TIP3   OH255558   4.702   4.735  14.375 -0.4257 -0.3615 -0.1838
11356TIP3    H155559   4.732   4.680  14.448  1.7137 -0.0876 -0.7868
11356TIP3    H255560   4.726   4.686  14.297 -0.6978  0.3406 -0.7133
11357TIP3   OH255561   1.577   6.250   2.084 -0.0088  0.2259  0.3278
11357TIP3    H155562   1.612   6.310   2.150  1.2707 -1.2907  1.0880
11357TIP3    H255563   1.519   6.192   2.133 -0.8053  0.4827 -0.2967
11358TIP3   OH255564   6.762   0.284   4.896 -0.0159  0.3370  0.0945
11358TIP3    H155565   6.825   0.212   4.899  0.3616  0.6955  2.0986
11358TIP3    H255566   6.734   0.295   4.987 -2.0457  1.0227 -0.5582
11359TIP3   OH255567   1.523   2.482   0.502  0.4510 -0.6221  0.0388
11359TIP3    H155568   1.429   2.486   0.487  0.5496 -1.7445 -1.0003
11359TIP3    H255569   1.532   2.453   0.593 -0.1894 -0.1288  0.2659
11360TIP3   OH255570   1.698   1.487   2.045 -0.3842  0.1638  0.3393
11360TIP3    H155571   1.636   1.487   1.973  1.4346 -0.0951 -1.3222
11360TIP3    H255572   1.775   1.532   2.011  0.4610  0.2448  2.2035
11361TIP3   OH255573   6.779   2.021   2.317  0.3218 -0.1400 -0.5214
11361TIP3    H155574   6.716   2.048   2.251  0.1713  1.2006  0.1410
11361TIP3    H255575   6.792   1.927   2.301 -1.8255 -0.4466 -0.6635
11362TIP3   OH255576   0.104   1.072   3.614  0.2496 -1.1084  1.0199
11362TIP3    H155577   0.133   1.001   3.557  0.1430 -0.2558 -0.1349
11362TIP3    H255578   0.167   1.142   3.598 -1.4644  0.2174 -0.3518
11363TIP3   OH255579   1.361   6.291  15.501  0.2415  0.0454  0.3960
11363TIP3    H155580   1.429   6.266  15.564  3.4298 -0.9673 -3.1141
11363TIP3    H255581   1.373   6.385  15.489  1.1893 -0.1603 -0.3379
11364TIP3   OH255582   6.484   6.285  11.058 -0.2813  0.5001  0.2327
11364TIP3    H155583   6.506   6.327  10.975  0.0100  0.6813  0.4022
11364TIP3    H255584   6.476   6.192  11.037 -1.7328  0.7204 -0.3171
11365TIP3   OH255585   3.600   6.617  16.398 -0.2206  0.3734  0.1548
11365TIP3    H155586   3.655   6.540  16.383 -1.5869 -1.1253  2.2894
11365TIP3    H255587   3.630   6.652  16.482  1.2642  3.0840 -1.3497
11366TIP3   OH255588   2.169   3.899  15.421 -0.8543  0.1297  0.2301
11366TIP3    H155589   2.129   3.835  15.361 -1.0668  1.0317 -0.6187
11366TIP3    H255590   2.191   3.974  15.365  0.2699  0.4250  1.0315
11367TIP3   OH255591   4.758   0.214  13.756 -0.2750 -0.2992 -0.0440
11367TIP3    H155592   4.759   0.309  13.753  1.2952 -0.0158  3.8189
11367TIP3    H255593   4.849   0.188  13.742 -0.6827 -1.2812 -1.0573
11368TIP3   OH255594   5.567   1.531   2.705 -0.1607 -0.0678 -0.9852
11368TIP3    H155595   5.510   1.497   2.774 -1.1571 -0.2336 -1.8703
11368TIP3    H255596   5.520   1.514   2.624  1.9988 -2.0072 -1.9574
11369TIP3   OH255597   1.569   1.301   2.232  0.3250  0.3542  0.1223
11369TIP3    H155598   1.554   1.233   2.167  1.4888 -0.0931  0.2985
11369TIP3    H255599   1.614   1.371   2.184  0.0185  0.5808  0.1614
11370TIP3   OH255600   5.805   5.811  16.012 -0.2476 -0.2525 -0.5145
11370TIP3    H155601   5.729   5.763  16.045  0.0188  0.0162  0.5399
11370TIP3    H255602   5.842   5.753  15.945 -0.4732 -1.1176  0.0781
11371TIP3   OH255603   3.279   2.173   2.315 -0.1625  0.6349 -0.3402
11371TIP3    H155604   3.293   2.144   2.224 -0.4610 -1.6033  0.2564
11371TIP3    H255605   3.354   2.228   2.335  1.6875 -1.5011 -0.9591
11372TIP3   OH255606   5.118   6.727  15.498 -0.2367  0.0614  0.3973
11372TIP3    H155607   5.024   6.718  15.516 -0.0070  0.2048  1.7599
11372TIP3    H255608   5.155   6.642  15.524 -0.1763 -0.6281 -1.7174
11373TIP3   OH255609   5.126   0.473  12.621  0.4082  0.2816  0.5626
11373TIP3    H155610   5.102   0.434  12.705  0.2887 -0.4931  0.1803
11373TIP3    H255611   5.083   0.558  12.621  1.8596  1.0668  2.0264
11374TIP3   OH255612   5.443   3.155   0.191  0.0134 -0.1797  0.0135
11374TIP3    H155613   5.503   3.223   0.218 -0.0368 -0.2240  0.2422
11374TIP3    H255614   5.368   3.202   0.154  0.0594 -0.1168  0.0007
11375TIP3   OH255615   1.951   3.670   0.228  0.3351 -0.8678 -0.3216
11375TIP3    H155616   1.887   3.654   0.298 -1.8087  0.8338 -1.7579
11375TIP3    H255617   1.918   3.619   0.154  1.3296 -0.8996 -0.7459
11376TIP3   OH255618   0.906   1.165  11.092  0.3299 -0.0222 -0.2699
11376TIP3    H155619   0.952   1.098  11.041 -0.8369  0.9587 -2.7609
11376TIP3    H255620   0.864   1.220  11.027 -1.1044  1.4735  1.7972
11377TIP3   OH255621   4.757   2.504   0.728  0.5097 -0.4051 -0.3513
11377TIP3    H155622   4.787   2.414   0.713 -3.5882 -1.9536 -0.6405
11377TIP3    H255623   4.787   2.553   0.651  0.9314 -2.1310 -1.3398
11378TIP3   OH255624   6.443   2.927   4.271 -0.4444 -0.2600 -0.4130
11378TIP3    H155625   6.445   3.022   4.262  1.1317 -0.2833 -0.5691
11378TIP3    H255626   6.354   2.907   4.300 -0.2385  1.4305  1.6178
11379TIP3   OH255627   2.080   4.361   4.106  0.2599 -0.0791 -0.3029
11379TIP3    H155628   1.995   4.385   4.070 -0.0942 -3.3440 -2.0601
11379TIP3    H255629   2.061   4.332   4.195 -0.1896  0.6000 -0.1702
11380TIP3   OH255630   3.493   0.525  12.023  0.5372 -0.4438  0.9410
11380TIP3    H155631   3.425   0.470  11.985  0.5599  0.3436 -0.3041
11380TIP3    H255632   3.447   0.603  12.053  0.8607 -0.0098  0.3097
11381TIP3   OH255633   3.861   0.876   5.535 -0.1741 -0.3201  0.1951
11381TIP3    H155634   3.918   0.829   5.596 -0.0020 -0.6945 -0.2524
11381TIP3    H255635   3.838   0.812   5.469 -0.4404  0.0608 -0.0853
11382TIP3   OH255636   2.801   5.901   2.284  0.2767  0.1676 -0.6791
11382TIP3    H155637   2.848   5.983   2.299  0.1585 -0.0066  0.8293
11382TIP3    H255638   2.869   5.834   2.284  0.3626  0.2282 -1.8188
11383TIP3   OH255639   4.636   6.184  16.239 -0.3443  0.0483  0.2046
11383TIP3    H155640   4.713   6.224  16.197  0.0954 -1.0002 -0.0091
11383TIP3    H255641   4.564   6.244  16.220  0.1870  0.4414 -0.5995
11384TIP3   OH255642   5.370   1.240   5.382 -0.1443 -0.1940  0.5631
11384TIP3    H155643   5.456   1.252   5.341 -0.9369 -3.0378 -2.3758
11384TIP3    H255644   5.384   1.173   5.449  0.2627  0.9401  1.6489
11385TIP3   OH255645   5.563   0.004   4.738 -0.8647 -0.0824 -0.4591
11385TIP3    H155646   5.610   0.087   4.745 -0.8960 -0.0738 -0.3446
11385TIP3    H255647   5.546  -0.021   4.829 -2.1725  0.5426 -0.5074
11386TIP3   OH255648   3.915   3.237   2.185  0.4144  0.2204  0.0985
11386TIP3    H155649   3.826   3.215   2.213  0.1211  1.2959  0.0555
11386TIP3    H255650   3.905   3.319   2.136  1.3482  0.0162 -0.4625
11387TIP3   OH255651   0.805   5.752   5.314 -0.2519 -0.1553  0.8841
11387TIP3    H155652   0.848   5.678   5.272  0.2826  0.0484  1.0698
11387TIP3    H255653   0.842   5.754   5.403  1.2478  1.5606  0.2678
11388TIP3   OH255654   3.811   3.691   3.020 -0.5316 -0.1293 -0.1651
11388TIP3    H155655   3.758   3.768   3.043  1.4648  0.5038  2.8200
11388TIP3    H255656   3.782   3.623   3.081  0.7406 -0.3455  0.2232
11389TIP3   OH255657   5.699   1.990  11.638  0.1089  0.6993  0.1868
11389TIP3    H155658   5.675   2.028  11.723 -0.2208 -0.9759  0.8918
11389TIP3    H255659   5.616   1.957  11.603  0.2749  1.2196 -0.7170
11390TIP3   OH255660   0.123   1.623  15.850 -0.2930 -0.0447 -0.0075
11390TIP3    H155661   0.176   1.550  15.883 -0.0518  0.2927  0.3731
11390TIP3    H255662   0.100   1.598  15.761  0.1826 -0.3800 -0.0417
11391TIP3   OH255663   4.672   1.416  15.009  0.1636  0.6662 -0.1524
11391TIP3    H155664   4.637   1.488  14.957 -2.3387 -0.9540 -0.9223
11391TIP3    H255665   4.637   1.429  15.097  0.3386  0.8093 -0.1047
11392TIP3   OH255666   3.969   0.636   4.212  0.4960  0.5502  0.1723
11392TIP3    H155667   3.949   0.720   4.254  1.5785  0.7810  0.2716
11392TIP3    H255668   3.970   0.573   4.284  0.2263  0.5475  0.1764
11393TIP3   OH255669   2.704   0.647  15.715  0.0609 -0.6667  0.6662
11393TIP3    H155670   2.679   0.567  15.670 -1.9348  0.2041  0.1248
11393TIP3    H255671   2.773   0.685  15.660  0.7268 -1.7635  0.7096
11394TIP3   OH255672   6.370   6.589  11.718 -0.0929  0.2365  0.6777
11394TIP3    H155673   6.424   6.580  11.640  0.4570  1.7376  0.8515
11394TIP3    H255674   6.321   6.670  11.705 -1.0441 -0.2225  1.2829
11395TIP3   OH255675   0.905   0.494   0.726 -0.4765 -0.1577 -0.3986
11395TIP3    H155676   0.972   0.558   0.701  0.8256 -1.1000  0.5750
11395TIP3    H255677   0.855   0.479   0.646  0.6796  0.3273 -1.2350
11396TIP3   OH255678   6.138   4.607  14.238  0.2966  0.0127 -0.2056
11396TIP3    H155679   6.211   4.668  14.225  0.2974  0.0357 -0.0993
11396TIP3    H255680   6.136   4.554  14.159  0.0919  0.3644 -0.4403
11397TIP3   OH255681   4.062   6.736   3.991 -0.2041  0.1934  0.0560
11397TIP3    H155682   4.140   6.714   4.042 -0.4182  2.6447  1.6138
11397TIP3    H255683   4.079   6.825   3.960 -2.0624  0.4783 -0.2364
11398TIP3   OH255684   0.864   2.097   6.167  0.6645 -0.6603  0.0775
11398TIP3    H155685   0.855   2.057   6.253  1.8233  1.3718  1.2227
11398TIP3    H255686   0.956   2.122   6.162  0.1606  1.1692 -0.8341
11399TIP3   OH255687   5.601   3.862  15.020  0.1480 -0.3164  0.1867
11399TIP3    H155688   5.675   3.809  15.051 -0.3734 -1.6593 -0.7514
11399TIP3    H255689   5.641   3.935  14.973  0.8987 -1.4815 -1.0498
11400TIP3   OH255690   0.254   5.538   1.450  0.4222 -0.0966 -0.6244
11400TIP3    H155691   0.263   5.632   1.468  1.6344 -0.4000  0.5685
11400TIP3    H255692   0.188   5.532   1.381 -0.4781  1.5514  0.0515
11401TIP3   OH255693   2.309   3.439   6.395  0.4057 -0.5914 -0.1872
11401TIP3    H155694   2.274   3.497   6.327 -0.9782 -0.5583  0.5161
11401TIP3    H255695   2.383   3.487   6.432 -0.1628  0.3473 -0.2185
11402TIP3   OH255696   1.718   1.668  14.617 -1.2225  0.7174  0.0065
11402TIP3    H155697   1.732   1.760  14.641  1.5886  0.1581  0.9073
11402TIP3    H255698   1.774   1.655  14.540  2.4374 -1.2937  2.7087
11403TIP3   OH255699   3.816   6.379  10.700  0.0740 -0.5617 -0.0455
11403TIP3    H155700   3.732   6.337  10.684 -0.2018  0.2184 -0.7321
11403TIP3    H255701   3.799   6.441  10.771 -0.7866  1.8887 -2.2152
11404TIP3   OH255702   0.235   3.409   1.760 -0.5751  0.4071  0.3975
11404TIP3    H155703   0.244   3.412   1.855 -1.4214  1.7839  0.4728
11404TIP3    H255704   0.158   3.464   1.742  0.4027  1.3394 -1.1671
11405TIP3   OH255705   1.336   4.131   2.068 -0.1002 -0.4701 -0.0334
11405TIP3    H155706   1.378   4.160   1.987 -0.3244 -1.6030 -0.5783
11405TIP3    H255707   1.400   4.150   2.136 -0.4021  1.6279 -0.2880
11406TIP3   OH255708   3.383   0.168  12.589 -0.1963  0.2410  0.1626
11406TIP3    H155709   3.301   0.146  12.545 -0.3857  1.0221  0.1036
11406TIP3    H255710   3.362   0.248  12.638  0.5644  0.5101  0.0538
11407TIP3   OH255711   6.560   1.723  16.835 -0.4827  0.3369  0.3126
11407TIP3    H155712   6.470   1.724  16.800 -1.2587  1.2137  2.2130
11407TIP3    H255713   6.602   1.799  16.796 -1.0557  0.8002  0.5902
11408TIP3   OH255714   1.989   0.389   0.038 -0.8225 -0.4686 -0.4597
11408TIP3    H155715   1.905   0.357   0.004 -1.0419  1.1799 -1.5846
11408TIP3    H255716   2.051   0.374  -0.033 -0.3233 -0.9649  0.0750
11409TIP3   OH255717   1.071   0.898   3.231  0.3321  0.3614  0.1676
11409TIP3    H155718   1.119   0.823   3.196  1.7727  1.1010  0.4417
11409TIP3    H255719   1.067   0.883   3.325 -0.5595 -0.0037  0.0774
11410TIP3   OH255720   2.148   4.996  15.617 -0.5133  0.4345  0.3346
11410TIP3    H155721   2.081   5.015  15.551  1.4628  1.2070 -1.5603
11410TIP3    H255722   2.201   5.076  15.621  1.8549 -0.9957 -0.1969
11411TIP3   OH255723   0.443   5.599   0.025 -0.2826  0.2791 -0.4548
11411TIP3    H155724   0.427   5.591   0.119  0.2008  0.6131 -0.3406
11411TIP3    H255725   0.356   5.609  -0.013 -0.4580  0.5016 -0.0078
11412TIP3   OH255726   2.876   4.252  13.274 -0.5264 -0.6326 -0.0675
11412TIP3    H155727   2.876   4.190  13.201  0.2239  0.2356 -0.8286
11412TIP3    H255728   2.832   4.330  13.239 -0.7674 -0.4481  0.6255
11413TIP3   OH255729   4.962   1.283  15.741  0.0453 -0.4184 -0.1279
11413TIP3    H155730   4.977   1.353  15.677  0.5605 -1.2668 -0.9544
11413TIP3    H255731   5.038   1.226  15.733 -1.3868 -2.2938 -1.0853
11414TIP3   OH255732   4.005   5.296   1.821  0.8008  0.2772 -0.5415
11414TIP3    H155733   4.025   5.207   1.848  0.8696 -0.0335 -1.5707
11414TIP3    H255734   3.999   5.345   1.903  2.3940 -0.3173 -0.0225
11415TIP3   OH255735   5.862   1.815   0.552 -0.1806 -0.3523 -0.0274
11415TIP3    H155736   5.862   1.783   0.642  0.7122 -0.9457 -0.2284
11415TIP3    H255737   5.870   1.910   0.560 -1.1851 -0.2980  0.5320
11416TIP3   OH255738   2.680   2.703   4.357 -0.0258  0.3440 -0.3344
11416TIP3    H155739   2.681   2.774   4.421  0.0693  0.3411 -0.3319
11416TIP3    H255740   2.614   2.729   4.293  1.0083  1.1516 -1.1214
11417TIP3   OH255741   3.732   5.518  11.247 -0.2754  0.0563 -0.1771
11417TIP3    H155742   3.777   5.500  11.165  2.2986  1.0842  0.8728
11417TIP3    H255743   3.733   5.614  11.254 -1.4746  0.0398  0.5424
11418TIP3   OH255744   5.451   0.840  12.091 -0.1662 -0.2700 -0.3016
11418TIP3    H155745   5.543   0.830  12.068  0.0701  0.0664  0.4634
11418TIP3    H255746   5.416   0.903  12.028  0.4181  0.4968  0.1250
11419TIP3   OH255747   0.670   5.861  12.284  0.7161 -0.5684 -0.0002
11419TIP3    H155748   0.673   5.870  12.189  1.5127 -2.9278 -0.2573
11419TIP3    H255749   0.584   5.821  12.301  1.1631 -1.5225  0.0911
11420TIP3   OH255750   0.605   4.947  12.088 -0.0511  0.2859  0.4834
11420TIP3    H155751   0.543   4.877  12.068 -0.5247 -0.4415  3.8347
11420TIP3    H255752   0.551   5.026  12.097  0.0718  0.4763 -0.4221
11421TIP3   OH255753   2.843   0.821  11.676  0.4379  0.5284 -0.2271
11421TIP3    H155754   2.763   0.870  11.659 -0.7733 -1.2076  0.1757
11421TIP3    H255755   2.894   0.877  11.735 -1.5454  0.7247  1.3907
11422TIP3   OH255756   6.487   0.285  16.589  0.7197  0.6140 -0.4890
11422TIP3    H155757   6.573   0.323  16.575  0.0286  1.6253 -2.3335
11422TIP3    H255758   6.455   0.326  16.669  1.4984  1.0624 -0.4009
11423TIP3   OH255759   0.954   1.229  15.109  0.1880 -0.3748  0.1908
11423TIP3    H155760   0.957   1.133  15.109 -1.2199 -0.4466  0.8250
11423TIP3    H255761   1.008   1.254  15.185 -1.8359 -0.8446  1.8904
11424TIP3   OH255762   5.123   0.636   3.047  0.4658 -0.4008 -0.4017
11424TIP3    H155763   5.171   0.661   3.126 -1.6007 -0.0925  0.8301
11424TIP3    H255764   5.165   0.686   2.977  1.6121  0.2100  0.6668
11425TIP3   OH255765   0.706   4.321  17.053  0.1215 -0.0428 -0.0184
11425TIP3    H155766   0.800   4.329  17.063 -0.1097  1.7367  1.2539
11425TIP3    H255767   0.686   4.366  16.971  0.2717  0.6726  0.3279
11426TIP3   OH255768   5.143   0.898  13.511  0.2959 -0.0527  0.0228
11426TIP3    H155769   5.163   0.868  13.600  3.1310 -3.0674 -1.3949
11426TIP3    H255770   5.175   0.989  13.509  1.4131 -0.3564  1.7347
11427TIP3   OH255771   4.179   3.510   0.479  0.0539  0.6064  0.0324
11427TIP3    H155772   4.237   3.459   0.423  0.1625  0.7423  0.0177
11427TIP3    H255773   4.238   3.551   0.543  0.3343  2.8740 -1.5777
11428TIP3   OH255774   4.962   2.401  11.101 -0.0928  0.3732 -0.1331
11428TIP3    H155775   5.049   2.438  11.114  0.3398 -0.1688 -1.3255
11428TIP3    H255776   4.977   2.308  11.082 -1.1133 -0.3494  2.1912
11429TIP3   OH255777   3.453   1.459  12.127 -0.5958 -0.1239  0.0171
11429TIP3    H155778   3.363   1.494  12.124  0.4071  2.6815 -2.2221
11429TIP3    H255779   3.498   1.514  12.190  0.1897  0.3910 -0.9621
11430TIP3   OH255780   2.376   6.510  11.181  0.3330  1.1139  0.0105
11430TIP3    H155781   2.311   6.471  11.124  0.2495  0.1768  0.7277
11430TIP3    H255782   2.345   6.600  11.195 -1.4080  0.3897  1.1916
11431TIP3   OH255783   5.977   4.933   4.340 -0.7098 -0.0372  1.1133
11431TIP3    H155784   5.994   4.899   4.427 -1.1735 -1.4240  0.6865
11431TIP3    H255785   6.060   4.923   4.293 -0.9358 -0.9641  0.8852
11432TIP3   OH255786   3.658   4.894   6.600 -0.3051  0.2699 -0.8617
11432TIP3    H155787   3.743   4.861   6.570  0.0123  0.2724  0.0145
11432TIP3    H255788   3.675   4.985   6.624  0.2041 -0.4817  2.1175
11433TIP3   OH255789   6.480   4.466   3.337 -0.3128 -0.2582 -0.3296
11433TIP3    H155790   6.562   4.433   3.301 -1.2774  0.0112 -3.0225
11433TIP3    H255791   6.435   4.389   3.372 -0.1000 -0.8927 -1.4068
11434TIP3   OH255792   6.492   6.366   0.318  0.0979  0.4038  0.0314
11434TIP3    H155793   6.523   6.276   0.322 -0.3666  0.1839 -0.8799
11434TIP3    H255794   6.447   6.380   0.401 -0.4680 -0.4652 -0.1140
11435TIP3   OH255795   5.415   1.917   5.516  0.2205 -0.1095  0.3369
11435TIP3    H155796   5.417   2.012   5.508  1.1691 -0.1147  0.4699
11435TIP3    H255797   5.346   1.890   5.455  1.2143  0.5238 -1.1390
11436TIP3   OH255798   5.435   2.954   5.305 -0.0174 -0.1093 -0.2337
11436TIP3    H155799   5.379   3.030   5.287 -0.6511 -0.6936 -0.7702
11436TIP3    H255800   5.475   2.933   5.221  2.7795  1.6238  0.5071
11437TIP3   OH255801   4.515   6.795   2.543  0.1145  0.1075  0.4299
11437TIP3    H155802   4.478   6.853   2.476 -0.4477  0.2629  0.8676
11437TIP3    H255803   4.523   6.849   2.621  0.6660 -0.1023  0.5222
11438TIP3   OH255804   0.878   3.968  12.686  0.2537 -0.0641 -0.3115
11438TIP3    H155805   0.831   4.045  12.653  0.4947  0.6687  1.0076
11438TIP3    H255806   0.813   3.898  12.684 -1.0922  1.0132  1.8240
11439TIP3   OH255807   0.359   3.890  12.164  0.0341  0.4441  0.2107
11439TIP3    H155808   0.341   3.981  12.191  0.7352  1.0372 -1.2214
11439TIP3    H255809   0.390   3.898  12.074  2.5177 -0.9948  0.8600
11440TIP3   OH255810   0.646   5.074  11.616 -0.0816  0.1645  0.5321
11440TIP3    H155811   0.715   5.133  11.585  0.4802 -0.3353  0.8067
11440TIP3    H255812   0.595   5.053  11.538  0.6031 -0.1406  0.1536
11441TIP3   OH255813   5.220   6.745   0.078 -0.0162 -0.1556  0.4575
11441TIP3    H155814   5.224   6.838   0.100 -0.6194  0.0180 -0.1102
11441TIP3    H255815   5.242   6.699   0.159 -0.1625  0.4769  0.8597
11442TIP3   OH255816   0.175   5.805   5.842  0.3138  0.2362 -0.3648
11442TIP3    H155817   0.107   5.817   5.776  0.5512  2.6641 -0.2630
11442TIP3    H255818   0.128   5.777   5.921 -0.5263  1.2981 -0.4656
11443TIP3   OH255819   6.546   6.347   1.645  0.5571 -0.1586 -0.3147
11443TIP3    H155820   6.479   6.295   1.690  1.4842  1.3926  3.1700
11443TIP3    H255821   6.629   6.309   1.675  1.2175  1.1602 -0.4195
11444TIP3   OH255822   3.317   6.035  12.634  0.0141  0.1096  0.8006
11444TIP3    H155823   3.222   6.023  12.635  0.0622 -0.2559  1.4131
11444TIP3    H255824   3.330   6.129  12.645 -0.3097  0.4477 -1.3054
11445TIP3   OH255825   0.905   2.335  15.334  0.5950  0.4326  0.1986
11445TIP3    H155826   0.937   2.271  15.269  1.7450  0.8099  0.3632
11445TIP3    H255827   0.963   2.322  15.410  0.2843  1.0857  0.5512
11446TIP3   OH255828   4.183   4.047  16.495 -0.5510 -0.5409 -0.3081
11446TIP3    H155829   4.144   4.132  16.515  0.6520  0.2445 -1.1630
11446TIP3    H255830   4.180   4.000  16.578 -1.8633  0.0584  0.0156
11447TIP3   OH255831   0.704   2.247  13.543 -0.6971 -0.2360  0.6035
11447TIP3    H155832   0.669   2.271  13.457 -0.8640  0.0431  0.7481
11447TIP3    H255833   0.692   2.326  13.597 -1.9887 -0.8874  1.3088
11448TIP3   OH255834   0.086   4.668  11.606 -0.5319  0.1202 -0.2655
11448TIP3    H155835   0.140   4.596  11.641 -1.4089  0.1293  1.1662
11448TIP3    H255836   0.061   4.718  11.683 -0.1083  1.8744 -1.2278
11449TIP3   OH255837   0.287   5.752  11.929 -0.0963  0.1522 -0.0170
11449TIP3    H155838   0.337   5.694  11.872 -0.4876 -0.2968  0.0874
11449TIP3    H255839   0.332   5.749  12.013 -0.2789 -0.2290  0.0690
11450TIP3   OH255840   2.952   2.777  11.308 -0.4024  0.1150 -0.4446
11450TIP3    H155841   2.955   2.731  11.392 -1.1809  1.8374  0.6050
11450TIP3    H255842   2.867   2.753  11.271 -0.2995 -0.2165 -0.4631
11451TIP3   OH255843   4.046   4.562   0.975  0.4786 -0.1589  0.4676
11451TIP3    H155844   4.025   4.538   0.885  2.3303  0.2305 -0.1055
11451TIP3    H255845   4.020   4.486   1.027  0.8587 -1.0436 -0.5923
11452TIP3   OH255846   5.535   3.861  14.219  0.4531 -0.0775 -0.0106
11452TIP3    H155847   5.468   3.808  14.262  1.9078 -1.1225  1.0708
11452TIP3    H255848   5.605   3.868  14.284  0.4566  2.9970 -0.2096
11453TIP3   OH255849   2.338   2.761   1.890  0.4348 -0.1437  0.0010
11453TIP3    H155850   2.394   2.786   1.964 -0.3051 -3.7724  2.0187
11453TIP3    H255851   2.273   2.830   1.885  1.4519  1.0223  1.6765
11454TIP3   OH255852   0.603   0.828   3.644 -0.0464  0.1898  0.3063
11454TIP3    H155853   0.667   0.812   3.576 -0.1598  2.4909 -0.3972
11454TIP3    H255854   0.653   0.823   3.726  0.5821 -0.0990 -0.0873
11455TIP3   OH255855   2.392   5.461   0.782 -0.0162 -0.1634 -0.3530
11455TIP3    H155856   2.440   5.413   0.715  1.0198 -0.6235  0.6889
11455TIP3    H255857   2.426   5.550   0.777  2.9481 -0.9617  1.9996
11456TIP3   OH255858   5.172   6.341   5.005  0.0096  0.2982 -0.2367
11456TIP3    H155859   5.160   6.434   4.987 -1.4102 -0.0725 -1.3557
11456TIP3    H255860   5.125   6.327   5.088 -1.1732  0.2832 -0.8910
11457TIP3   OH255861   1.045   0.269  13.405 -0.6303  0.7239  0.1952
11457TIP3    H155862   1.111   0.309  13.462 -0.9641  0.4719  0.7673
11457TIP3    H255863   1.059   0.310  13.320 -0.0756  1.0542  0.4378
11458TIP3   OH255864   0.121   4.857  14.453  0.3626 -0.5435 -0.6708
11458TIP3    H155865   0.065   4.782  14.470  0.0061 -0.6552 -2.1515
11458TIP3    H255866   0.193   4.848  14.515 -0.5851 -1.1074  0.3879
11459TIP3   OH255867   0.179   4.970  16.599  0.1513  0.0988  0.1393
11459TIP3    H155868   0.156   4.939  16.512  1.3442 -0.7208  0.0976
11459TIP3    H255869   0.251   5.031  16.585  0.0137  0.3545  0.5123
11460TIP3   OH255870   1.044   1.235   6.402 -0.7350  0.6067  0.6198
11460TIP3    H155871   1.076   1.148   6.427 -1.8885  0.1487  0.5565
11460TIP3    H255872   0.974   1.218   6.340  0.2685  1.6609 -0.8776
11461TIP3   OH255873   5.854   1.691  13.773 -0.5497 -0.2348 -0.2606
11461TIP3    H155874   5.900   1.673  13.855  0.1816 -0.0129 -0.6136
11461TIP3    H255875   5.804   1.611  13.756 -0.0010 -0.6309 -0.0581
11462TIP3   OH255876   1.294   3.608  10.430  0.1723  0.5212  0.4126
11462TIP3    H155877   1.219   3.649  10.473 -1.0142  0.5355 -1.5611
11462TIP3    H255878   1.353   3.680  10.411  2.5128  0.1983  5.0173
11463TIP3   OH255879   4.307   5.575   1.144 -0.3686 -0.0669  1.0476
11463TIP3    H155880   4.253   5.651   1.124  1.0969  0.9450  0.7151
11463TIP3    H255881   4.288   5.554   1.235 -0.2995  1.1578  1.3609
11464TIP3   OH255882   5.301   4.429   0.658 -0.1134 -0.3729  0.3087
11464TIP3    H155883   5.261   4.399   0.577  0.1068 -0.4300  0.2202
11464TIP3    H255884   5.227   4.452   0.715 -0.2831  1.3559 -0.5312
11465TIP3   OH255885   2.779   4.248  11.482 -0.1066  0.5640  0.5128
11465TIP3    H155886   2.802   4.156  11.469 -0.1234  0.5287  0.7416
11465TIP3    H255887   2.736   4.251  11.567 -1.1924  0.5885 -0.0227
11466TIP3   OH255888   0.677   4.991   2.979 -0.6241  0.3729 -0.0729
11466TIP3    H155889   0.660   4.987   2.885 -0.4940 -0.5902 -0.0665
11466TIP3    H255890   0.628   4.918   3.016 -0.0973  0.3031  0.5131
11467TIP3   OH255891   0.239   3.211  12.060  1.4241 -0.4475 -0.3381
11467TIP3    H155892   0.155   3.170  12.082  1.7701 -2.3733 -2.2407
11467TIP3    H255893   0.289   3.206  12.142  0.1608 -0.4818  0.4707
11468TIP3   OH255894   4.659   6.208  10.978 -0.1303  0.4083  0.1329
11468TIP3    H155895   4.723   6.139  10.961 -2.2600 -1.1793 -2.0133
11468TIP3    H255896   4.670   6.269  10.905 -0.6261  0.4698  0.1079
11469TIP3   OH255897   0.208   1.893  13.658  0.4370 -0.3108 -0.7070
11469TIP3    H155898   0.292   1.925  13.624  0.3120 -0.2148 -0.9288
11469TIP3    H255899   0.181   1.827  13.594 -0.4104  0.7543 -1.4761
11470TIP3   OH255900   0.027   3.364  11.618 -0.0818  0.9957 -0.1352
11470TIP3    H155901   0.035   3.459  11.620  0.1737  1.0569  3.8583
11470TIP3    H255902  -0.068   3.348  11.625 -0.0541  0.9606  0.1505
11471TIP3   OH255903   3.833   0.546   5.332  0.4438  0.7519  0.1966
11471TIP3    H155904   3.813   0.621   5.276  1.3370  0.5879 -0.3636
11471TIP3    H255905   3.866   0.479   5.272  1.1313  0.4681  0.8678
11472TIP3   OH255906   4.466   2.750   1.829 -0.4566  0.6923 -0.0632
11472TIP3    H155907   4.483   2.835   1.788 -1.3635  2.3496  2.7096
11472TIP3    H255908   4.446   2.691   1.756  2.4405  2.2004 -2.2942
11473TIP3   OH255909   1.069   1.926   0.409  0.5055 -0.4611  0.5183
11473TIP3    H155910   1.146   1.873   0.426  0.5472 -0.1198  1.4344
11473TIP3    H255911   1.026   1.936   0.494  1.6023  2.6496  0.8595
11474TIP3   OH255912   0.617   2.512   5.938 -0.2346  0.1288 -0.3904
11474TIP3    H155913   0.585   2.504   6.028 -0.0080 -0.0435 -0.3223
11474TIP3    H255914   0.610   2.606   5.919 -0.8871  0.0782 -0.4230
11475TIP3   OH255915   4.122   6.372  11.877  0.0306 -0.6828 -0.0415
11475TIP3    H155916   4.182   6.297  11.884  0.1207 -0.6024  0.0538
11475TIP3    H255917   4.179   6.448  11.868 -0.0691 -0.7945 -2.1320
11476TIP3   OH255918   4.326   4.776   2.758  0.5797  0.0795 -0.1735
11476TIP3    H155919   4.268   4.704   2.781 -0.4274  0.5112 -1.2448
11476TIP3    H255920   4.407   4.759   2.806  0.0740 -1.3225  0.2085
11477TIP3   OH255921   6.639   6.847  14.286 -0.0398  0.1267 -0.0349
11477TIP3    H155922   6.731   6.872  14.301  0.0750 -0.2123 -0.1613
11477TIP3    H255923   6.613   6.897  14.208  0.0592  0.1643 -0.0441
11478TIP3   OH255924   2.274   5.829  15.561  0.7631 -1.1957 -0.0095
11478TIP3    H155925   2.237   5.895  15.621  1.3922  0.1038 -0.9987
11478TIP3    H255926   2.206   5.815  15.496  1.2085 -0.2779 -0.7086
11479TIP3   OH255927   3.090   6.357  13.592 -0.0104 -0.2455  0.0493
11479TIP3    H155928   3.085   6.441  13.547  0.9185  0.9331  2.0025
11479TIP3    H255929   3.181   6.350  13.620  0.1101 -2.2732 -0.6829
11480TIP3   OH255930   5.289   0.908  11.561 -0.3248 -0.4095 -0.5998
11480TIP3    H155931   5.197   0.885  11.546 -0.6775  0.5895 -0.1111
11480TIP3    H255932   5.301   0.991  11.516 -0.2791  0.5531  1.0898
11481TIP3   OH255933   5.557   3.845  16.971 -0.4861  0.0083  0.1565
11481TIP3    H155934   5.593   3.767  17.013 -1.6230 -0.2853  0.6274
11481TIP3    H255935   5.566   3.828  16.877  0.7729  0.0433  0.2571
11482TIP3   OH255936   1.039   2.473  14.933 -0.1135 -0.0730  0.0293
11482TIP3    H155937   1.009   2.517  15.012  1.0918 -0.6782  0.8597
11482TIP3    H255938   0.978   2.400  14.921 -1.6565  1.2901 -0.9222
11483TIP3   OH255939   0.724   1.346  13.428 -0.5359  0.3443  0.0728
11483TIP3    H155940   0.737   1.283  13.499 -0.1604  1.6558  1.2186
11483TIP3    H255941   0.630   1.366  13.432 -0.2730  1.4866  1.1865
11484TIP3   OH255942   0.911   2.257   5.859  0.1596  0.3860  0.2254
11484TIP3    H155943   0.903   2.230   5.768 -0.4957 -0.7550  0.6037
11484TIP3    H255944   0.933   2.350   5.855 -1.5549  0.7768 -1.0715
11485TIP3   OH255945   1.927   5.743   3.231  0.3693  0.1033 -0.2258
11485TIP3    H155946   1.970   5.768   3.149  1.6377 -0.2498  0.2997
11485TIP3    H255947   1.853   5.803   3.239 -0.6002 -0.7051 -2.2897
11486TIP3   OH255948   3.510   3.473   4.321 -0.4304  0.6285 -0.2618
11486TIP3    H155949   3.524   3.562   4.353 -1.3464  1.2027 -1.3978
11486TIP3    H255950   3.415   3.461   4.321 -0.4271 -2.1589  4.5226
11487TIP3   OH255951   5.488   4.222  11.451 -0.4246 -1.0761  0.1566
11487TIP3    H155952   5.533   4.139  11.463  0.0912 -1.0503 -1.3687
11487TIP3    H255953   5.420   4.223  11.519  1.2911 -1.4909  1.9549
11488TIP3   OH255954   5.607   5.983  14.317  0.5563 -0.0360  0.0513
11488TIP3    H155955   5.693   5.949  14.293  1.2842  1.4271  0.4252
11488TIP3    H255956   5.553   5.906  14.332  1.9140 -0.9816  0.2079
11489TIP3   OH255957   0.101   5.802  15.634 -0.0793 -0.1004  0.4177
11489TIP3    H155958   0.154   5.845  15.566 -0.9211 -0.8613 -0.7654
11489TIP3    H255959   0.137   5.713  15.639 -1.3346 -0.6848 -0.5368
11490TIP3   OH255960   3.525   3.647  14.777 -0.0351 -0.2656  0.1417
11490TIP3    H155961   3.452   3.689  14.732  0.1577  1.1817  1.0968
11490TIP3    H255962   3.485   3.595  14.846 -0.2708 -1.5884 -0.9583
11491TIP3   OH255963   6.702   5.940  15.192  0.1826  0.2292  0.2108
11491TIP3    H155964   6.709   5.961  15.099  1.5149  1.2306  0.4926
11491TIP3    H255965   6.767   5.997  15.233  0.1779 -0.7688  1.6620
11492TIP3   OH255966   5.647   4.016  12.596 -0.7754  0.1017 -0.1817
11492TIP3    H155967   5.567   3.989  12.550 -1.2900  1.3864 -0.0945
11492TIP3    H255968   5.664   4.105  12.564  0.5014 -0.0680 -0.0268
11493TIP3   OH255969   2.697   6.816  16.852 -0.1446  0.2597 -0.2530
11493TIP3    H155970   2.701   6.890  16.912  1.6352  0.2256 -0.2685
11493TIP3    H255971   2.751   6.842  16.777 -0.5191 -0.5560 -0.8245
11494TIP3   OH255972   0.859   2.535  12.912 -0.0221 -0.0378 -0.1694
11494TIP3    H155973   0.808   2.606  12.872  0.9001  0.9869  0.3928
11494TIP3    H255974   0.950   2.562  12.898  0.3354 -0.0685  1.8697
11495TIP3   OH255975   2.238   4.989   1.082 -0.5598 -0.1345 -0.4147
11495TIP3    H155976   2.290   4.942   1.017 -0.8506 -1.0891  0.0172
11495TIP3    H255977   2.148   4.985   1.049 -0.6343 -0.1846 -0.2122
11496TIP3   OH255978   0.273   0.500   5.926 -0.5674  0.8753  0.1498
11496TIP3    H155979   0.217   0.438   5.973 -0.0496  0.7124  0.5592
11496TIP3    H255980   0.242   0.497   5.836  0.5775 -1.2858 -0.2224
11497TIP3   OH255981   1.510   2.953  14.019 -0.0275 -0.4398  0.3458
11497TIP3    H155982   1.582   2.947  13.955 -1.0680 -0.4201 -0.8682
11497TIP3    H255983   1.545   2.915  14.099  0.0655 -4.2591 -1.3356
11498TIP3   OH255984   0.014   1.458   2.503  0.0740 -0.1690 -0.3685
11498TIP3    H155985   0.056   1.544   2.501  0.2814 -0.2686 -0.3876
11498TIP3    H255986  -0.068   1.469   2.456 -0.0291  0.0889 -0.1263
11499TIP3   OH255987   4.489   2.650  14.155  0.0607  0.2676  0.0390
11499TIP3    H155988   4.541   2.575  14.126 -1.2910 -0.5254 -0.4204
11499TIP3    H255989   4.445   2.619  14.234 -2.2475 -0.2534 -1.3665
11500TIP3   OH255990   0.027   6.420  10.471 -0.3321  0.1803  0.6721
11500TIP3    H155991  -0.015   6.497  10.433  0.2376  0.4135  0.4970
11500TIP3    H255992  -0.010   6.346  10.423  2.0499  0.5756 -2.0628
11501TIP3   OH255993   3.337   0.416   2.867 -0.1504 -0.2912 -0.0898
11501TIP3    H155994   3.337   0.474   2.790  2.2056 -0.7162 -0.4741
11501TIP3    H255995   3.280   0.343   2.841 -2.3645  1.2703  0.0320
11502TIP3   OH255996   3.134   0.752   1.765  0.1636  0.1412 -0.1322
11502TIP3    H155997   3.093   0.688   1.707  2.6986 -1.5713 -0.1875
11502TIP3    H255998   3.226   0.753   1.739  0.6849  2.0132  1.5045
11503TIP3   OH255999   6.798   5.940   5.334 -0.1391  0.5075 -0.5677
11503TIP3    H156000   6.772   6.024   5.372 -0.5295  0.5201 -0.8508
11503TIP3    H256001   6.769   5.945   5.243  0.0989  0.1801 -0.6643
11504TIP3   OH256002   2.236   1.971  16.585 -0.1311  0.1947  0.3653
11504TIP3    H156003   2.226   1.995  16.493 -0.2733  2.6870  0.9697
11504TIP3    H256004   2.150   1.939  16.611  0.2508 -1.8148 -0.6518
11505TIP3   OH256005   3.079   6.138  14.006  0.3049  0.7801  0.1817
11505TIP3    H156006   3.089   6.179  14.092  1.8264 -1.2356  1.0424
11505TIP3    H256007   2.990   6.105  14.005  0.5446  0.0553  1.3709
11506TIP3   OH256008   0.429   1.345  16.680 -0.4634 -0.4384 -0.3877
11506TIP3    H156009   0.425   1.251  16.664 -1.2960 -0.4953  0.0761
11506TIP3    H256010   0.522   1.364  16.690 -0.3042 -1.2563 -0.2569
11507TIP3   OH256011   5.298   5.561  11.817 -0.2777  0.0421 -0.4062
11507TIP3    H156012   5.299   5.493  11.749  1.5677 -0.3610 -0.0405
11507TIP3    H256013   5.233   5.624  11.786 -0.8701 -1.0787 -1.5677
11508TIP3   OH256014   5.855   5.980  15.419 -0.1232  0.1721  0.3917
11508TIP3    H156015   5.839   5.893  15.455  0.3757 -0.1251 -0.0712
11508TIP3    H256016   5.768   6.016  15.401 -0.3303 -0.2751  0.4902
11509TIP3   OH256017   1.130   6.538   0.993  0.6261 -0.7285 -0.5723
11509TIP3    H156018   1.128   6.462   1.051 -0.5363  2.0148  3.4098
11509TIP3    H256019   1.055   6.526   0.934  0.2179 -2.4447  0.2563
11510TIP3   OH256020   2.152   2.884  15.858 -0.6536 -0.2962 -0.1599
11510TIP3    H156021   2.237   2.859  15.895 -0.9269 -1.0225 -0.0094
11510TIP3    H256022   2.096   2.808  15.874  0.0551 -2.2018 -5.0341
11511TIP3   OH256023   0.650   5.852  15.973 -0.0708  0.1820 -0.4802
11511TIP3    H156024   0.661   5.943  15.948  1.1593 -0.4788 -2.5664
11511TIP3    H256025   0.568   5.824  15.932 -1.8246  0.9333  2.2421
11512TIP3   OH256026   1.954   5.179   2.866 -0.7006 -0.2124 -0.3968
11512TIP3    H156027   2.003   5.258   2.847 -1.9623  0.3692 -1.4214
11512TIP3    H256028   1.956   5.129   2.784 -2.6267  0.3127 -0.8177
11513TIP3   OH256029   6.092   4.853  15.497 -0.6603  0.3456  0.1343
11513TIP3    H156030   6.117   4.771  15.454  0.9670  0.4060  0.8799
11513TIP3    H256031   6.097   4.919  15.429  3.3697  0.7179  0.5083
11514TIP3   OH256032   4.952   1.642  15.165 -0.3677 -0.2753  0.0998
11514TIP3    H156033   4.946   1.695  15.086  1.0238  1.4797  1.0995
11514TIP3    H256034   4.991   1.559  15.136 -0.5101  0.0831 -1.1461
11515TIP3   OH256035   0.752   3.877  16.423 -0.4795 -0.1792  0.0071
11515TIP3    H156036   0.739   3.964  16.385  0.6443 -0.6363 -1.5094
11515TIP3    H256037   0.720   3.817  16.357 -0.8667 -0.9476  0.8746
11516TIP3   OH256038   4.056   5.949   5.306  0.4971 -0.5417  0.0134
11516TIP3    H156039   4.046   6.030   5.356  0.5166  0.0058 -0.8520
11516TIP3    H256040   4.029   5.972   5.217  0.5823 -1.4663 -0.2613
11517TIP3   OH256041   1.653   5.949  12.138  0.4308 -0.0071  0.1387
11517TIP3    H156042   1.620   6.035  12.163  2.1207  0.6796  0.1275
11517TIP3    H256043   1.736   5.966  12.095  0.8920 -1.6613  0.2838
11518TIP3   OH256044   0.417   5.912  16.179 -0.4871  0.3393 -0.1754
11518TIP3    H156045   0.462   5.841  16.133  1.5003  1.0241  0.5842
11518TIP3    H256046   0.342   5.869  16.221 -0.9101 -0.7620 -1.9265
11519TIP3   OH256047   6.572   3.695  16.685 -0.4232 -0.3651 -0.1653
11519TIP3    H156048   6.532   3.663  16.766 -1.3063 -0.2923 -0.5579
11519TIP3    H256049   6.595   3.616  16.637  0.5900 -0.4133  0.3763
11520TIP3   OH256050   6.438   4.259  13.493 -0.1676 -0.0807 -0.2941
11520TIP3    H156051   6.369   4.211  13.447 -1.0627  0.3506  0.5616
11520TIP3    H256052   6.415   4.250  13.586  0.2821  1.0292 -0.0646
11521TIP3   OH256053   4.546   4.910   0.589  0.8669 -0.2228 -0.0862
11521TIP3    H156054   4.561   5.005   0.579  1.4304 -0.2884  0.0783
11521TIP3    H256055   4.486   4.903   0.663  2.1032 -0.0571  0.9777
11522TIP3   OH256056   3.339   4.411   0.369  0.2530 -0.9549 -0.7108
11522TIP3    H156057   3.359   4.322   0.399  0.2925 -1.1650 -1.3381
11522TIP3    H256058   3.399   4.467   0.419 -0.3286 -1.1975  0.2717
11523TIP3   OH256059   5.289   0.165   4.777 -0.3459  0.2877 -0.7817
11523TIP3    H156060   5.279   0.072   4.758  0.7452  0.0634 -0.3210
11523TIP3    H256061   5.279   0.208   4.692  1.0160 -0.4151 -1.3172
11524TIP3   OH256062   1.606   6.457  17.094 -0.4062 -0.1619  0.5787
11524TIP3    H156063   1.558   6.483  17.015 -0.7182 -0.0102  0.8229
11524TIP3    H256064   1.589   6.363  17.102  1.8682 -0.8475 -1.1215
11525TIP3   OH256065   4.441   3.045   0.156  0.3975  0.6660  0.0243
11525TIP3    H156066   4.500   3.104   0.203 -0.4130  1.6149 -0.1364
11525TIP3    H256067   4.480   2.958   0.170  2.8216  1.4004 -1.5428
11526TIP3   OH256068   0.128   1.193   5.116  0.0538  0.4152  0.4971
11526TIP3    H156069   0.052   1.211   5.061  0.3219 -2.6027 -1.0827
11526TIP3    H256070   0.162   1.279   5.139 -2.9926  1.8393  0.1047
11527TIP3   OH256071   0.534   5.702  14.056 -1.1354  0.5967 -0.0207
11527TIP3    H156072   0.454   5.669  14.097 -1.1176  0.6423  0.0507
11527TIP3    H256073   0.576   5.754  14.124  0.5285 -1.9093  1.0322
11528TIP3   OH256074   1.501   4.885  13.181  0.2065  0.0576 -0.1147
11528TIP3    H156075   1.431   4.950  13.182  0.5193  0.4302 -1.0713
11528TIP3    H256076   1.559   4.910  13.253 -0.1576  0.3004  0.0925
11529TIP3   OH256077   3.958   0.278  15.510  0.1711  0.2021 -0.5146
11529TIP3    H156078   3.868   0.260  15.535 -0.5008  0.5478 -2.4753
11529TIP3    H256079   4.011   0.245  15.582 -1.5761  1.2553  1.3252
11530TIP3   OH256080   5.570   0.104   6.450  0.3495 -0.4233  0.4385
11530TIP3    H156081   5.628   0.103   6.527  0.8955 -0.6193  0.0287
11530TIP3    H256082   5.520   0.184   6.460  1.3318  0.2246  0.3384
11531TIP3   OH256083   2.659   5.496   0.123 -0.2163 -0.4781  0.0307
11531TIP3    H156084   2.724   5.566   0.117 -0.3739 -0.4553 -2.5913
11531TIP3    H256085   2.580   5.534   0.083 -0.4364 -1.9642 -1.0150
11532TIP3   OH256086   6.451   6.377   2.344  0.3713 -0.1180 -0.0402
11532TIP3    H156087   6.501   6.304   2.310  0.5392 -0.6481  1.2915
11532TIP3    H256088   6.510   6.453   2.337  1.1602 -0.6137  0.9226
11533TIP3   OH256089   2.131   4.674  11.416  0.5719 -0.5528 -0.1318
11533TIP3    H156090   2.168   4.589  11.393  0.2480 -0.7438  0.0416
11533TIP3    H256091   2.141   4.727  11.337 -0.1348 -1.0675 -0.5723
11534TIP3   OH256092   3.882   6.515  11.009  0.4526 -0.2977  0.1064
11534TIP3    H156093   3.908   6.578  10.941  0.1380 -1.1219 -0.8055
11534TIP3    H256094   3.965   6.474  11.035  0.6976  0.6733  0.9116
11535TIP3   OH256095   3.243   3.162  13.700 -0.3670  0.4581  0.3329
11535TIP3    H156096   3.326   3.121  13.726 -0.6514 -0.8829 -0.7364
11535TIP3    H256097   3.257   3.187  13.609 -1.2265 -0.0383  0.0548
11536TIP3   OH256098   1.771   5.597  13.066  0.2041 -0.0036  0.5471
11536TIP3    H156099   1.804   5.575  12.979  1.4371 -0.4250  1.0896
11536TIP3    H256100   1.837   5.657  13.101 -1.2439  1.6921  0.4958
11537TIP3   OH256101   5.710   3.905   3.347 -0.2293  0.4211  0.1137
11537TIP3    H156102   5.799   3.873   3.356 -0.2479  0.2059 -0.4134
11537TIP3    H256103   5.683   3.878   3.259  0.0061  2.4474 -0.6591
11538TIP3   OH256104   0.848   4.797  11.944  1.0562 -0.4188  0.0813
11538TIP3    H156105   0.788   4.795  11.870  1.0320 -0.0378  0.0886
11538TIP3    H256106   0.884   4.708  11.949 -3.4647 -2.4820  3.3189
11539TIP3   OH256107   0.836   1.621   1.138 -0.1953 -0.0746 -0.0484
11539TIP3    H156108   0.927   1.649   1.126  0.3824 -1.8440 -0.0110
11539TIP3    H256109   0.784   1.693   1.102  1.1928  1.1435  0.2799
11540TIP3   OH256110   5.404   3.434  10.898 -0.4377  0.2932 -0.2845
11540TIP3    H156111   5.465   3.374  10.855  1.2431  1.7948 -0.1044
11540TIP3    H256112   5.342   3.376  10.943  0.2798 -1.2964 -1.2224
11541TIP3   OH256113   4.098   5.683  12.908 -0.4393  0.4998  0.3315
11541TIP3    H156114   4.107   5.723  12.995 -0.7372  0.8763  0.1890
11541TIP3    H256115   4.178   5.709  12.862 -0.2329  0.2144  0.5238
11542TIP3   OH256116   1.649   4.005   0.743  0.5529 -0.3334  0.5558
11542TIP3    H156117   1.600   3.942   0.796 -0.1694  0.8529  1.3530
11542TIP3    H256118   1.713   3.952   0.696 -1.3575 -1.9353 -0.3983
11543TIP3   OH256119   5.243   3.161  10.183  0.2475  0.0273  0.0660
11543TIP3    H156120   5.290   3.244  10.180 -0.2694  0.3396  0.3098
11543TIP3    H256121   5.150   3.186  10.181  0.0740 -0.5084  0.7598
11544TIP3   OH256122   4.728   5.799   3.895 -0.0083 -0.4474 -0.2079
11544TIP3    H156123   4.659   5.792   3.960 -1.2275  0.6542 -1.3149
11544TIP3    H256124   4.711   5.726   3.834 -0.3104 -0.0881 -0.5622
11545TIP3   OH256125   3.698   4.279  10.732  0.3461 -0.1128  0.0120
11545TIP3    H156126   3.745   4.201  10.762  1.4968 -0.4958 -2.5090
11545TIP3    H256127   3.766   4.335  10.696 -0.8015  0.7476 -0.8683
11546TIP3   OH256128   5.268   5.812  12.484  0.2614  0.4648  0.0165
11546TIP3    H156129   5.196   5.768  12.439  0.2216 -0.3377  0.8384
11546TIP3    H256130   5.344   5.798  12.428 -0.3552  2.0702 -1.3083
11547TIP3   OH256131   0.057   1.551   3.544  0.1423 -0.1194  0.0261
11547TIP3    H156132   0.022   1.608   3.613  0.4558  0.6808 -0.4512
11547TIP3    H256133   0.013   1.581   3.465  0.1213 -0.7253 -0.1921
11548TIP3   OH256134   4.718   6.794   1.879  0.3350  0.4566 -0.0876
11548TIP3    H156135   4.703   6.885   1.905 -0.8262  0.3910 -0.4698
11548TIP3    H256136   4.777   6.800   1.804 -0.6051  0.9805 -0.8056
11549TIP3   OH256137   3.456   5.795  14.383  0.3746 -0.3016 -0.1960
11549TIP3    H156138   3.493   5.846  14.455 -0.9389  1.6000 -0.7623
11549TIP3    H256139   3.505   5.713  14.383  2.8625  1.0772  0.5880
11550TIP3   OH256140   2.600   6.386  12.382 -0.1476  0.9388  0.1741
11550TIP3    H156141   2.666   6.452  12.403  0.7811  0.1519 -0.1854
11550TIP3    H256142   2.591   6.391  12.287  2.1132 -1.3989 -0.2574
11551TIP3   OH256143   5.165   2.261   5.981 -0.1458  0.5056 -0.5913
11551TIP3    H156144   5.204   2.298   6.060  1.3155 -1.2516 -0.4097
11551TIP3    H256145   5.072   2.252   6.001  0.1028  0.6537  0.6945
11552TIP3   OH256146   2.530   0.019  13.192 -0.0927 -0.1122 -0.4933
11552TIP3    H156147   2.477  -0.017  13.263 -3.0125  1.9584 -1.4403
11552TIP3    H256148   2.591   0.079  13.235 -1.6271  0.8959  0.3511
11553TIP3   OH256149   2.873   1.266   3.064 -0.4156 -0.0921 -0.4381
11553TIP3    H156150   2.932   1.226   3.127  0.0265 -0.2021 -0.9147
11553TIP3    H256151   2.924   1.337   3.025 -1.1909  0.9723  0.4043
11554TIP3   OH256152   1.153   4.874   3.910  0.0938  0.3999  0.3537
11554TIP3    H156153   1.217   4.814   3.874 -0.6318  0.3176 -0.8491
11554TIP3    H256154   1.076   4.820   3.929  0.0011  0.6732  0.8007
11555TIP3   OH256155   0.577   3.590   3.201  0.6290  0.0402 -0.4201
11555TIP3    H156156   0.636   3.518   3.178  0.9494 -0.3416  1.3932
11555TIP3    H256157   0.505   3.547   3.248  0.3661  0.8108 -0.1037
11556TIP3   OH256158   2.367   4.060  12.950  0.8055  0.0012  0.4064
11556TIP3    H156159   2.299   4.117  12.915  0.8719 -0.2464 -0.1363
11556TIP3    H256160   2.391   4.100  13.034 -1.0988 -0.7662  1.3626
11557TIP3   OH256161   4.636   5.854  15.658 -0.1699 -0.3851  0.0624
11557TIP3    H156162   4.630   5.809  15.742 -1.3377 -2.2107 -0.9129
11557TIP3    H256163   4.554   5.903  15.651 -0.2270 -0.5063 -0.1398
11558TIP3   OH256164   0.335   4.947  12.274  0.2884  0.2449  0.1144
11558TIP3    H156165   0.269   4.895  12.228  1.0847 -0.8632  0.1898
11558TIP3    H256166   0.338   5.030  12.225 -2.7916  1.3184  1.4762
11559TIP3   OH256167   0.353   2.336  15.155 -0.5146 -0.5258  0.2408
11559TIP3    H156168   0.397   2.313  15.073 -1.3153 -0.5507 -0.1947
11559TIP3    H256169   0.395   2.281  15.221  2.4475  1.7741  0.5077
11560TIP3   OH256170   1.148   2.557  13.131 -0.4099 -0.1739  0.5810
11560TIP3    H156171   1.155   2.563  13.036  0.4790 -2.2041  0.4816
11560TIP3    H256172   1.086   2.627  13.155 -1.2265 -0.1070 -1.5449
11561TIP3   OH256173   1.907   6.213   2.376 -0.1101 -0.5087  0.3017
11561TIP3    H156174   1.819   6.210   2.413  0.1130 -1.0333  0.7957
11561TIP3    H256175   1.960   6.258   2.441  0.1536 -0.8977  0.3628
11562TIP3   OH256176   3.920   0.203   4.577 -0.9660  0.1924 -0.5102
11562TIP3    H156177   3.913   0.204   4.672 -1.2850  0.1115 -0.5323
11562TIP3    H256178   3.927   0.296   4.553  1.2179  0.1452 -0.2672
11563TIP3   OH256179   2.734   1.868   2.205 -0.0270 -0.5946 -0.3609
11563TIP3    H156180   2.745   1.785   2.158 -0.3844 -0.7300 -0.2040
11563TIP3    H256181   2.824   1.899   2.219  0.1563 -1.5029  0.5718
11564TIP3   OH256182   4.720   1.119   5.374 -0.0886  0.5453  0.3456
11564TIP3    H156183   4.724   1.212   5.397  0.9315  0.2811  1.3058
11564TIP3    H256184   4.807   1.086   5.394 -1.3284 -1.3191  3.1934
11565TIP3   OH256185   5.488   2.025  16.009 -0.0169 -0.4648 -0.0745
11565TIP3    H156186   5.471   1.961  16.077 -1.8524  0.4211  0.3560
11565TIP3    H256187   5.402   2.049  15.975  0.7954 -0.5431 -2.4434
11566TIP3   OH256188   0.768   0.366  12.401  0.2143 -0.0300  0.3625
11566TIP3    H156189   0.858   0.335  12.415  0.2553  0.0256  0.2197
11566TIP3    H256190   0.770   0.458  12.424  0.1894 -0.0320  0.3732
11567TIP3   OH256191   5.355   1.655   5.230  0.0974  0.0803 -0.6211
11567TIP3    H156192   5.306   1.731   5.262  1.2623  0.5295  0.1651
11567TIP3    H256193   5.347   1.590   5.299 -2.1145 -1.1358 -1.8988
11568TIP3   OH256194   3.260   0.795   5.210 -1.2227  0.5558 -0.3748
11568TIP3    H156195   3.238   0.885   5.234 -0.8498  0.5033  0.2002
11568TIP3    H256196   3.269   0.750   5.294 -1.5481 -0.0524 -0.6627
11569TIP3   OH256197   0.311   6.404   0.873  0.5883  0.1663  0.3376
11569TIP3    H156198   0.388   6.396   0.817  0.7598  0.6756  0.4998
11569TIP3    H256199   0.308   6.497   0.897  0.7570 -0.1303  1.5250
11570TIP3   OH256200   2.612   6.746   4.248 -0.2748 -0.0093 -0.4052
11570TIP3    H156201   2.526   6.747   4.208 -0.4847 -1.1409 -0.0298
11570TIP3    H256202   2.673   6.751   4.175 -0.6558 -0.9601 -0.8005
11571TIP3   OH256203   0.967   1.188   5.580 -0.1390  0.7673 -0.1917
11571TIP3    H156204   1.007   1.101   5.585 -1.3211  0.2187 -0.0752
11571TIP3    H256205   0.879   1.177   5.615 -1.4827  1.2863 -3.0768
11572TIP3   OH256206   1.713   2.871  15.402 -0.3408  0.2531 -0.0201
11572TIP3    H156207   1.663   2.790  15.417 -1.1764  0.7954  0.2020
11572TIP3    H256208   1.662   2.919  15.337  0.5208  0.2997 -0.6830
11573TIP3   OH256209   3.231   0.476   1.052 -0.6050 -0.0601 -0.4109
11573TIP3    H156210   3.167   0.538   1.017 -0.2864  0.0897 -0.7492
11573TIP3    H256211   3.290   0.530   1.105 -0.4174 -0.0960 -0.5801
11574TIP3   OH256212   4.117   0.896  11.090 -0.4828  0.4163  0.2211
11574TIP3    H156213   4.177   0.908  11.164  1.5717 -1.1745 -1.0561
11574TIP3    H256214   4.140   0.965  11.029  0.2132 -0.2943 -0.3414
11575TIP3   OH256215   3.546   2.682   2.561  0.1248 -0.5482 -0.5401
11575TIP3    H156216   3.571   2.761   2.609 -0.1316 -0.9592  0.2883
11575TIP3    H256217   3.466   2.651   2.605  0.1573 -1.2047 -0.9271
11576TIP3   OH256218   3.688   6.093   2.148  0.4342  0.0866  0.2067
11576TIP3    H156219   3.686   6.105   2.243 -0.8861 -0.6724  0.3030
11576TIP3    H256220   3.629   6.161   2.114 -1.3197 -1.3622  0.1904
11577TIP3   OH256221   0.151   4.768  14.749 -0.1210  0.6221  0.2109
11577TIP3    H156222   0.229   4.750  14.697  0.1227 -1.2346  1.1103
11577TIP3    H256223   0.183   4.817  14.825 -0.1944  1.7815 -0.4993
11578TIP3   OH256224   3.118   1.099   1.557 -0.8456  0.3242 -0.1819
11578TIP3    H156225   3.190   1.162   1.563 -1.5239  1.1616 -0.4562
11578TIP3    H256226   3.111   1.062   1.645  0.7535 -0.7605 -0.4673
11579TIP3   OH256227   1.522   1.225   2.908  0.1419 -0.1303 -0.6449
11579TIP3    H156228   1.548   1.140   2.872 -0.9156 -0.1556 -1.3763
11579TIP3    H256229   1.467   1.204   2.983 -0.2326 -0.1038 -0.9075
11580TIP3   OH256230   3.935   0.421  17.054 -0.5645  0.1650  0.3126
11580TIP3    H156231   3.949   0.349  16.993  1.9404 -0.0494  1.0432
11580TIP3    H256232   3.879   0.384  17.122  1.6532 -1.5691  1.3171
11581TIP3   OH256233   6.265   0.889  12.290 -0.4279 -0.3207  0.2109
11581TIP3    H156234   6.276   0.938  12.208  0.9412 -0.7898  0.0782
11581TIP3    H256235   6.353   0.859  12.311 -1.1081 -2.1037  0.6728
11582TIP3   OH256236   3.110   0.601  15.389 -0.8134 -0.2100  0.1100
11582TIP3    H156237   3.069   0.557  15.315 -0.3340 -1.4964  0.5937
11582TIP3    H256238   3.204   0.586  15.378 -0.8251 -1.8165  1.8204
11583TIP3   OH256239   6.212   3.894   1.772 -0.1100 -0.2991  0.4520
11583TIP3    H156240   6.149   3.878   1.701 -0.3091  1.1288  0.2702
11583TIP3    H256241   6.181   3.974   1.814  1.8221  0.7171  0.0633
11584TIP3   OH256242   0.929   6.073   0.954 -0.2657 -0.0590  0.1974
11584TIP3    H156243   0.965   6.002   1.007  0.2292  0.5407  0.6827
11584TIP3    H256244   0.880   6.029   0.884 -0.5590 -0.8630  0.8962
11585TIP3   OH256245   3.320   3.747  14.607  0.5402 -0.5214  0.2203
11585TIP3    H156246   3.245   3.691  14.586 -0.8217  0.8386  1.2653
11585TIP3    H256247   3.355   3.772  14.522 -0.3340 -0.9974 -0.2954
11586TIP3   OH256248   3.197   2.716   6.489 -0.4182 -0.3575 -0.2148
11586TIP3    H156249   3.194   2.644   6.552 -1.1401  1.0473  1.4187
11586TIP3    H256250   3.108   2.720   6.453 -1.4543  1.9031  2.3366
11587TIP3   OH256251   1.968   4.955   4.676  0.1362 -0.2760  0.3176
11587TIP3    H156252   2.063   4.965   4.686  0.1000 -0.3385  0.7480
11587TIP3    H256253   1.953   4.960   4.582  0.5917 -0.4753  0.2313
11588TIP3   OH256254   0.179   3.353  11.383  0.5988  0.9242  0.4561
11588TIP3    H156255   0.128   3.330  11.460 -1.3730 -1.4957 -1.3990
11588TIP3    H256256   0.168   3.448  11.375 -0.6421  0.9706  2.1391
11589TIP3   OH256257   2.832   5.285  14.544 -0.2231 -0.2142 -0.2390
11589TIP3    H156258   2.919   5.288  14.584  0.0675 -1.9056 -0.6661
11589TIP3    H256259   2.844   5.234  14.463 -1.6505 -0.7041 -0.1772
11590TIP3   OH256260   2.316   6.499   3.899 -0.6713  0.8932 -0.2761
11590TIP3    H156261   2.369   6.442   3.955 -1.1687  0.1433 -0.5451
11590TIP3    H256262   2.226   6.481   3.927 -0.8792  1.0242 -0.8528
11591TIP3   OH256263   5.664   6.178   0.570  0.0802  0.4356  0.4269
11591TIP3    H156264   5.634   6.109   0.629 -2.2005  0.5805 -0.4453
11591TIP3    H256265   5.750   6.203   0.603  0.8267 -2.5326  0.9850
11592TIP3   OH256266   6.405   2.319  15.030 -0.3448 -0.2509 -0.8113
11592TIP3    H156267   6.487   2.369  15.030 -0.5526  0.1152 -0.0012
11592TIP3    H256268   6.428   2.235  14.990  0.5377 -0.3075 -0.2292
11593TIP3   OH256269   5.372   0.364  14.738  0.5719  0.4656  0.1433
11593TIP3    H156270   5.322   0.384  14.659  0.5371  0.8455  0.2593
11593TIP3    H256271   5.400   0.273  14.726  2.2367  1.1100 -1.2214
11594TIP3   OH256272   0.090   2.659   0.805  0.0111  0.4725 -0.1176
11594TIP3    H156273   0.099   2.736   0.861  1.5508  0.2693 -0.0348
11594TIP3    H256274   0.111   2.585   0.862  2.6947  0.3387 -1.1292
11595TIP3   OH256275   2.076   4.863   3.529 -0.0607 -0.2509 -0.8173
11595TIP3    H156276   2.025   4.931   3.486 -0.6141  0.7853  1.3086
11595TIP3    H256277   2.162   4.903   3.543 -0.7138  0.5360  1.4231
11596TIP3   OH256278   6.099   5.367  12.341 -0.1934 -0.1339  0.4878
11596TIP3    H156279   6.018   5.378  12.391 -0.5086  0.0810 -0.0646
11596TIP3    H256280   6.164   5.343  12.407 -0.2169  1.7747  1.2687
11597TIP3   OH256281   3.614   0.244  16.465  0.1240  0.7913 -0.0022
11597TIP3    H156282   3.533   0.289  16.441  1.1899  2.6657 -0.3202
11597TIP3    H256283   3.681   0.283  16.408  1.0582 -1.7099 -0.7824
11598TIP3   OH256284   3.093   6.632   2.159 -0.4476 -0.1001 -0.5117
11598TIP3    H156285   3.086   6.578   2.238  0.2134  1.3106  0.5639
11598TIP3    H256286   3.161   6.696   2.180 -1.8330  1.7410 -1.3387
11599TIP3   OH256287   0.630   6.332  11.083  0.2379  0.1925  1.0730
11599TIP3    H156288   0.706   6.385  11.106 -1.2995  2.0050  2.2806
11599TIP3    H256289   0.560   6.395  11.068 -0.7626 -1.3422 -1.3004
11600TIP3   OH256290   5.977   0.244   2.382  0.1461 -0.0747 -0.5301
11600TIP3    H156291   5.904   0.262   2.323 -1.1744 -1.0520  0.7646
11600TIP3    H256292   6.027   0.326   2.383 -3.3208  2.2819  1.8670
11601TIP3   OH256293   2.093   4.126  16.329 -0.1261 -0.1308 -0.4646
11601TIP3    H156294   2.101   4.129  16.424  0.8847  1.3174 -0.5557
11601TIP3    H256295   2.039   4.202  16.307 -0.5272 -0.5746 -1.0326
11602TIP3   OH256296   1.992   3.144  13.809  0.2806  0.0117 -0.1214
11602TIP3    H156297   1.927   3.209  13.835  0.5163  0.2682 -0.1691
11602TIP3    H256298   1.941   3.070  13.777  0.0083  0.0854  0.1497
11603TIP3   OH256299   1.193   6.106  12.860  0.2538  0.0500 -0.1999
11603TIP3    H156300   1.155   6.182  12.905 -0.9507 -0.1825 -0.7699
11603TIP3    H256301   1.231   6.143  12.780 -1.7695 -0.0809 -1.3069
11604TIP3   OH256302   5.387   2.568  13.877 -0.0323  0.1291  0.1129
11604TIP3    H156303   5.453   2.532  13.936 -0.9345 -1.4662  0.2238
11604TIP3    H256304   5.364   2.653  13.915  0.5185 -0.1882  1.1931
11605TIP3   OH256305   3.084   6.783  12.348 -0.3353  0.4579  0.4295
11605TIP3    H156306   3.069   6.690  12.330 -2.1090  0.6395  0.7610
11605TIP3    H256307   3.160   6.806  12.295  0.5536 -1.3369  0.8586
11606TIP3   OH256308   5.235   1.547  13.748  0.1840 -0.0410  0.4296
11606TIP3    H156309   5.171   1.555  13.677  1.8646 -2.9481 -1.6345
11606TIP3    H256310   5.197   1.481  13.806  0.1465  0.1627  0.6371
11607TIP3   OH256311   1.893   1.254  16.093  0.1463  0.0290 -0.0237
11607TIP3    H156312   1.861   1.210  16.172 -1.3578  0.7818 -0.1794
11607TIP3    H256313   1.988   1.251  16.101  0.0262 -0.0096  1.7686
11608TIP3   OH256314   0.462   0.096  13.424  0.3680  0.3030  0.6374
11608TIP3    H156315   0.541   0.045  13.442  0.4142  0.4463  0.8360
11608TIP3    H256316   0.492   0.168  13.369  0.7244  1.4641  2.2993
11609TIP3   OH256317   5.052   1.864  14.386 -0.1245 -0.2646  0.3952
11609TIP3    H156318   5.135   1.873  14.433  0.2873  0.2380 -0.4026
11609TIP3    H256319   4.989   1.839  14.453  0.5848 -0.2141  1.0929
11610TIP3   OH256320   6.488   6.073  13.531 -0.1780  0.0464  0.1197
11610TIP3    H156321   6.452   6.161  13.539 -1.9494 -0.5603 -0.6926
11610TIP3    H256322   6.583   6.086  13.527 -0.3106  1.7850  1.4184
11611TIP3   OH256323   4.792   4.361  12.680 -0.5496 -0.1769 -0.5115
11611TIP3    H156324   4.843   4.295  12.633  2.8192  0.9463  1.2148
11611TIP3    H256325   4.763   4.315  12.759  0.6248 -0.0143  0.0362
11612TIP3   OH256326   3.005   5.153   0.494  0.3412  0.0018  0.9410
11612TIP3    H156327   3.016   5.173   0.401 -0.6780 -2.3509  0.2496
11612TIP3    H256328   2.917   5.187   0.516  0.2842 -0.0955  0.8606
11613TIP3   OH256329   6.568   6.022  10.954  0.1944 -0.8382 -0.0452
11613TIP3    H156330   6.616   5.989  10.878  0.8188 -1.1779  0.4829
11613TIP3    H256331   6.525   5.945  10.991 -0.5455 -0.5843 -0.3506
11614TIP3   OH256332   5.400   5.825  15.605  0.4475  0.3151  0.9127
11614TIP3    H156333   5.391   5.917  15.630  0.2855  0.5906 -0.1060
11614TIP3    H256334   5.331   5.780  15.655  0.3115  0.7962  1.1676
11615TIP3   OH256335   0.502   6.533   4.602 -0.0416 -0.0510 -0.0671
11615TIP3    H156336   0.478   6.533   4.695  0.0031  0.0071 -0.0557
11615TIP3    H256337   0.595   6.510   4.602 -0.4807 -2.0096 -0.2035
11616TIP3   OH256338   2.357   6.364   3.592 -0.1539 -1.0598  0.3687
11616TIP3    H156339   2.274   6.350   3.546 -0.1808 -0.8940  0.3664
11616TIP3    H256340   2.346   6.320   3.676 -0.0337 -1.5318  0.1380
11617TIP3   OH256341   1.595   1.417  11.365 -0.2020  0.6061  0.2987
11617TIP3    H156342   1.585   1.351  11.434 -2.5131  3.1167  2.5932
11617TIP3    H256343   1.543   1.383  11.292 -0.1739 -0.7375  0.8720
11618TIP3   OH256344   1.016   4.403  15.641 -0.0148  0.3112  0.0946
11618TIP3    H156345   1.110   4.384  15.641  0.8241  3.8733 -0.1193
11618TIP3    H256346   0.988   4.385  15.732  0.8872 -0.5152  0.2243
11619TIP3   OH256347   3.296   6.457  17.080 -0.0377 -0.2269  0.6440
11619TIP3    H156348   3.310   6.489  17.169 -2.0150  0.7305  0.6542
11619TIP3    H256349   3.242   6.523  17.038  0.9911 -0.5747 -1.3639
11620TIP3   OH256350   5.342   3.710   0.251  0.2040  0.5926  0.8094
11620TIP3    H156351   5.270   3.705   0.188 -0.3240  2.0156  1.2559
11620TIP3    H256352   5.404   3.772   0.211  1.6569 -1.2636  0.0161
11621TIP3   OH256353   2.557   3.473   4.886 -0.7277  0.5223  0.0669
11621TIP3    H156354   2.473   3.519   4.879 -1.7306 -1.3722 -1.0738
11621TIP3    H256355   2.575   3.443   4.797  0.6746  0.0512  0.4895
11622TIP3   OH256356   4.281   1.415  13.336 -0.2823  0.9382  0.3802
11622TIP3    H156357   4.209   1.418  13.399  1.1683 -2.2316  2.4219
11622TIP3    H256358   4.277   1.326  13.299  2.0035  0.9688 -0.1074
11623TIP3   OH256359   4.247   1.460   3.304  0.3248  0.5587  0.3047
11623TIP3    H156360   4.234   1.380   3.254  1.2935  1.5344 -1.6297
11623TIP3    H256361   4.339   1.458   3.330  0.6678  1.4908 -0.7118
11624TIP3   OH256362   6.786   2.985   1.352  0.7924 -0.1033  0.0893
11624TIP3    H156363   6.805   2.898   1.317 -0.8229 -1.0605  1.4380
11624TIP3    H256364   6.769   2.970   1.445  2.9841  2.0497  0.9263
11625TIP3   OH256365   3.546   5.364   0.378  0.2509  0.0197  0.5802
11625TIP3    H156366   3.497   5.295   0.333 -1.7265  1.9063 -0.3134
11625TIP3    H256367   3.532   5.346   0.471 -0.6950 -0.4614  0.3533
11626TIP3   OH256368   2.425   1.988  11.621 -0.0935 -0.0924  0.1276
11626TIP3    H156369   2.430   1.931  11.698  1.0813  1.2931  1.1336
11626TIP3    H256370   2.333   2.015  11.618  0.1918  1.4329  2.3286
11627TIP3   OH256371   2.443   5.717   3.733 -0.4612  0.3149 -0.5745
11627TIP3    H156372   2.415   5.631   3.763  0.9829  0.1340  0.3442
11627TIP3    H256373   2.517   5.699   3.676  0.7041  0.9934  0.6823
11628TIP3   OH256374   0.637   0.596  14.858  0.1910 -0.3142  0.4298
11628TIP3    H156375   0.724   0.568  14.885 -0.0541 -0.7199  0.8230
11628TIP3    H256376   0.583   0.517  14.865  0.2081 -0.5954 -1.7620
11629TIP3   OH256377   5.681   4.409  14.202  0.3336 -0.2857 -0.7058
11629TIP3    H156378   5.752   4.350  14.176 -0.0953 -1.1484  0.0376
11629TIP3    H256379   5.613   4.352  14.238 -0.1728  0.6381 -0.1296
11630TIP3   OH256380   0.946   4.260  12.002  0.0920  0.4116 -0.3976
11630TIP3    H156381   1.023   4.234  11.951  0.0710 -0.5958  0.0593
11630TIP3    H256382   0.901   4.178  12.022  0.5763  0.6373  1.9979
11631TIP3   OH256383   1.253   0.037  11.031 -0.2969  0.1271 -0.0734
11631TIP3    H156384   1.201  -0.033  11.072  0.9655  0.5887  2.5295
11631TIP3    H256385   1.195   0.074  10.964 -2.0514 -1.5266  0.4278
11632TIP3   OH256386   5.294   3.577   2.398 -0.3614  0.2870  0.5964
11632TIP3    H156387   5.349   3.503   2.420  0.3661  0.9556  1.0803
11632TIP3    H256388   5.284   3.573   2.303  0.6003  0.2097  0.4973
11633TIP3   OH256389   5.899   3.465  13.986 -0.1112  0.2120 -0.5665
11633TIP3    H156390   5.879   3.472  14.080  1.9324  1.2813 -0.1628
11633TIP3    H256391   5.932   3.376  13.976 -1.0668 -0.1707 -0.4499
11634TIP3   OH256392   6.729   1.647  13.456  0.2786 -0.0874  0.3201
11634TIP3    H156393   6.749   1.602  13.373 -4.8092 -1.1287 -0.6742
11634TIP3    H256394   6.683   1.726  13.429 -0.2202  0.2825  2.1717
11635TIP3   OH256395   6.602   4.658   3.520 -0.0892  0.6011  0.6747
11635TIP3    H156396   6.519   4.703   3.539  0.0963  0.5131  1.7472
11635TIP3    H256397   6.575   4.572   3.488 -0.4266  0.4383  1.3582
11636TIP3   OH256398   3.951   6.087  16.595  0.3795 -0.3535 -0.1669
11636TIP3    H156399   3.917   6.085  16.506 -3.1152  1.6436  0.9202
11636TIP3    H256400   4.022   6.150  16.592  0.4185 -0.4287 -1.5535
11637TIP3   OH256401   6.002   1.668   1.921 -0.4346  0.3171  0.5119
11637TIP3    H156402   6.013   1.574   1.925 -0.2433  0.3312  0.3229
11637TIP3    H256403   6.057   1.703   1.991 -0.9096  0.2576  0.9218
11638TIP3   OH256404   4.245   4.627  10.484 -0.3381 -0.2364 -0.3786
11638TIP3    H156405   4.179   4.690  10.455 -0.7554 -0.8477 -0.7822
11638TIP3    H256406   4.201   4.542  10.478  0.8606 -0.7894 -1.8448
11639TIP3   OH256407   3.181   5.804  13.800  0.8505 -0.2548  0.9457
11639TIP3    H156408   3.123   5.809  13.877 -1.2943 -1.0688 -0.5057
11639TIP3    H256409   3.176   5.890  13.760 -0.5513 -0.7066  0.0709
11640TIP3   OH256410   1.616   0.884   2.858  0.3347  0.3602 -0.1593
11640TIP3    H156411   1.548   0.873   2.924 -0.4118  0.2085 -0.9333
11640TIP3    H256412   1.569   0.916   2.780  0.5882 -2.6318 -1.7036
11641TIP3   OH256413   2.111   4.444   4.400 -0.2572 -0.0521  0.5280
11641TIP3    H156414   2.078   4.529   4.371  0.1858  0.7433  2.2329
11641TIP3    H256415   2.042   4.408   4.455 -0.5096 -0.9002 -0.3118
11642TIP3   OH256416   5.836   5.249  12.481 -0.1107  0.5018 -0.2832
11642TIP3    H156417   5.816   5.276  12.570 -0.3584 -0.2290 -0.1165
11642TIP3    H256418   5.798   5.318  12.426 -0.5943  0.5804  0.1431
11643TIP3   OH256419   5.024   1.511   2.078 -0.1140  0.5471 -0.1962
11643TIP3    H156420   5.060   1.600   2.069  1.4573 -0.1865 -1.8036
11643TIP3    H256421   4.998   1.486   1.989 -0.3030 -0.6985  0.1874
11644TIP3   OH256422   3.034   5.327   3.159  0.4535 -0.4309  0.2206
11644TIP3    H156423   3.113   5.325   3.211  0.7035 -0.8291 -0.1595
11644TIP3    H256424   3.059   5.371   3.078  0.0012  0.4239  0.5332
11645TIP3   OH256425   3.377   5.226  14.019 -0.1314 -0.4295  0.8912
11645TIP3    H156426   3.378   5.312  14.060  1.8847 -1.3736  3.0651
11645TIP3    H256427   3.419   5.238  13.934  2.2183  0.3933  2.0936
11646TIP3   OH256428   5.974   4.276   0.306  0.6454 -0.7815 -0.0904
11646TIP3    H156429   5.901   4.330   0.336  0.5322 -0.7878 -0.3575
11646TIP3    H256430   6.038   4.281   0.378  2.4002  2.9336 -1.6317
11647TIP3   OH256431   4.870   1.417  14.813  0.0506 -0.0103  0.3455
11647TIP3    H156432   4.805   1.415  14.884  1.5119 -0.7742  1.7451
11647TIP3    H256433   4.859   1.333  14.768 -1.5111  0.8650 -0.9820
11648TIP3   OH256434   1.391   3.248   3.508  0.0403  0.5589 -0.3756
11648TIP3    H156435   1.309   3.240   3.459 -0.3050 -0.7983  0.3942
11648TIP3    H256436   1.459   3.245   3.441 -0.5270  2.2478 -1.0766
11649TIP3   OH256437   0.646   6.096  15.101  0.1946 -0.1356  0.9706
11649TIP3    H156438   0.576   6.050  15.146 -1.3984 -0.0618 -1.2656
11649TIP3    H256439   0.617   6.102  15.010  2.2594  1.5653  0.3187
11650TIP3   OH256440   1.256   0.293  15.275 -0.1533  0.1737 -0.1620
11650TIP3    H156441   1.181   0.234  15.271 -0.4915  0.4648  1.1634
11650TIP3    H256442   1.324   0.243  15.321  0.4332 -0.0442 -1.2414
11651TIP3   OH256443   3.950   3.670  15.926 -0.1833  0.5135 -0.1132
11651TIP3    H156444   4.021   3.703  15.980 -0.7645  0.9440  0.4021
11651TIP3    H256445   3.947   3.576  15.945 -0.2543  0.6269  0.4572
11652TIP3   OH256446   5.577   0.977  14.162  0.3093  0.4276  0.1405
11652TIP3    H156447   5.561   1.023  14.080  0.7788 -1.1998 -0.9340
11652TIP3    H256448   5.518   0.901  14.158 -0.5427  0.9495  1.8980
11653TIP3   OH256449   6.144   2.021  13.363 -0.1022  0.2160  0.3115
11653TIP3    H156450   6.049   2.020  13.349  0.1092 -0.3001 -1.3341
11653TIP3    H256451   6.179   2.061  13.283  1.0349  1.0356  1.1957
11654TIP3   OH256452   6.676   5.370  12.817 -0.5470 -0.2331 -0.2563
11654TIP3    H156453   6.730   5.344  12.892  0.0495  1.0695 -0.2135
11654TIP3    H256454   6.630   5.290  12.792  0.7757 -1.1808  0.2327
11655TIP3   OH256455   6.611   3.126   3.698  0.4114 -0.2484  0.3075
11655TIP3    H156456   6.667   3.164   3.766 -1.1675  1.6132  0.6376
11655TIP3    H256457   6.542   3.080   3.747  0.6820 -1.1099 -0.0912
11656TIP3   OH256458   3.513   0.734  13.365 -0.3783  0.1968 -0.1422
11656TIP3    H156459   3.444   0.772  13.418  0.6415  0.4624  1.0382
11656TIP3    H256460   3.472   0.659  13.321 -1.2638  0.0069  0.9687
11657TIP3   OH256461   3.916   5.264  13.167 -0.1091  0.2315  0.1582
11657TIP3    H156462   3.975   5.328  13.128 -1.6593  1.1336 -0.7905
11657TIP3    H256463   3.888   5.209  13.094 -0.9927  0.2733  0.4469
11658TIP3   OH256464   2.252   2.528  11.206 -0.5626 -0.1494  0.1749
11658TIP3    H156465   2.243   2.447  11.157 -0.9464 -0.2137  0.3465
11658TIP3    H256466   2.294   2.589  11.146 -0.0703 -0.5429  0.1194
11659TIP3   OH256467   3.143   3.376  13.020  0.1296  0.3339 -0.4108
11659TIP3    H156468   3.180   3.387  12.932  2.4659 -0.4598  0.3999
11659TIP3    H256469   3.073   3.442  13.025 -1.1327 -0.6129 -3.3632
11660TIP3   OH256470   2.134   3.261  13.094 -0.4366  0.1618  0.6873
11660TIP3    H156471   2.179   3.204  13.157 -0.7774 -0.3169  0.5053
11660TIP3    H256472   2.136   3.211  13.012 -2.0866 -0.2950  0.8757
11661TIP3   OH256473   3.721   1.380   5.577  0.3224 -0.1212 -0.4311
11661TIP3    H156474   3.764   1.313   5.525 -2.4192  0.2446 -3.5174
11661TIP3    H256475   3.777   1.457   5.569  0.6344 -0.4653 -1.8145
11662TIP3   OH256476   4.783   4.475   1.680  0.1332  0.2549 -0.4815
11662TIP3    H156477   4.751   4.385   1.682  0.0639  0.2747 -0.6397
11662TIP3    H256478   4.753   4.515   1.761 -0.2960  0.2907 -0.6578
11663TIP3   OH256479   3.583   2.616  13.698 -0.1499  0.5020  0.0844
11663TIP3    H156480   3.591   2.561  13.620 -2.2633  1.3311 -0.7770
11663TIP3    H256481   3.507   2.582  13.745 -0.2312  1.3815  0.6217
11664TIP3   OH256482   6.061   6.534   2.304  0.2843  0.1300 -0.0757
11664TIP3    H156483   6.034   6.622   2.330 -3.0707 -1.4854  2.7392
11664TIP3    H256484   6.004   6.511   2.231  1.2655  0.2679 -0.9162
11665TIP3   OH256485   2.126   3.026  13.387 -0.1981  0.4854 -0.6138
11665TIP3    H156486   2.103   3.109  13.428 -0.9436  0.1389 -0.3159
11665TIP3    H256487   2.208   3.000  13.429 -0.8867  0.1948  0.5847
11666TIP3   OH256488   3.923   0.788  15.405 -0.0296 -0.1877  0.1689
11666TIP3    H156489   3.957   0.849  15.470  1.3410 -0.6863 -0.0536
11666TIP3    H256490   4.001   0.751  15.364 -0.7880  1.2018 -2.8214
11667TIP3   OH256491   3.255   0.541   0.599  0.3255 -0.0749 -0.2349
11667TIP3    H156492   3.322   0.481   0.564 -0.0538 -0.0054 -1.0849
11667TIP3    H256493   3.279   0.550   0.692 -0.5117 -2.8135  0.3660
11668TIP3   OH256494   3.794   5.957  13.541 -0.2928  0.5607  0.3590
11668TIP3    H156495   3.758   5.878  13.581 -0.1890  1.2280  1.8260
11668TIP3    H256496   3.885   5.960  13.569  0.0438  0.5855 -0.6774
11669TIP3   OH256497   5.020   6.690   5.364  0.4614 -0.1799  0.3830
11669TIP3    H156498   4.972   6.746   5.424 -0.6489 -0.4908 -0.1984
11669TIP3    H256499   4.955   6.631   5.328  0.8961  0.5831 -1.8257
11670TIP3   OH256500   3.926   0.781  12.232  0.0283 -0.5016  0.0083
11670TIP3    H156501   3.866   0.750  12.165  0.8173 -0.0636 -0.9373
11670TIP3    H256502   4.013   0.759  12.199  0.5346  1.2333  0.0494
11671TIP3   OH256503   2.871   4.030  12.277 -0.0229  0.4847 -0.5135
11671TIP3    H156504   2.877   4.088  12.353  1.5306 -0.0528 -0.1963
11671TIP3    H256505   2.923   3.953  12.301 -0.2059 -0.0640 -1.7890
11672TIP3   OH256506   6.693   3.671   4.340 -0.3807 -0.6992  0.2681
11672TIP3    H156507   6.724   3.758   4.315  1.4644 -1.6490 -0.8599
11672TIP3    H256508   6.649   3.637   4.262  0.6833 -1.5483  0.0126
11673TIP3   OH256509   1.131   1.148  10.567  0.3601  0.1328 -0.2292
11673TIP3    H156510   1.216   1.129  10.608  0.6682  0.8418 -0.5142
11673TIP3    H256511   1.142   1.236  10.530 -0.5146  0.2410 -0.2391
11674TIP3   OH256512   6.624   3.167   2.233  0.4214  0.4122 -0.3427
11674TIP3    H156513   6.710   3.145   2.269 -0.0567  0.7662  1.0767
11674TIP3    H256514   6.633   3.257   2.201  0.7916  0.1679 -0.9379
11675TIP3   OH256515   0.368   5.212  14.320  0.5241 -0.0977 -0.1436
11675TIP3    H156516   0.316   5.138  14.351  0.4630 -0.9048 -2.0799
11675TIP3    H256517   0.307   5.264  14.267  1.2748 -0.2312 -1.1636
11676TIP3   OH256518   3.136   1.056   4.308  0.4255  0.4104  0.1119
11676TIP3    H156519   3.214   1.001   4.318 -0.4968 -1.2887 -1.3140
11676TIP3    H256520   3.153   1.133   4.361  1.1585 -1.9183  3.5940
11677TIP3   OH256521   4.461   0.825   6.040  0.4074 -0.3444 -0.2233
11677TIP3    H156522   4.425   0.856   6.123  1.3486  0.0018  0.0742
11677TIP3    H256523   4.429   0.735   6.031 -0.0382 -0.2414  0.3030
11678TIP3   OH256524   6.573   6.279   5.946 -0.3256  0.1358  0.3324
11678TIP3    H156525   6.651   6.233   5.976 -1.3838 -0.3271  2.5917
11678TIP3    H256526   6.555   6.240   5.860  1.8629  0.2522 -0.2412
11679TIP3   OH256527   0.102   4.747  16.807 -0.0699  0.1332 -0.2714
11679TIP3    H156528   0.033   4.745  16.873  0.0405  1.7013 -0.0653
11679TIP3    H256529   0.056   4.752  16.723 -0.2026 -0.2904 -0.2261
11680TIP3   OH256530   5.761   5.674  13.610 -0.3659 -0.1510  0.3830
11680TIP3    H156531   5.809   5.633  13.682 -0.6793  1.2188  1.4073
11680TIP3    H256532   5.709   5.743  13.651  0.2054  1.3488 -1.2655
11681TIP3   OH256533   6.582   6.522   2.076  0.2558  0.7444  0.3119
11681TIP3    H156534   6.607   6.540   1.985  0.4841  0.7910  0.3854
11681TIP3    H256535   6.486   6.516   2.073  0.2293  1.2037  0.1507
11682TIP3   OH256536   4.906   1.282  17.052  0.0037 -0.0030  0.3215
11682TIP3    H156537   4.955   1.362  17.036 -0.4985  0.0155 -1.2943
11682TIP3    H256538   4.835   1.284  16.988  0.7324 -2.3522 -0.6713
11683TIP3   OH256539   6.716   3.673  14.648 -0.1707 -0.4944 -0.1521
11683TIP3    H156540   6.781   3.737  14.676 -2.1220  2.1653 -1.2276
11683TIP3    H256541   6.741   3.651  14.558  0.8259 -1.7899  0.4062
11684TIP3   OH256542   4.566   0.202  14.714  0.1275  0.3455 -0.0557
11684TIP3    H156543   4.474   0.193  14.738  0.1904 -0.3815 -0.0581
11684TIP3    H256544   4.573   0.155  14.631  0.6052 -0.0819  0.2193
11685TIP3   OH256545   4.355   1.679   0.440 -0.5067  0.8003  0.7455
11685TIP3    H156546   4.323   1.723   0.361 -1.3930 -0.9423  0.1009
11685TIP3    H256547   4.276   1.645   0.482  0.1752 -0.5916  0.9571
11686TIP3   OH256548   3.461   4.222   2.556  0.3567  0.1214  0.4080
11686TIP3    H156549   3.381   4.180   2.526 -0.2946  0.3150  1.8069
11686TIP3    H256550   3.448   4.235   2.649  1.3850  1.5670  0.3881
11687TIP3   OH256551   1.410   0.301  11.866  0.4837 -1.1408  0.8594
11687TIP3    H156552   1.440   0.360  11.935 -1.4952  0.7093  0.2630
11687TIP3    H256553   1.334   0.257  11.904 -1.1184  0.4807 -0.2965
11688TIP3   OH256554   1.693   5.634   2.473 -0.2032  0.3698 -0.1821
11688TIP3    H156555   1.677   5.541   2.457  0.6264 -0.0543  1.3092
11688TIP3    H256556   1.686   5.674   2.386 -0.0225 -1.1613 -0.9416
11689TIP3   OH256557   1.266   4.948   5.389  0.3700  0.0718  0.7461
11689TIP3    H156558   1.257   5.008   5.316  0.3086  0.4789  1.0868
11689TIP3    H256559   1.302   5.001   5.460 -0.5903 -0.0528  1.3505
11690TIP3   OH256560   5.645   0.023  13.599  0.4981 -0.3111 -0.4280
11690TIP3    H156561   5.668   0.014  13.692 -0.4399  0.1038 -0.1456
11690TIP3    H256562   5.608  -0.062  13.576  1.3341 -0.6394 -0.6145
11691TIP3   OH256563   2.612   4.016   1.224 -0.4754 -0.1249 -0.4559
11691TIP3    H156564   2.592   4.058   1.141 -0.1225  1.5475  0.2578
11691TIP3    H256565   2.707   4.010   1.226 -0.0719  3.6966  1.4723
11692TIP3   OH256566   1.815   3.334  10.982  0.1288 -0.4187  0.0413
11692TIP3    H156567   1.862   3.394  10.923  0.0400 -0.8527 -0.4746
11692TIP3    H256568   1.791   3.260  10.927 -0.7488 -0.4255  0.4053
11693TIP3   OH256569   2.822   5.348  11.738 -0.0356  0.2529 -0.7374
11693TIP3    H156570   2.870   5.426  11.711  2.0873 -1.2871 -1.7354
11693TIP3    H256571   2.808   5.299  11.656 -2.8710  0.3094 -0.4063
11694TIP3   OH256572   2.473   6.178  13.934  0.9635 -0.3294 -0.3151
11694TIP3    H156573   2.430   6.203  13.852  0.8578 -0.8050 -0.4098
11694TIP3    H256574   2.554   6.229  13.934  0.3513  0.6486 -0.0788
11695TIP3   OH256575   1.445   2.398  12.905  0.4215 -0.0412  0.0519
11695TIP3    H156576   1.504   2.384  12.979  2.4217 -0.7125 -1.5734
11695TIP3    H256577   1.421   2.490  12.909  2.6902  0.6064  0.0569
11696TIP3   OH256578   3.829   3.578   5.056  0.0297 -0.7192  0.0745
11696TIP3    H156579   3.798   3.499   5.012 -1.0525 -0.7138  0.7742
11696TIP3    H256580   3.866   3.546   5.138 -0.8412 -0.4811  0.5758
11697TIP3   OH256581   6.719   0.885   1.755 -0.3070 -0.2924  0.3780
11697TIP3    H156582   6.744   0.794   1.738  0.6988 -0.3926  2.2139
11697TIP3    H256583   6.719   0.894   1.850  0.7322  1.9166  0.2501
11698TIP3   OH256584   5.713   2.970   4.524 -0.1922  0.2611 -0.4372
11698TIP3    H156585   5.727   3.007   4.611  0.9732 -0.1864 -0.4127
11698TIP3    H256586   5.674   2.884   4.541 -0.1939  0.2737 -0.3765
11699TIP3   OH256587   6.227   0.895  15.177  0.5949 -0.4781  0.9204
11699TIP3    H156588   6.290   0.910  15.107  0.2689 -0.0774  0.7104
11699TIP3    H256589   6.278   0.904  15.258  0.4274  1.9175  0.8382
11700TIP3   OH256590   2.500   1.842   5.361 -0.2079  0.7045 -0.5751
11700TIP3    H156591   2.575   1.810   5.311  0.2827  0.8768  0.0376
11700TIP3    H256592   2.471   1.920   5.314 -0.9604 -0.1936 -1.6698
11701TIP3   OH256593   3.617   0.441  12.705  0.0190  0.3739  0.3186
11701TIP3    H156594   3.560   0.366  12.687 -0.2161  0.6403 -0.0651
11701TIP3    H256595   3.700   0.402  12.733 -0.3468 -0.0183  0.8850
11702TIP3   OH256596   2.715   1.437  11.565 -0.0527 -0.3406  0.0286
11702TIP3    H156597   2.738   1.344  11.561 -0.3049 -0.5305  1.8404
11702TIP3    H256598   2.621   1.439  11.548 -0.0596 -0.4325  0.0541
11703TIP3   OH256599   1.828   3.378   5.916 -0.2303 -0.3256  0.4197
11703TIP3    H156600   1.847   3.470   5.901 -0.4372 -0.5918 -1.9140
11703TIP3    H256601   1.888   3.332   5.856 -0.6844 -1.6646  0.9608
11704TIP3   OH256602   1.494   2.709   3.265  0.6313 -0.4686 -0.5363
11704TIP3    H156603   1.574   2.739   3.310  1.9569 -1.8791 -1.8669
11704TIP3    H256604   1.517   2.623   3.230 -1.4736 -0.8705 -1.0284
11705TIP3   OH256605   0.568   6.706  11.134 -0.4440 -0.9777 -0.4361
11705TIP3    H156606   0.626   6.636  11.165 -0.2106 -0.7122 -0.2736
11705TIP3    H256607   0.526   6.669  11.057  0.0928 -1.1012 -0.6748
11706TIP3   OH256608   4.404   0.604  13.299 -0.2275  0.7138 -0.3742
11706TIP3    H156609   4.343   0.531  13.290  0.1478  0.4085 -0.4519
11706TIP3    H256610   4.464   0.596  13.225  0.6896  0.2621  0.3885
11707TIP3   OH256611   4.824   2.513  12.738  0.5547  0.3239  0.0622
11707TIP3    H156612   4.816   2.551  12.826 -2.9469  0.3475 -0.1412
11707TIP3    H256613   4.774   2.432  12.742  1.5416 -0.4257 -1.5862
11708TIP3   OH256614   5.455   5.426  14.791 -0.1032 -0.0357  0.6846
11708TIP3    H156615   5.514   5.375  14.846 -0.0979 -1.3451 -0.4517
11708TIP3    H256616   5.423   5.362  14.726  0.6365  1.6039 -1.4234
11709TIP3   OH256617   0.719   6.738  14.370 -0.5335 -0.1362 -0.0458
11709TIP3    H156618   0.779   6.711  14.439 -1.2188 -4.5867 -0.8884
11709TIP3    H256619   0.639   6.763  14.416  0.0386  0.0232  0.8822
11710TIP3   OH256620   6.441   5.454   5.986  0.1975 -0.8897  0.1081
11710TIP3    H156621   6.437   5.409   6.071 -1.5518 -0.1864  0.4320
11710TIP3    H256622   6.480   5.390   5.927 -1.5184 -2.5785  0.7211
11711TIP3   OH256623   1.400   0.340   4.819 -0.4514  0.1086 -0.5042
11711TIP3    H156624   1.373   0.427   4.850  0.7812 -0.0578  1.1758
11711TIP3    H256625   1.318   0.296   4.797 -1.5256  0.2334  2.7129
11712TIP3   OH256626   5.571   4.635   5.005  0.3558 -0.2534 -0.2643
11712TIP3    H156627   5.558   4.543   5.028 -0.6002  0.2142  1.2069
11712TIP3    H256628   5.648   4.661   5.056 -0.8342  0.3670  1.3231
11713TIP3   OH256629   6.568   0.454   5.956  0.7338 -0.1764  0.1969
11713TIP3    H156630   6.553   0.541   5.920  0.9615 -0.3478 -0.3234
11713TIP3    H256631   6.560   0.465   6.050 -1.5055 -0.0293  0.0381
11714TIP3   OH256632   6.815   1.305  13.274  0.5935  0.6143  0.3615
11714TIP3    H156633   6.873   1.229  13.264 -0.1500 -0.3891  2.9798
11714TIP3    H256634   6.842   1.346  13.355  0.2336  2.5564 -0.4375
11715TIP3   OH256635   1.868   6.035  15.122 -0.1741  0.2765  0.3434
11715TIP3    H156636   1.789   6.090  15.120 -1.6699 -1.6097  2.1710
11715TIP3    H256637   1.896   6.030  15.031 -2.8184  0.1643 -0.5634
11716TIP3   OH256638   5.314   0.626   5.269  0.8076 -0.3392  1.0730
11716TIP3    H156639   5.303   0.547   5.323  0.1746 -1.0501 -0.0519
11716TIP3    H256640   5.374   0.681   5.319  0.2994 -0.9984  2.4596
11717TIP3   OH256641   6.295   0.214   4.736 -0.6077 -0.4374  0.6129
11717TIP3    H156642   6.362   0.213   4.668  0.3242 -3.3276  1.4394
11717TIP3    H256643   6.214   0.237   4.690  0.2877 -0.6471 -1.1381
11718TIP3   OH256644   0.123   6.050   3.090 -0.3200 -0.0584 -0.0325
11718TIP3    H156645   0.125   6.139   3.125 -0.3716 -0.9199  2.3802
11718TIP3    H256646   0.046   6.047   3.034 -2.1927  0.5878  2.3672
11719TIP3   OH256647   2.994   5.894   5.086  0.0789  0.9086  0.2042
11719TIP3    H156648   2.937   5.875   5.012 -0.4092  0.0178  0.7923
11719TIP3    H256649   3.081   5.904   5.047 -0.2892  1.1630 -0.5695
11720TIP3   OH256650   1.324   5.673  13.597 -0.2090  0.0405  0.0273
11720TIP3    H156651   1.333   5.687  13.691  0.1472  1.8854 -0.2401
11720TIP3    H256652   1.238   5.710  13.575 -0.2131 -0.2103 -0.3959
11721TIP3   OH256653   3.072   0.191  15.877  0.6352 -0.0740  0.0881
11721TIP3    H156654   3.036   0.143  15.802  0.7721 -0.8016  0.4824
11721TIP3    H256655   3.021   0.159  15.952  0.6033  0.5347  0.3314
11722TIP3   OH256656   2.862   4.670   5.046 -0.6260 -0.0521 -0.0788
11722TIP3    H156657   2.819   4.585   5.046 -0.4314 -0.1689  1.1595
11722TIP3    H256658   2.910   4.673   4.963 -0.0822 -1.4309  0.1606
11723TIP3   OH256659   5.282   4.741   0.907 -0.2438  0.5117  0.6023
11723TIP3    H156660   5.362   4.696   0.882 -0.4520  0.2769  0.3576
11723TIP3    H256661   5.299   4.771   0.997  0.8583  2.1686 -0.1023
11724TIP3   OH256662   0.068   1.836   1.987  0.4553  0.0222  0.3446
11724TIP3    H156663  -0.019   1.862   1.958  0.7067  0.2977 -0.1742
11724TIP3    H256664   0.117   1.918   1.996  0.4680 -0.0743  1.2913
11725TIP3   OH256665   4.339   4.618  13.399  0.2547 -0.2441 -0.2810
11725TIP3    H156666   4.248   4.616  13.426  0.3718 -0.0999  0.1314
11725TIP3    H256667   4.360   4.712  13.394  0.1733 -0.2617 -1.0851
11726TIP3   OH256668   5.881   1.659   0.796 -0.1434 -0.4906  0.2922
11726TIP3    H156669   5.795   1.676   0.835 -0.8326 -2.2349 -0.3629
11726TIP3    H256670   5.898   1.567   0.815  1.0381 -0.4918 -0.6514
11727TIP3   OH256671   5.089   5.310   3.964  0.5896  0.1748 -0.4509
11727TIP3    H156672   5.033   5.233   3.951 -0.3248  0.1019  2.9021
11727TIP3    H256673   5.172   5.274   3.997  0.5347  0.5606  0.1182
11728TIP3   OH256674   4.443   5.232   1.699  0.3044 -0.2763  0.4181
11728TIP3    H156675   4.530   5.260   1.729  0.5066 -1.0083  0.5472
11728TIP3    H256676   4.386   5.306   1.718  0.4921 -0.5414  2.3120
11729TIP3   OH256677   1.978   5.907  13.589  0.2092 -1.0446 -0.2845
11729TIP3    H156678   2.067   5.878  13.610 -0.5741 -2.5831  1.0373
11729TIP3    H256679   1.941   5.933  13.673  0.3837  2.6741 -1.1827
11730TIP3   OH256680   0.120   0.747   5.675  0.6153 -0.1608  0.1711
11730TIP3    H156681   0.117   0.653   5.690  1.5696 -0.2569 -0.2175
11730TIP3    H256682   0.034   0.778   5.703  1.2677 -0.7299  3.1660
11731TIP3   OH256683   6.311   5.155   3.344 -0.1400  0.1220 -0.5057
11731TIP3    H156684   6.361   5.160   3.426 -2.4460  0.3707  0.9833
11731TIP3    H256685   6.322   5.065   3.314  1.4219  0.2587 -0.4064
11732TIP3   OH256686   6.724   0.922  12.631  0.0729  0.3007  0.0069
11732TIP3    H156687   6.811   0.912  12.594 -1.1769  0.4528 -3.3239
11732TIP3    H256688   6.687   0.998  12.586 -1.7754  0.2591  1.3411
11733TIP3   OH256689   6.728   3.219   5.130  0.5652 -0.0002 -0.2282
11733TIP3    H156690   6.771   3.230   5.215  0.4780 -0.1788 -0.1609
11733TIP3    H256691   6.713   3.309   5.099  2.9740  0.1284 -1.2870
11734TIP3   OH256692   1.140   5.260  13.019 -0.1105  0.7632  0.4643
11734TIP3    H156693   1.054   5.218  13.030  0.3638 -0.2880  0.2178
11734TIP3    H256694   1.150   5.315  13.097 -1.1698  1.1944  0.3134
11735TIP3   OH256695   2.711   2.155  14.125  0.1123 -0.3748  0.4097
11735TIP3    H156696   2.655   2.104  14.184  0.0597 -0.7323  0.0568
11735TIP3    H256697   2.756   2.217  14.182 -1.4092  0.6208  0.5909
11736TIP3   OH256698   3.017   5.798  14.025  0.4317  0.1127  0.1568
11736TIP3    H156699   3.066   5.829  14.102  0.6782  0.3548 -0.0928
11736TIP3    H256700   2.927   5.823  14.043  0.7235  1.6510 -0.3519
11737TIP3   OH256701   4.470   3.805   4.860  0.2613 -0.6210 -0.1838
11737TIP3    H156702   4.386   3.850   4.868  0.7047  0.2782 -0.3481
11737TIP3    H256703   4.449   3.720   4.823 -0.6234 -0.5886  0.2150
11738TIP3   OH256704   2.033   4.804   6.336  0.2853 -0.3926 -0.2273
11738TIP3    H156705   1.969   4.850   6.391  1.5750  1.1687  0.0432
11738TIP3    H256706   2.074   4.740   6.394  1.6606  1.2637  0.7120
11739TIP3   OH256707   4.910   0.464  12.408 -0.0458 -0.1023  0.6198
11739TIP3    H156708   4.906   0.429  12.319  0.6556 -1.0935  0.9654
11739TIP3    H256709   5.002   0.483  12.423 -0.2706  0.8998  0.8391
11740TIP3   OH256710   1.711   1.656   2.987 -0.5874  0.4371 -0.1523
11740TIP3    H156711   1.645   1.587   2.975  0.4393 -0.6745  0.4215
11740TIP3    H256712   1.749   1.668   2.900 -0.4063 -0.1061 -0.1522
11741TIP3   OH256713   0.525   3.480   4.275  0.1216 -0.1093  0.4558
11741TIP3    H156714   0.471   3.551   4.312 -0.1867 -0.4186  0.6067
11741TIP3    H256715   0.512   3.487   4.181  1.6736  1.3019  0.2900
11742TIP3   OH256716   2.639   0.716  12.802  0.4301 -0.2105 -0.0228
11742TIP3    H156717   2.566   0.684  12.749  0.3179  0.3600 -0.2193
11742TIP3    H256718   2.709   0.653  12.786  0.6127  0.2873 -1.3667
11743TIP3   OH256719   1.943   2.718   0.571  0.4384 -0.1193  0.9414
11743TIP3    H156720   1.970   2.689   0.658 -0.8389 -1.8961  0.7939
11743TIP3    H256721   1.848   2.719   0.574  0.3889  1.0893 -0.0641
11744TIP3   OH256722   0.350   4.212   2.682 -0.2557  0.4617  0.0836
11744TIP3    H156723   0.329   4.303   2.699 -0.8225  0.1840  0.9639
11744TIP3    H256724   0.396   4.212   2.598  1.4403  1.7930  0.9561
11745TIP3   OH256725   1.624   6.284   0.434  0.6779  0.0877  0.2336
11745TIP3    H156726   1.662   6.234   0.362 -0.9209 -0.9741  0.0687
11745TIP3    H256727   1.533   6.254   0.438  0.7039  0.1855  2.6408
11746TIP3   OH256728   2.233   0.329   1.192  0.2880  0.3825  0.1482
11746TIP3    H156729   2.215   0.420   1.215 -0.9804  0.6545 -1.6689
11746TIP3    H256730   2.318   0.331   1.148  0.4422  0.6159  0.4541
11747TIP3   OH256731   0.621   3.377   1.843  0.0490 -0.2086  0.0075
11747TIP3    H156732   0.686   3.325   1.795  0.0900  0.6327 -0.8837
11747TIP3    H256733   0.620   3.339   1.930  0.4822 -1.3470 -0.4606
11748TIP3   OH256734   2.011   3.786  16.465  0.1519 -0.0314  0.0152
11748TIP3    H156735   2.051   3.737  16.393 -1.1083 -1.0526 -0.0080
11748TIP3    H256736   1.931   3.823  16.428 -0.6774 -0.8271  0.9443
11749TIP3   OH256737   0.921   6.606   4.069  0.2594 -0.1390 -0.1578
11749TIP3    H156738   0.866   6.528   4.064  0.8215 -0.4973 -1.0417
11749TIP3    H256739   0.860   6.679   4.058  0.1223 -0.5718 -3.2819
11750TIP3   OH256740   1.420   0.713  13.589 -0.5307  0.6466 -0.2165
11750TIP3    H156741   1.358   0.727  13.518 -0.4906 -0.7412 -0.5482
11750TIP3    H256742   1.489   0.658  13.551  0.0085  0.7274  0.6167
11751TIP3   OH256743   0.990   5.834   0.796 -0.2622 -0.5322 -0.6484
11751TIP3    H156744   0.922   5.767   0.790  0.0821 -0.9493 -0.0767
11751TIP3    H256745   1.030   5.819   0.882 -0.0646  0.2989 -0.5920
11752TIP3   OH256746   5.849   4.394   3.040 -0.0625 -0.1036 -0.0224
11752TIP3    H156747   5.910   4.445   2.986 -0.7356  0.1742 -0.5332
11752TIP3    H256748   5.905   4.351   3.104  0.5535  1.1012  0.2852
11753TIP3   OH256749   4.256   4.027   4.735  0.1452  0.8660 -0.4123
11753TIP3    H156750   4.176   4.073   4.759 -0.5507 -0.8488  0.7704
11753TIP3    H256751   4.242   3.937   4.765  2.1744  0.3136 -0.9488
11754TIP3   OH256752   4.411   1.946  12.598 -0.3129  0.4231  0.4511
11754TIP3    H156753   4.487   2.003  12.603  0.5948 -0.6379 -0.6105
11754TIP3    H256754   4.427   1.879  12.665  0.7992 -1.0131 -1.1540
11755TIP3   OH256755   3.536   4.221  13.658 -0.1825  0.6617  0.4340
11755TIP3    H156756   3.499   4.272  13.586 -0.7948 -1.4104 -0.7890
11755TIP3    H256757   3.508   4.131  13.641  1.4953 -0.2385  2.0846
11756TIP3   OH256758   0.117   5.572  13.028  0.1654  0.9552 -0.6897
11756TIP3    H156759   0.080   5.565  13.116 -0.9455  0.6267 -1.1576
11756TIP3    H256760   0.210   5.591  13.042  0.0156  0.8674  0.5467
11757TIP3   OH256761   2.555   0.524  13.694  0.4258  0.4273  0.6913
11757TIP3    H156762   2.609   0.537  13.771  0.4211 -1.4439  1.0647
11757TIP3    H256763   2.597   0.451  13.647 -0.2215  0.7618 -0.4576
11758TIP3   OH256764   2.195   6.758   0.405 -0.9801 -0.2984 -0.7200
11758TIP3    H156765   2.284   6.741   0.374 -1.0411 -0.0119 -1.0508
11758TIP3    H256766   2.170   6.677   0.450  0.4940  0.5815  1.8766
11759TIP3   OH256767   0.848   4.010  17.021 -0.3674  0.3932 -0.2102
11759TIP3    H156768   0.778   3.984  17.081  0.9659 -2.5471  0.2412
11759TIP3    H256769   0.815   3.988  16.934 -0.3069 -0.3142 -0.0602
11760TIP3   OH256770   2.148   5.644   2.589 -0.0448  0.1878  1.0039
11760TIP3    H156771   2.064   5.664   2.630  0.8898  0.3697  2.9167
11760TIP3    H256772   2.127   5.636   2.495 -1.8827  1.8299  1.2120
11761TIP3   OH256773   0.899   0.733  14.997  0.1599  0.0999 -0.5768
11761TIP3    H156774   0.961   0.660  14.999 -0.7117 -0.6858  1.9910
11761TIP3    H256775   0.847   0.722  15.077 -1.3696  2.3787 -1.1720
11762TIP3   OH256776   4.584   2.200   5.208  0.4872  0.1717  0.3076
11762TIP3    H156777   4.506   2.189   5.263  1.8586 -0.0366  2.3150
11762TIP3    H256778   4.600   2.295   5.208 -1.5109  0.6294 -2.7678
11763TIP3   OH256779   4.719   5.570   4.171  0.1712 -0.4175  0.0194
11763TIP3    H156780   4.741   5.477   4.160 -0.2088 -0.5674  0.5368
11763TIP3    H256781   4.640   5.582   4.118 -0.6271 -0.7315  1.1103
11764TIP3   OH256782   3.203   3.728   2.642 -0.1520  0.1243 -0.1190
11764TIP3    H156783   3.245   3.717   2.556 -0.8653  0.4851 -0.5205
11764TIP3    H256784   3.240   3.658   2.696  0.4513  0.0133 -0.6632
11765TIP3   OH256785   2.045   1.699   4.990 -0.2144  0.1736 -0.0986
11765TIP3    H156786   2.110   1.692   5.059 -0.5275 -1.3954  0.0747
11765TIP3    H256787   1.969   1.740   5.032 -0.3149 -0.5495  0.4315
11766TIP3   OH256788   5.953   4.994   1.799 -0.1702  0.1085 -0.4668
11766TIP3    H156789   5.887   4.930   1.827 -0.4026  0.4810 -0.1527
11766TIP3    H256790   6.028   4.941   1.771  0.0641 -0.2764  0.8486
11767TIP3   OH256791   3.339   6.150   0.936  0.0437  0.3413  0.3948
11767TIP3    H156792   3.419   6.202   0.941  0.4463 -0.1911 -0.4402
11767TIP3    H256793   3.366   6.060   0.955 -0.6058  0.3627  1.5525
11768TIP3   OH256794   3.770   0.477  14.794  0.2622  0.3115 -0.4992
11768TIP3    H156795   3.693   0.472  14.851  1.2530 -1.6084  0.7579
11768TIP3    H256796   3.736   0.462  14.706 -0.8282 -0.2355  0.0033
11769TIP3   OH256797   3.989   2.116  11.291 -0.2680 -0.5041  1.3242
11769TIP3    H156798   3.909   2.133  11.242  0.2481 -0.2884  0.5421
11769TIP3    H256799   3.968   2.041  11.347  0.1023 -3.0674 -1.7008
11770TIP3   OH256800   1.009   4.024   1.511 -0.3262 -0.1778  0.1829
11770TIP3    H156801   0.931   4.076   1.492 -0.3319  0.0868  0.8953
11770TIP3    H256802   1.008   3.955   1.445 -0.7880  0.2232 -0.2414
11771TIP3   OH256803   5.067   1.810   5.920 -0.1769  0.2200  0.2973
11771TIP3    H156804   5.107   1.888   5.960 -1.4646  1.2759 -0.3866
11771TIP3    H256805   5.135   1.775   5.864 -0.4756  2.7286 -1.8525
11772TIP3   OH256806   3.118   0.129   3.211  0.2071  0.2404 -0.4302
11772TIP3    H156807   3.052   0.076   3.256  0.4087 -0.5363 -1.0171
11772TIP3    H256808   3.181   0.065   3.178  1.3366  0.9923  0.2442
11773TIP3   OH256809   5.920   2.518   5.489 -0.0755 -0.5793 -0.0673
11773TIP3    H156810   5.857   2.543   5.556  1.4052  1.1872  0.7333
11773TIP3    H256811   6.005   2.538   5.527  0.8888 -0.9736 -1.9127
11774TIP3   OH256812   4.345   0.184   3.483  0.6204  0.3181 -0.9009
11774TIP3    H156813   4.420   0.243   3.494 -0.9298  1.9513  2.2590
11774TIP3    H256814   4.368   0.107   3.534  0.4529  0.5240 -0.5098
11775TIP3   OH256815   1.276   2.698  14.408  0.6553  0.2524  0.2217
11775TIP3    H156816   1.230   2.743  14.337  0.7109 -0.6296 -0.3936
11775TIP3    H256817   1.333   2.764  14.446  1.1979  0.5509 -1.0787
11776TIP3   OH256818   1.139   0.963   6.354  0.1874  0.0348 -0.7052
11776TIP3    H156819   1.219   0.995   6.313  0.4108  0.6877  0.2317
11776TIP3    H256820   1.153   0.868   6.363  0.6796  0.0851 -0.9220
11777TIP3   OH256821   0.399   4.902   2.680  0.3794 -0.5093  0.0845
11777TIP3    H156822   0.483   4.860   2.700 -0.3251 -1.7693  0.5350
11777TIP3    H256823   0.402   4.917   2.586  0.1704 -2.8459 -0.3673
11778TIP3   OH256824   4.245   2.670  15.948  0.1641  0.2132  0.4418
11778TIP3    H156825   4.271   2.744  16.004 -0.5513  0.7895  0.0257
11778TIP3    H256826   4.328   2.624  15.930  0.5816  0.7566  0.9252
11779TIP3   OH256827   0.464   5.974  13.897  0.2593  0.5413  0.1645
11779TIP3    H156828   0.549   5.989  13.937  0.7375  1.0850 -0.9975
11779TIP3    H256829   0.474   5.893  13.846 -1.3053 -2.0934  3.6327
11780TIP3   OH256830   0.684   4.808  13.417 -0.2431 -0.4000  0.2213
11780TIP3    H156831   0.640   4.819  13.333  1.6852  1.7595 -0.6318
11780TIP3    H256832   0.674   4.715  13.438 -0.1816 -1.1934 -2.7876
11781TIP3   OH256833   2.171   4.989  10.961 -0.3179 -0.1070 -0.9413
11781TIP3    H156834   2.166   5.038  10.879 -0.1524  0.3954 -0.6582
11781TIP3    H256835   2.256   4.946  10.958 -0.1601  0.1914 -0.8871
11782TIP3   OH256836   3.904   1.912   5.729  0.4583  0.3650 -0.4470
11782TIP3    H156837   3.849   1.883   5.802  1.0706  0.3663  0.0277
11782TIP3    H256838   3.947   1.831   5.699  0.9555  0.5126 -0.1547
11783TIP3   OH256839   6.670   1.606  15.814  0.2337 -0.1744 -0.3714
11783TIP3    H156840   6.724   1.534  15.847 -0.7361 -1.3773 -1.3005
11783TIP3    H256841   6.582   1.569  15.807 -0.9181  1.9055  1.7077
11784TIP3   OH256842   2.631   4.663  12.226 -0.0813 -0.1347 -0.3097
11784TIP3    H156843   2.542   4.670  12.193 -0.9263 -0.9606  1.6032
11784TIP3    H256844   2.622   4.613  12.308  2.1116 -0.0779  0.0304
11785TIP3   OH256845   1.156   5.968   3.661 -0.3219 -0.8747  0.0510
11785TIP3    H156846   1.157   6.030   3.735  1.9085 -1.2140  0.3500
11785TIP3    H256847   1.202   6.014   3.591  0.0442 -1.6378 -0.2118
11786TIP3   OH256848   5.480   6.013  13.870  0.0468 -0.3457  0.2866
11786TIP3    H156849   5.444   6.079  13.929  1.5007  0.6879  0.0717
11786TIP3    H256850   5.407   5.989  13.812 -0.8212  0.1609  1.1523
11787TIP3   OH256851   3.777   2.151   2.317  0.0423  0.2741  0.4419
11787TIP3    H156852   3.768   2.212   2.244 -3.4961 -1.7232 -1.0382
11787TIP3    H256853   3.823   2.076   2.281 -0.8476 -0.3156  0.4906
11788TIP3   OH256854   6.097   0.015   5.719  0.3926  0.2947  0.0388
11788TIP3    H156855   6.057   0.026   5.805 -1.1490  0.5195 -0.6632
11788TIP3    H256856   6.191   0.007   5.736  0.0189 -0.7966  1.8229
11789TIP3   OH256857   5.898   4.699   2.431 -0.5265  0.2155  0.0248
11789TIP3    H156858   5.912   4.604   2.426 -0.1082  0.2772  0.0382
11789TIP3    H256859   5.890   4.726   2.339  0.5416  0.3457 -0.0339
11790TIP3   OH256860   0.262   0.499  16.246 -0.0039  0.5091  0.4872
11790TIP3    H156861   0.293   0.576  16.295 -0.3117 -1.0041  3.2726
11790TIP3    H256862   0.340   0.446  16.232 -0.1854  0.1535  0.8295
11791TIP3   OH256863   6.533   0.625   5.056 -0.3695 -0.3461  0.6630
11791TIP3    H156864   6.454   0.581   5.027 -0.4467  0.4809 -0.4269
11791TIP3    H256865   6.516   0.718   5.041  1.1205 -0.2144 -0.4135
11792TIP3   OH256866   0.087   4.308  14.682  0.1200  0.3620 -0.3017
11792TIP3    H156867   0.057   4.218  14.696 -0.4898  0.6175  0.0544
11792TIP3    H256868   0.019   4.362  14.720  1.1824  0.9525  0.8170
11793TIP3   OH256869   3.258   1.273  15.552  0.3529  0.7493 -0.1061
11793TIP3    H156870   3.342   1.241  15.585  0.5007  0.2247 -0.9553
11793TIP3    H256871   3.247   1.359  15.593  1.2580  0.7853  0.0789
11794TIP3   OH256872   4.444   3.848   2.400  0.4167  0.3009  0.1847
11794TIP3    H156873   4.403   3.766   2.373  0.6825 -0.0814  0.9155
11794TIP3    H256874   4.438   3.904   2.323 -1.2423  0.1707  0.1843
11795TIP3   OH256875   3.097   5.374  12.634 -0.0304 -0.5750  0.4500
11795TIP3    H156876   3.068   5.465  12.633  1.2507 -0.1191  1.5405
11795TIP3    H256877   3.056   5.337  12.712 -0.4691 -0.9150  0.0631
11796TIP3   OH256878   4.618   6.609   5.103 -0.1658  0.6183  0.2489
11796TIP3    H156879   4.595   6.541   5.041  1.6865  1.8613 -1.9476
11796TIP3    H256880   4.680   6.567   5.163 -2.0210 -0.6080  1.4111
11797TIP3   OH256881   5.498   3.158  10.515 -0.0523  0.1047  0.6618
11797TIP3    H156882   5.464   3.069  10.529  0.8105 -0.2873  0.2983
11797TIP3    H256883   5.592   3.147  10.503 -0.0930  0.9303 -0.6007
11798TIP3   OH256884   3.758   3.541  10.855  0.3963  0.2675  0.2338
11798TIP3    H156885   3.843   3.572  10.886  0.3343  0.2689  0.4070
11798TIP3    H256886   3.717   3.504  10.933  0.0820  0.6181  0.2382
11799TIP3   OH256887   3.546   0.136   3.885 -0.5664  0.7161  0.0720
11799TIP3    H156888   3.530   0.217   3.934  1.3777  0.8187  0.6254
11799TIP3    H256889   3.564   0.165   3.796  0.5172  0.9639  0.3540
11800TIP3   OH256890   5.093   0.733   0.981 -0.1594  0.9238 -0.0012
11800TIP3    H156891   5.004   0.762   0.960 -1.8520 -3.5369 -0.0993
11800TIP3    H256892   5.084   0.686   1.063  2.6344  2.0297  1.0438
11801TIP3   OH256893   2.134   0.979  16.865 -0.1962 -0.1436  0.1524
11801TIP3    H156894   2.078   1.036  16.813 -1.7003 -0.4904  1.3229
11801TIP3    H256895   2.190   1.038  16.915  0.5604  0.2043 -1.0496
11802TIP3   OH256896   3.237   4.339   3.248  0.0129 -0.1124 -0.2717
11802TIP3    H156897   3.257   4.372   3.336 -1.1857 -1.0633  0.3945
11802TIP3    H256898   3.160   4.283   3.261 -0.2267 -0.2127 -1.9495
11803TIP3   OH256899   3.939   0.440   3.041 -0.1579  0.1158  0.3653
11803TIP3    H156900   3.865   0.392   3.080  0.3734 -0.5704  0.5661
11803TIP3    H256901   3.987   0.373   2.991  2.2102 -0.3190  2.9256
11804TIP3   OH256902   0.278   3.259   0.095 -0.5380 -0.5988  0.1389
11804TIP3    H156903   0.327   3.341   0.097  0.0480 -0.9573  1.1451
11804TIP3    H256904   0.243   3.250   0.184 -2.5966 -0.2785 -0.5907
11805TIP3   OH256905   3.783   5.905   3.850 -0.3342  0.3774  0.3587
11805TIP3    H156906   3.735   5.935   3.927 -0.4055  1.6639 -0.1601
11805TIP3    H256907   3.722   5.919   3.777 -0.1383 -0.4888  0.0095
11806TIP3   OH256908   2.502   4.334   4.322  0.3325  0.1494  0.0546
11806TIP3    H156909   2.593   4.307   4.310  0.3990  0.0533  0.7371
11806TIP3    H256910   2.499   4.424   4.288  0.4068 -0.2459 -1.0388
11807TIP3   OH256911   3.375   1.696   1.183 -0.1003  1.0370 -0.0221
11807TIP3    H156912   3.406   1.773   1.135  0.6496 -0.1135 -1.4737
11807TIP3    H256913   3.427   1.623   1.148 -2.2383 -0.4879 -0.2771
11808TIP3   OH256914   6.218   6.581   0.290 -0.0290 -0.0234 -0.2191
11808TIP3    H156915   6.159   6.608   0.360 -1.8266 -0.6413 -1.4296
11808TIP3    H256916   6.175   6.611   0.210 -0.2567 -3.0618 -1.3678
11809TIP3   OH256917   6.203   5.015   5.784  0.7693 -0.8760  0.8965
11809TIP3    H156918   6.164   5.066   5.713  2.4094  0.6663  1.0205
11809TIP3    H256919   6.210   4.926   5.749 -0.5563 -0.6538  0.0065
11810TIP3   OH256920   6.139   0.820  15.481  0.0580  0.0895  0.3840
11810TIP3    H156921   6.049   0.789  15.475  0.3807 -1.8218  3.2307
11810TIP3    H256922   6.192   0.747  15.446  0.5837  0.2523  0.8263
11811TIP3   OH256923   5.470   1.179   2.599 -0.3047  0.1539 -0.4266
11811TIP3    H156924   5.544   1.229   2.566  0.7423 -1.6016 -0.8663
11811TIP3    H256925   5.508   1.119   2.663 -0.9439 -2.1638 -2.0782
11812TIP3   OH256926   2.464   1.626  15.894 -0.2661 -0.5027  0.6850
11812TIP3    H156927   2.557   1.640  15.878 -0.5121  1.3574  0.7433
11812TIP3    H256928   2.456   1.632  15.990 -0.8757  2.7324  0.5371
11813TIP3   OH256929   4.370   5.921  13.767 -0.2006 -0.8783 -0.6686
11813TIP3    H156930   4.395   5.986  13.833  0.2285  0.5983 -2.2177
11813TIP3    H256931   4.327   5.852  13.817 -0.0422  0.2497  1.1321
11814TIP3   OH256932   1.394   3.535   0.254  0.2370  0.3685 -0.0928
11814TIP3    H156933   1.351   3.576   0.329  1.0540  0.2321  0.4668
11814TIP3    H256934   1.385   3.600   0.184 -2.4824 -0.4073 -0.5819
11815TIP3   OH256935   0.323   0.678  13.409  0.2712 -0.3665 -0.1168
11815TIP3    H156936   0.287   0.743  13.348 -0.0084  1.8075  2.1831
11815TIP3    H256937   0.408   0.654  13.372  0.1776  0.9768 -1.2794
11816TIP3   OH256938   0.012   0.852   4.877  0.1056  0.3201  0.4290
11816TIP3    H156939  -0.047   0.902   4.934 -0.5647  0.0694 -0.0369
11816TIP3    H256940   0.039   0.777   4.931  1.2525  1.2538  1.1917
11817TIP3   OH256941   5.722   3.400   3.827  0.4223  0.3688 -0.2074
11817TIP3    H156942   5.653   3.447   3.873  0.0026 -0.6343  0.2198
11817TIP3    H256943   5.682   3.317   3.802  0.6496  0.8722 -2.3867
11818TIP3   OH256944   1.371   5.322   0.573  0.3488  0.1903 -0.5177
11818TIP3    H156945   1.348   5.310   0.665 -1.2477  0.6884 -0.8105
11818TIP3    H256946   1.454   5.276   0.562  0.5053  0.0341  1.1371
11819TIP3   OH256947   3.520   4.500  14.571 -0.7617 -0.2194 -0.2969
11819TIP3    H156948   3.493   4.584  14.534 -0.5867  0.6784  1.4928
11819TIP3    H256949   3.515   4.438  14.498 -1.9522  1.1192 -1.4004
11820TIP3   OH256950   1.084   3.570   6.040 -0.0731 -0.5883  0.3365
11820TIP3    H156951   1.114   3.649   5.996 -1.2599 -1.1431 -1.6293
11820TIP3    H256952   1.163   3.532   6.078  0.7899  0.6411 -0.1655
11821TIP3   OH256953   0.733   5.732   1.511 -0.0719 -0.1539 -0.6856
11821TIP3    H156954   0.692   5.647   1.493 -0.6948 -0.0287  0.0955
11821TIP3    H256955   0.822   5.710   1.538 -0.9884 -0.8143  2.1567
11822TIP3   OH256956   3.578   2.864   2.377  0.2814  0.0642 -0.0326
11822TIP3    H156957   3.591   2.839   2.285  2.9502 -0.2363  0.3504
11822TIP3    H256958   3.548   2.783   2.419 -0.1271 -0.0226 -0.4808
11823TIP3   OH256959   2.041   2.632   3.396  0.3849  0.3303  0.2834
11823TIP3    H156960   2.064   2.704   3.454  0.8777  0.7505 -0.4088
11823TIP3    H256961   2.114   2.570   3.405 -0.7145 -0.7998  1.9654
11824TIP3   OH256962   2.357   0.029  12.748 -0.3297 -0.2704  0.6973
11824TIP3    H156963   2.309   0.030  12.831 -0.2263  0.9248  0.7506
11824TIP3    H256964   2.290   0.007  12.683 -0.3045 -1.7722  1.1390
11825TIP3   OH256965   3.537   4.989  12.326  0.5406  0.5905 -0.2728
11825TIP3    H156966   3.622   5.033  12.320 -0.0993  1.6910 -2.1121
11825TIP3    H256967   3.475   5.059  12.349  0.0331 -0.1160  0.6121
11826TIP3   OH256968   5.708   2.219   6.165 -0.1466  0.5904 -0.3396
11826TIP3    H156969   5.699   2.127   6.191 -1.1422  0.8079  0.1405
11826TIP3    H256970   5.697   2.218   6.069 -0.1859  0.2103 -0.3322
11827TIP3   OH256971   3.588   3.419   4.986 -0.0813  0.4247 -0.1240
11827TIP3    H156972   3.603   3.497   5.040  1.4978  0.0305  0.0815
11827TIP3    H256973   3.497   3.426   4.958 -0.6970  1.1079  1.8560
11828TIP3   OH256974   2.721   4.594  11.888 -0.0279 -0.2060 -0.7458
11828TIP3    H156975   2.769   4.555  11.962  1.3503 -0.3565 -1.6718
11828TIP3    H256976   2.634   4.610  11.922  0.1233 -1.6759  0.4707
11829TIP3   OH256977   6.115   4.498   3.509  0.0442 -0.2020 -0.3689
11829TIP3    H156978   6.198   4.546   3.507  1.1115 -1.9932 -1.3062
11829TIP3    H256979   6.134   4.418   3.557 -1.2376 -0.5057 -0.3285
11830TIP3   OH256980   4.817   4.176   6.443  0.0863 -0.0153  0.2658
11830TIP3    H156981   4.765   4.209   6.369 -0.0474  0.7104  0.6774
11830TIP3    H256982   4.872   4.250   6.469  1.5413 -0.8397 -0.3263
11831TIP3   OH256983   0.504   4.615   1.548 -0.0076 -0.2654  0.0055
11831TIP3    H156984   0.594   4.629   1.576 -0.3688  0.7682  0.6670
11831TIP3    H256985   0.512   4.564   1.467  1.1863  0.2644 -0.2263
11832TIP3   OH256986   2.562   1.814  11.067  0.3249 -0.2188  0.3710
11832TIP3    H156987   2.576   1.726  11.032  2.8301  0.3197 -0.1476
11832TIP3    H256988   2.570   1.803  11.162  2.1526 -0.3663  0.2357
11833TIP3   OH256989   1.089   6.368   4.206  0.5533  0.1579  0.1026
11833TIP3    H156990   1.044   6.449   4.183  0.7570  0.7243  1.5970
11833TIP3    H256991   1.028   6.323   4.265  1.1271 -0.0017  0.5805
11834TIP3   OH256992   3.821   6.800  11.660  0.3744 -0.5121 -0.2855
11834TIP3    H156993   3.817   6.892  11.688  0.4445  0.1407 -2.2364
11834TIP3    H256994   3.758   6.795  11.588  1.8371 -1.4427 -1.5676
11835TIP3   OH256995   1.610   5.343  12.855  0.4476  0.5673  0.4134
11835TIP3    H156996   1.685   5.397  12.833  0.0701  0.1872 -2.2253
11835TIP3    H256997   1.534   5.394  12.827 -0.1287  0.0750  1.0440
11836TIP3   OH256998   5.598   2.883   1.756 -0.0365 -0.0617  0.2616
11836TIP3    H156999   5.560   2.825   1.822 -0.5390 -1.9568 -1.6037
11836TIP3    H257000   5.673   2.835   1.722  3.2714  2.8786  2.6687
11837TIP3   OH257001   3.154   5.298   3.771 -0.5743 -0.5176  0.0195
11837TIP3    H157002   3.158   5.340   3.685  0.0408 -0.3644  0.1204
11837TIP3    H257003   3.075   5.244   3.767  0.3734 -1.8704 -1.2629
11838TIP3   OH257004   1.103   5.188   0.958 -0.1851  0.2148  0.5990
11838TIP3    H157005   1.072   5.143   0.880  2.4662  0.3681 -0.6188
11838TIP3    H257006   1.100   5.281   0.935  0.2851  0.2825  0.8083
11839TIP3   OH257007   1.178   4.905   3.633 -0.3898 -0.0679  0.0872
11839TIP3    H157008   1.123   4.837   3.594 -1.0686  1.4324 -1.7320
11839TIP3    H257009   1.116   4.965   3.674  0.0966  0.2257  0.4043
11840TIP3   OH257010   3.121   2.416  12.520 -0.5154  0.0018 -0.1200
11840TIP3    H157011   3.043   2.412  12.575  0.2315 -1.4570  0.8884
11840TIP3    H257012   3.099   2.479  12.451 -1.9449  0.8927  1.1087
11841TIP3   OH257013   5.054   0.322   4.873  0.6571 -0.0869 -0.2787
11841TIP3    H157014   5.089   0.235   4.851 -2.0797 -1.7436  1.2609
11841TIP3    H257015   4.960   0.315   4.852  0.2644  2.3253  0.4169
11842TIP3   OH257016   2.134   2.764   5.430  0.0559  0.0756 -0.1951
11842TIP3    H157017   2.099   2.682   5.395  0.1341  0.5424 -1.4404
11842TIP3    H257018   2.222   2.741   5.460  0.2279 -0.2293 -0.8940
11843TIP3   OH257019   5.599   1.261  14.757 -0.7661 -0.0135  0.2600
11843TIP3    H157020   5.544   1.206  14.702 -1.6264  0.5891  0.5063
11843TIP3    H257021   5.686   1.220  14.752 -0.7596  0.1249 -1.6894
11844TIP3   OH257022   3.038   5.653  12.622  0.5435  0.0433  0.1131
11844TIP3    H157023   2.944   5.639  12.634  0.3209  0.6931 -0.7056
11844TIP3    H257024   3.072   5.670  12.710  0.0080 -0.7943  0.4926
11845TIP3   OH257025   3.534   5.931  14.659 -0.8732  0.1627  0.3788
11845TIP3    H157026   3.592   5.854  14.664  0.1392  0.9694  1.9032
11845TIP3    H257027   3.458   5.907  14.711 -0.2408  0.4068  1.4607
11846TIP3   OH257028   0.716   2.293   1.325  0.5350 -0.3891  0.1291
11846TIP3    H157029   0.785   2.306   1.390 -1.5728  2.0722  2.0754
11846TIP3    H257030   0.639   2.269   1.377 -0.9552  0.5323 -1.5628
11847TIP3   OH257031   5.320   5.803  11.944 -0.0822 -0.7867  0.3785
11847TIP3    H157032   5.292   5.717  11.913 -1.3944  0.2089 -1.3770
11847TIP3    H257033   5.246   5.860  11.927  0.9615  0.8179  1.0043
11848TIP3   OH257034   5.963   0.626   0.765  0.3010 -0.3896  0.2368
11848TIP3    H157035   5.931   0.630   0.675 -0.8400  0.2397  0.6466
11848TIP3    H257036   6.028   0.696   0.771  0.5694 -0.6008 -0.1622
11849TIP3   OH257037   3.728   0.698   6.137  0.3587  0.1288 -0.1676
11849TIP3    H157038   3.750   0.605   6.144  1.2436  0.3354 -0.1196
11849TIP3    H257039   3.708   0.725   6.227 -1.3687 -0.3507 -0.3744
11850TIP3   OH257040   4.962   1.776  13.384  0.0570  0.1455 -0.2755
11850TIP3    H157041   4.924   1.859  13.356 -1.0534 -0.7416 -1.5411
11850TIP3    H257042   5.054   1.781  13.357  0.2507  1.3261  0.5368
11851TIP3   OH257043   1.842   1.160   1.946  0.5657  0.2731 -0.1370
11851TIP3    H157044   1.841   1.253   1.920 -1.6967 -0.3347 -2.7674
11851TIP3    H257045   1.855   1.113   1.863 -1.9129 -1.7814  0.5067
11852TIP3   OH257046   1.299   4.907  16.144  0.0029 -0.0174 -0.1516
11852TIP3    H157047   1.394   4.912  16.154  0.0620 -0.1641 -0.6132
11852TIP3    H257048   1.272   4.998  16.133  0.0871  0.0286  0.0248
11853TIP3   OH257049   2.764   2.490   0.009  0.3340  0.3126  0.4438
11853TIP3    H157050   2.683   2.506  -0.040  1.1233 -1.1154 -1.4013
11853TIP3    H257051   2.749   2.407   0.054 -0.6472  1.9060  3.3983
11854TIP3   OH257052   3.019   4.535   0.651  0.0236 -0.3142  0.6743
11854TIP3    H157053   3.085   4.468   0.631  1.3279  0.6764  1.5372
11854TIP3    H257054   3.010   4.585   0.569  0.7157 -0.1434  0.7009
11855TIP3   OH257055   2.195   3.716   3.229  0.1201  0.0382 -0.1564
11855TIP3    H157056   2.281   3.760   3.226 -0.6732  1.6591 -0.3051
11855TIP3    H257057   2.161   3.736   3.316 -1.8386  3.0157 -1.4475
11856TIP3   OH257058   3.862   6.669  13.405  0.1910 -0.1489 -0.0476
11856TIP3    H157059   3.921   6.743  13.417 -0.8882  0.7919 -0.2883
11856TIP3    H257060   3.860   6.655  13.310  0.8548 -0.8842  0.0437
11857TIP3   OH257061   3.767   2.775   6.283  0.0478 -0.2277  0.0897
11857TIP3    H157062   3.860   2.777   6.306 -0.1835 -3.6921  2.0034
11857TIP3    H257063   3.762   2.714   6.209 -0.5818  1.1624 -1.0475
11858TIP3   OH257064   4.488   5.249  13.006  0.1150  0.2380  0.4666
11858TIP3    H157065   4.565   5.283  12.961 -0.7572  2.2601  0.4319
11858TIP3    H257066   4.417   5.255  12.942  0.0694 -2.6814  0.0930
11859TIP3   OH257067   4.132   4.979   0.426 -0.2460  0.8464  0.1410
11859TIP3    H157068   4.047   4.942   0.448  0.4687 -1.5904 -0.8167
11859TIP3    H257069   4.155   5.033   0.501 -1.3588 -0.7765  1.7156
11860TIP3   OH257070   0.619   1.533  14.939  0.5520  0.1370 -0.4221
11860TIP3    H157071   0.683   1.579  14.886  0.8095 -0.5196 -0.6863
11860TIP3    H257072   0.662   1.451  14.963 -0.0446 -0.1411 -0.2847
11861TIP3   OH257073   0.668   3.334   2.370 -0.1462 -0.4106  0.1763
11861TIP3    H157074   0.736   3.385   2.327 -0.3537 -0.1965  0.0973
11861TIP3    H257075   0.623   3.289   2.298 -0.3586 -0.2172  0.1836
11862TIP3   OH257076   0.586   1.836  17.006  0.4136 -0.2912 -0.6457
11862TIP3    H157077   0.640   1.911  17.028 -0.9336  0.1905  1.3132
11862TIP3    H257078   0.500   1.873  16.985 -0.3316 -1.2493  0.5523
11863TIP3   OH257079   5.711   0.144  14.807 -0.6298 -0.2619 -0.1165
11863TIP3    H157080   5.731   0.150  14.714 -0.9507 -2.2460 -0.3539
11863TIP3    H257081   5.645   0.075  14.813  1.1518 -1.9385  1.7751
11864TIP3   OH257082   6.460   2.524   3.550 -0.2849 -0.7230  0.4847
11864TIP3    H157083   6.504   2.463   3.610  1.4064  0.3605  0.4223
11864TIP3    H257084   6.471   2.610   3.590  0.0138 -0.0982 -0.8758
11865TIP3   OH257085   0.686   3.190   1.246 -0.6081  0.5460  0.9044
11865TIP3    H157086   0.748   3.153   1.184 -2.3023  0.9873 -1.1732
11865TIP3    H257087   0.732   3.188   1.330  0.7048 -2.7890  0.2474
11866TIP3   OH257088   5.365   2.432  14.337 -0.1973 -0.1543 -0.0353
11866TIP3    H157089   5.381   2.521  14.307  1.1278 -0.2096  0.4025
11866TIP3    H257090   5.270   2.423  14.337 -0.3592  1.2635 -0.0744
11867TIP3   OH257091   0.053   3.982   1.585 -0.6449  0.1082 -0.4415
11867TIP3    H157092   0.051   4.047   1.515  2.6770  0.8726  0.0080
11867TIP3    H257093   0.087   3.903   1.544  0.5135  0.3137  0.0872
11868TIP3   OH257094   1.561   3.557   4.734 -0.4499 -0.1423  0.0775
11868TIP3    H157095   1.614   3.515   4.801  0.4976  0.4848 -0.2671
11868TIP3    H257096   1.481   3.584   4.780  0.4425  0.8362  1.1090
11869TIP3   OH257097   2.481   3.677  12.145  0.0193  0.0882 -0.0494
11869TIP3    H157098   2.520   3.765  12.135  1.0228 -0.3082  0.2276
11869TIP3    H257099   2.555   3.617  12.133 -0.5859 -0.7152  0.1595
11870TIP3   OH257100   1.038   1.295   4.883  0.2450 -0.1060  0.0130
11870TIP3    H157101   0.993   1.379   4.887  1.1032  0.4048 -0.7276
11870TIP3    H257102   0.975   1.232   4.917  0.0078  0.9928  1.6765
11871TIP3   OH257103   3.590   6.095   4.079  0.6196 -0.8567  0.0032
11871TIP3    H157104   3.652   6.127   4.014  0.3077 -1.6453 -0.7093
11871TIP3    H257105   3.514   6.151   4.070  0.7801 -0.6300  0.0570
11872TIP3   OH257106   1.910   3.071   1.224 -0.2229 -0.1475 -0.0346
11872TIP3    H157107   1.908   3.136   1.153 -0.9295  0.5095  0.5757
11872TIP3    H257108   1.965   3.000   1.189  2.2059  1.6010  0.0243
11873TIP3   OH257109   4.786   5.484  11.071 -0.7126 -0.1264  0.2190
11873TIP3    H157110   4.853   5.522  11.013 -1.2142 -0.5462 -0.6538
11873TIP3    H257111   4.828   5.406  11.108 -0.9688 -0.8621 -0.9727
11874TIP3   OH257112   6.063   3.690  12.129  0.0350 -0.2984  0.2513
11874TIP3    H157113   5.996   3.622  12.121 -1.1056  0.6842  1.1760
11874TIP3    H257114   6.107   3.672  12.212 -1.2524  0.8837  1.2485
11875TIP3   OH257115   2.212   0.275  15.877 -0.3699  1.1443  0.0215
11875TIP3    H157116   2.295   0.319  15.857 -1.0828  2.9526  0.7828
11875TIP3    H257117   2.189   0.306  15.964 -1.5897  0.2455  0.0432
11876TIP3   OH257118   5.739   4.955  14.968  0.6375  0.0776 -0.0588
11876TIP3    H157119   5.665   4.902  14.998  1.0455 -0.5648 -0.1759
11876TIP3    H257120   5.803   4.892  14.937  0.3527  0.7142 -2.0643
11877TIP3   OH257121   3.540   6.445   0.329  0.8356  0.0148 -0.2207
11877TIP3    H157122   3.494   6.486   0.256  2.3669 -0.1076 -1.2972
11877TIP3    H257123   3.563   6.358   0.297  1.9605  0.1330  0.2111
11878TIP3   OH257124   2.289   1.523  11.759  0.1162  0.0530  0.5417
11878TIP3    H157125   2.196   1.524  11.736  0.1224  1.0566  0.5107
11878TIP3    H257126   2.335   1.529  11.676  0.1739  1.0095  0.6269
11879TIP3   OH257127   3.478   4.677  16.717  0.3642  0.0846  0.5678
11879TIP3    H157128   3.547   4.626  16.674  0.9064  3.4733 -3.0859
11879TIP3    H257129   3.397   4.650  16.674  0.2878  0.5191  0.4389
11880TIP3   OH257130   6.157   0.736  14.302 -0.5688 -0.0654 -0.6193
11880TIP3    H157131   6.069   0.725  14.338  0.0087  0.0652  0.9364
11880TIP3    H257132   6.213   0.685  14.360  0.4682  0.4177 -1.1601
11881TIP3   OH257133   5.012   2.185  14.360 -0.4961  0.1389  0.2815
11881TIP3    H157134   5.029   2.099  14.321  1.2194 -0.0463  1.3315
11881TIP3    H257135   4.965   2.166  14.441  0.2188  0.1329  0.7064
11882TIP3   OH257136   0.865   3.351  11.647 -0.7229 -0.4277 -0.3487
11882TIP3    H157137   0.836   3.337  11.737 -0.6759 -0.6615 -0.3706
11882TIP3    H257138   0.860   3.265  11.606 -1.3897 -0.2030 -0.7611
11883TIP3   OH257139   1.062   6.242  14.437  0.9963  0.0815  0.1184
11883TIP3    H157140   1.141   6.249  14.384  0.9898  0.0960  0.1104
11883TIP3    H257141   1.028   6.155  14.418  0.4726  0.4394 -0.6364
11884TIP3   OH257142   4.287   4.555   3.228  0.6764 -0.0664 -0.6778
11884TIP3    H157143   4.198   4.589   3.224 -0.5396 -2.6819  1.2836
11884TIP3    H257144   4.294   4.496   3.154  0.8790  0.3166 -0.9671
11885TIP3   OH257145   3.168   4.072  15.804 -0.4256 -0.6712  0.0381
11885TIP3    H157146   3.142   4.112  15.721  0.1328  1.8264  0.9893
11885TIP3    H257147   3.125   4.124  15.871  1.4888 -0.7178  1.4015
11886TIP3   OH257148   0.054   3.084   4.107  0.0364 -0.1865  0.3438
11886TIP3    H157149   0.123   3.025   4.137 -0.1104  0.6343  2.5319
11886TIP3    H257150   0.048   3.150   4.176 -1.3982  1.0481 -0.8906
11887TIP3   OH257151   1.359   1.206   6.244 -0.0668  0.0711 -0.0985
11887TIP3    H157152   1.325   1.293   6.224  2.1060  1.0840  0.3036
11887TIP3    H257153   1.348   1.197   6.339 -0.8578 -0.3838 -0.2216
11888TIP3   OH257154   4.512   3.165  13.938  0.1292  0.1421  0.1091
11888TIP3    H157155   4.550   3.131  13.857 -0.0831 -0.6503  0.3300
11888TIP3    H257156   4.546   3.106  14.006 -1.3245 -0.4750  0.3323
11889TIP3   OH257157   0.180   1.912  14.544  0.4574  0.3232  0.2548
11889TIP3    H157158   0.272   1.886  14.546  0.7309  1.1869 -0.4207
11889TIP3    H257159   0.173   1.967  14.467 -0.2353  1.6789  1.2523
11890TIP3   OH257160   5.719   4.020   1.573  0.5529 -0.0160  0.0874
11890TIP3    H157161   5.737   3.959   1.501 -0.5122  0.1619 -0.3551
11890TIP3    H257162   5.641   4.069   1.544  1.4582  1.6733  0.3583
11891TIP3   OH257163   5.840   3.386  16.227  0.4303  0.8155  0.0654
11891TIP3    H157164   5.874   3.475  16.223  1.6635  0.3577 -0.1545
11891TIP3    H257165   5.909   3.332  16.188 -0.0514 -0.3014  0.7001
11892TIP3   OH257166   1.741   4.369   1.729 -0.3533  0.1201  0.3734
11892TIP3    H157167   1.732   4.407   1.641 -0.3946 -0.3401  0.1710
11892TIP3    H257168   1.836   4.366   1.744 -0.3802  1.1304  0.7681
11893TIP3   OH257169   3.236   5.972   5.720 -0.1761 -0.1584 -0.3938
11893TIP3    H157170   3.317   5.921   5.722 -0.5008 -0.7321 -1.2394
11893TIP3    H257171   3.202   5.967   5.809  1.0933  0.7399  0.1838
11894TIP3   OH257172   0.006   0.755   0.950  0.0720  0.4256 -0.0050
11894TIP3    H157173  -0.003   0.849   0.936  0.3959  0.3034 -1.1481
11894TIP3    H257174  -0.005   0.743   1.045  1.7133  1.8134  0.4080
11895TIP3   OH257175   4.572   3.461  16.525 -0.3068  0.1172 -0.1183
11895TIP3    H157176   4.532   3.503  16.449 -2.6074 -2.8974 -0.7532
11895TIP3    H257177   4.633   3.527  16.559 -2.5037  3.3010 -1.8188
11896TIP3   OH257178   4.574   6.660  15.321  0.6576  1.2099 -0.8814
11896TIP3    H157179   4.506   6.723  15.300 -0.4628 -0.1763 -1.5646
11896TIP3    H257180   4.544   6.617  15.401  1.9318  2.2246  0.1924
11897TIP3   OH257181   0.769   2.756   2.443 -0.3990 -0.0722  0.0329
11897TIP3    H157182   0.795   2.678   2.491 -0.1701  0.5777  1.0103
11897TIP3    H257183   0.711   2.725   2.374 -0.0657 -1.1294  0.2236
11898TIP3   OH257184   0.252   6.020  12.303  0.1467  0.1464 -0.1456
11898TIP3    H157185   0.161   5.993  12.296  0.4829 -0.9340 -0.5346
11898TIP3    H257186   0.261   6.091  12.239 -0.3967  0.2313 -0.1349
11899TIP3   OH257187   5.518   6.247  15.938  0.6161  0.0099  1.1599
11899TIP3    H157188   5.533   6.153  15.927  2.3284  0.3762 -0.1213
11899TIP3    H257189   5.591   6.277  15.991 -1.7015  0.1537  4.5577
11900TIP3   OH257190   2.015   1.105  12.916 -0.4857 -0.1628  0.0097
11900TIP3    H157191   2.075   1.134  12.847  0.5512 -1.8563  0.1235
11900TIP3    H257192   1.929   1.134  12.888  0.2685  1.6322 -0.5738
11901TIP3   OH257193   2.141   1.063  14.169 -0.1089 -1.0834 -0.3397
11901TIP3    H157194   2.122   0.972  14.193 -1.6859 -0.7899 -0.4025
11901TIP3    H257195   2.116   1.070  14.077 -1.0546 -0.3143 -0.0414
11902TIP3   OH257196   5.421   3.166   2.900  0.2219 -0.8168  0.4985
11902TIP3    H157197   5.384   3.254   2.893  1.5363 -0.2561  0.3194
11902TIP3    H257198   5.371   3.114   2.838 -1.0161 -0.3548  1.0858
11903TIP3   OH257199   1.069   4.361  13.357  0.5119  0.1189 -0.0121
11903TIP3    H157200   1.095   4.364  13.449  1.0509  0.5592 -0.1739
11903TIP3    H257201   1.004   4.291  13.353 -0.8771  1.2684  1.0487
11904TIP3   OH257202   6.788   0.149  15.027  0.0287  0.2104  0.1868
11904TIP3    H157203   6.772   0.164  14.934 -0.8297  1.3169  0.4916
11904TIP3    H257204   6.849   0.074  15.030  0.3109  0.3662 -1.2562
11905TIP3   OH257205   1.890   4.378  11.438  0.1287  0.0205 -0.5642
11905TIP3    H157206   1.886   4.355  11.531 -0.9599 -1.1262 -0.8701
11905TIP3    H257207   1.978   4.413  11.426  1.8682 -3.6755  0.0569
11906TIP3   OH257208   5.544   6.242  11.721  0.3317  0.8114  0.5933
11906TIP3    H157209   5.537   6.217  11.813 -1.4189  0.3672  0.3887
11906TIP3    H257210   5.585   6.166  11.679 -2.1566 -0.5858  0.4779
11907TIP3   OH257211   1.708   2.809   1.323  0.0829  0.9122  0.8605
11907TIP3    H157212   1.662   2.876   1.273  1.2482  2.0406  1.2351
11907TIP3    H257213   1.771   2.772   1.261 -0.6680  0.0328  0.6089
11908TIP3   OH257214   3.304   5.191  10.731  0.1171 -0.3852 -0.4582
11908TIP3    H157215   3.230   5.229  10.778  0.6653  0.1217  0.0137
11908TIP3    H257216   3.347   5.266  10.690  0.1157 -0.7293 -1.0997
11909TIP3   OH257217   4.929   6.564  11.976 -0.1622  0.0610  0.0469
11909TIP3    H157218   4.910   6.530  11.888 -2.2407 -0.5550  0.6845
11909TIP3    H257219   4.850   6.610  12.002 -0.5839 -1.8832  2.5742
11910TIP3   OH257220   2.481   6.621  15.708  0.2395 -0.2964 -0.1861
11910TIP3    H157221   2.533   6.618  15.788 -1.9925  0.7988  1.4178
11910TIP3    H257222   2.475   6.715  15.688 -2.4427 -0.1964  0.7031
11911TIP3   OH257223   0.513   1.985  16.693  0.0307  0.1968  0.2892
11911TIP3    H157224   0.499   2.000  16.599 -1.0852 -2.6873 -0.0975
11911TIP3    H257225   0.425   1.971  16.728  0.5178  0.3363  1.6109
11912TIP3   OH257226   0.545   6.489  13.201 -0.4632  0.1508  0.0775
11912TIP3    H157227   0.515   6.430  13.132 -3.6109 -2.3375  3.2063
11912TIP3    H257228   0.465   6.528  13.236  0.9492  1.1070  2.4617
11913TIP3   OH257229   1.238   6.332  11.185  0.0858 -0.2512 -0.1648
11913TIP3    H157230   1.194   6.285  11.256 -0.5202  1.3397  0.5564
11913TIP3    H257231   1.318   6.366  11.224  0.6621 -0.8994 -0.7594
11914TIP3   OH257232   6.259   6.638  14.767  0.2226  0.3861 -0.3506
11914TIP3    H157233   6.246   6.615  14.675 -2.1559  1.9913 -0.4935
11914TIP3    H257234   6.319   6.712  14.764  1.0754 -0.2905 -0.4892
11915TIP3   OH257235   2.811   2.161  15.323  0.1748 -0.3531  0.5742
11915TIP3    H157236   2.760   2.140  15.244 -0.1991  0.8926  0.4629
11915TIP3    H257237   2.893   2.198  15.290 -0.5086  1.4100  0.7206
11916TIP3   OH257238   3.655   0.694  12.780  0.1128  0.0521  0.1560
11916TIP3    H157239   3.660   0.609  12.735  2.2286  0.3217 -0.2195
11916TIP3    H257240   3.692   0.756  12.717 -0.9300  1.2010  0.6374
11917TIP3   OH257241   6.080   1.433   0.931  0.5003  0.9173 -0.2826
11917TIP3    H157242   6.116   1.514   0.966  1.1106  0.7330 -0.4533
11917TIP3    H257243   6.088   1.370   1.003 -1.3760  1.3597  0.3719
11918TIP3   OH257244   0.556   5.090   2.206  0.2598 -0.0189  0.3196
11918TIP3    H157245   0.624   5.158   2.208  0.6874 -0.3826 -1.0484
11918TIP3    H257246   0.495   5.119   2.138  0.2525 -0.8166 -0.0217
11919TIP3   OH257247   0.064   1.802   4.182 -0.3033  0.1061 -0.2780
11919TIP3    H157248   0.040   1.859   4.255  1.0809  3.5199 -2.2703
11919TIP3    H257249   0.148   1.764   4.207 -0.6056 -0.0363  0.5395
11920TIP3   OH257250   4.681   3.538   2.935 -0.7863  0.1533 -0.2128
11920TIP3    H157251   4.645   3.626   2.945 -2.3119 -0.6426  2.0814
11920TIP3    H257252   4.766   3.542   2.979  0.3137  1.0251 -2.2495
11921TIP3   OH257253   2.468   2.085   5.239 -0.3788  0.3846  0.6698
11921TIP3    H157254   2.517   2.115   5.162  1.5267 -1.2056  1.2005
11921TIP3    H257255   2.387   2.049   5.202  0.9497 -1.3018 -0.7662
11922TIP3   OH257256   5.463   3.821  13.584 -0.1595 -0.0038 -0.1020
11922TIP3    H157257   5.370   3.841  13.575  0.1062  0.4596 -2.3353
11922TIP3    H257258   5.466   3.726  13.596 -0.9400  0.1036  1.1315
11923TIP3   OH257259   5.304   0.596  15.961  0.4082  0.0998  0.4098
11923TIP3    H157260   5.371   0.552  15.908 -0.8184 -0.4950 -0.7031
11923TIP3    H257261   5.280   0.531  16.027  1.3394  0.5298  1.1753
11924TIP3   OH257262   0.895   5.606   6.477 -0.3274  0.2964  0.0562
11924TIP3    H157263   0.979   5.622   6.522  0.6963 -2.1478 -0.8438
11924TIP3    H257264   0.870   5.692   6.445  1.7458  1.1578  0.5268
11925TIP3   OH257265   4.715   1.542   3.102 -0.2556  0.1168  0.6683
11925TIP3    H157266   4.726   1.604   3.030 -2.2052  0.1414  0.3321
11925TIP3    H257267   4.713   1.597   3.180 -1.0695  0.4094  0.4518
11926TIP3   OH257268   4.076   0.978  14.975 -0.2141  0.2232 -0.0309
11926TIP3    H157269   4.066   0.943  14.887 -0.7592  1.0481 -0.3085
11926TIP3    H257270   4.034   0.913  15.031 -0.2256 -0.1107 -0.4237
11927TIP3   OH257271   2.675   5.011  11.366 -0.3679  0.5553 -0.2694
11927TIP3    H157272   2.617   4.979  11.296  0.2896  0.9435 -1.0073
11927TIP3    H257273   2.746   4.948  11.370 -0.5241  0.4032  0.2293
11928TIP3   OH257274   1.739   1.779  16.841  0.3549 -0.0973 -0.0366
11928TIP3    H157275   1.673   1.739  16.784 -0.6275 -2.4985  2.5499
11928TIP3    H257276   1.694   1.789  16.926  2.5057  0.8394  1.0679
11929TIP3   OH257277   2.674   4.971  12.371  0.3380 -0.1568 -0.0686
11929TIP3    H157278   2.629   4.934  12.448  1.5930 -1.1002  0.2470
11929TIP3    H257279   2.728   5.041  12.407 -0.5730  0.7498 -0.4023
11930TIP3   OH257280   0.525   2.961  15.241  0.0168  0.5748 -0.0975
11930TIP3    H157281   0.483   2.972  15.156  0.6198  0.6853 -0.3825
11930TIP3    H257282   0.507   2.869  15.265 -0.6277  0.7000 -0.0769
11931TIP3   OH257283   4.498   6.205   1.843  0.0257  0.2057  0.2871
11931TIP3    H157284   4.471   6.120   1.879  0.8630 -0.1481  0.0891
11931TIP3    H257285   4.479   6.267   1.914  0.0059 -0.2350  0.6766
11932TIP3   OH257286   6.354   5.807   4.195 -0.0183  0.1451  0.6366
11932TIP3    H157287   6.380   5.718   4.172  0.8940  0.6598 -0.4052
11932TIP3    H257288   6.277   5.796   4.251  1.1030 -1.3677  1.9960
11933TIP3   OH257289   3.223   5.471   1.457 -0.1691  0.0322  0.0287
11933TIP3    H157290   3.263   5.476   1.370  0.0608 -0.2380  0.1166
11933TIP3    H257291   3.274   5.405   1.503 -0.4032  0.0459  0.3121
11934TIP3   OH257292   3.730   0.531  16.028  0.5223 -0.7982 -0.3805
11934TIP3    H157293   3.664   0.597  16.007 -1.2010 -2.4994 -0.5587
11934TIP3    H257294   3.785   0.526  15.949  0.6194  0.3402 -0.3936
11935TIP3   OH257295   4.836   6.757  14.543 -0.3239 -0.2875  0.5137
11935TIP3    H157296   4.797   6.839  14.571  0.1080  0.5829 -1.2923
11935TIP3    H257297   4.857   6.770  14.450  0.7833 -2.0389  0.4578
11936TIP3   OH257298   5.678   5.299   5.111  0.0840 -0.0206 -0.2785
11936TIP3    H157299   5.717   5.344   5.185  0.6900 -0.3024 -0.4246
11936TIP3    H257300   5.653   5.368   5.051 -1.1504  0.2761  0.5224
11937TIP3   OH257301   1.203   3.517   3.169 -0.2917 -0.0084 -0.2701
11937TIP3    H157302   1.114   3.497   3.139  0.0074 -0.7350 -0.7076
11937TIP3    H257303   1.255   3.442   3.140  0.1236 -0.5384  1.6810
11938TIP3   OH257304   0.573   0.880  12.716 -0.2320 -0.4526 -0.2390
11938TIP3    H157305   0.620   0.917  12.641 -0.9627 -0.0525 -0.5129
11938TIP3    H257306   0.619   0.914  12.792 -1.3020  1.6803 -0.4588
11939TIP3   OH257307   5.231   4.873   1.143  0.0157  0.6447  0.0349
11939TIP3    H157308   5.183   4.896   1.064 -0.3503  0.6447  0.2576
11939TIP3    H257309   5.225   4.950   1.199 -1.9816 -0.2446  1.1551
11940TIP3   OH257310   4.171   3.179   4.750  0.3086 -0.8010  0.9850
11940TIP3    H157311   4.133   3.221   4.673 -0.3226 -1.5507  0.8793
11940TIP3    H257312   4.172   3.248   4.817  0.6773 -0.2021  0.3814
11941TIP3   OH257313   0.331   2.969  13.033 -0.3758 -0.2966 -0.1651
11941TIP3    H157314   0.375   2.918  12.965  0.3133  1.8905 -1.4671
11941TIP3    H257315   0.256   3.008  12.989 -0.8663 -0.1685  0.7669
11942TIP3   OH257316   3.996   0.686   0.239 -0.0931 -0.2533 -0.2785
11942TIP3    H157317   4.041   0.746   0.180 -1.3713 -0.6127 -1.6682
11942TIP3    H257318   3.908   0.722   0.248 -0.5206 -1.2790 -0.1991
11943TIP3   OH257319   0.777   5.850   4.158  0.0234 -0.0501  0.3664
11943TIP3    H157320   0.816   5.771   4.121 -0.4103 -0.4953  0.8454
11943TIP3    H257321   0.685   5.847   4.130 -0.3180 -0.4027  1.4657
11944TIP3   OH257322   1.323   4.849  12.173 -0.4955  0.1915  0.4782
11944TIP3    H157323   1.386   4.910  12.211  1.5073 -0.6910 -1.2209
11944TIP3    H257324   1.368   4.764  12.174 -0.9612 -0.1715 -2.2687
11945TIP3   OH257325   0.351   4.941   2.401 -0.2823 -0.1142 -0.0010
11945TIP3    H157326   0.265   4.971   2.431 -0.2957 -0.1011 -0.0516
11945TIP3    H257327   0.335   4.909   2.312  0.0923  1.5309 -0.6932
11946TIP3   OH257328   4.188   4.284  13.806  0.0207 -0.3264 -0.1032
11946TIP3    H157329   4.280   4.269  13.785  0.0595 -1.8733  0.9602
11946TIP3    H257330   4.176   4.379  13.799  1.8540 -0.0275  0.3423
11947TIP3   OH257331   1.319   5.532   0.936 -0.1848  0.3651  0.8371
11947TIP3    H157332   1.395   5.588   0.924 -0.6122  0.5046 -1.6692
11947TIP3    H257333   1.350   5.444   0.917 -0.4716  0.3219  0.5541
11948TIP3   OH257334   2.662   2.761  11.669  0.3459 -0.1873  0.5817
11948TIP3    H157335   2.633   2.671  11.653 -1.3613  0.4651 -0.2367
11948TIP3    H257336   2.751   2.764  11.635  0.0695 -1.3041 -0.3048
11949TIP3   OH257337   0.048   0.603   4.393  0.4094 -0.1253  0.0171
11949TIP3    H157338   0.077   0.656   4.318  0.0248 -0.4168 -0.3467
11949TIP3    H257339   0.016   0.667   4.457  2.0402  0.2210  0.5296
11950TIP3   OH257340   2.108   2.566   0.883 -0.1269  0.3472 -0.4837
11950TIP3    H157341   2.024   2.611   0.872 -1.7572 -2.0600  1.0903
11950TIP3    H257342   2.172   2.636   0.896 -2.3716  2.2276  1.2004
11951TIP3   OH257343   0.604   5.983  10.948  0.1384  0.1725 -0.2121
11951TIP3    H157344   0.651   6.064  10.965 -0.4202  0.5922 -0.6311
11951TIP3    H257345   0.659   5.914  10.987  0.2545  0.8124  0.7871
11952TIP3   OH257346   4.884   3.174  13.152 -0.3465  0.4466  0.0423
11952TIP3    H157347   4.957   3.113  13.157 -0.6693 -0.0815 -1.3970
11952TIP3    H257348   4.868   3.186  13.059 -1.2821  1.5463  0.3192
11953TIP3   OH257349   5.370   1.258  13.027 -0.2906 -0.6897  0.7687
11953TIP3    H157350   5.447   1.314  13.035  1.2373 -2.2706 -1.8369
11953TIP3    H257351   5.372   1.203  13.105  0.1411  0.4484  1.6016
11954TIP3   OH257352   2.747   3.593  12.069 -0.1956 -0.0408 -0.5861
11954TIP3    H157353   2.750   3.672  12.015 -2.2976  0.7032  0.2532
11954TIP3    H257354   2.691   3.533  12.020  1.2755 -1.0140 -1.1499
11955TIP3   OH257355   1.101   5.318   4.416 -0.5934 -0.6233 -0.5468
11955TIP3    H157356   1.193   5.309   4.388 -0.8004 -1.6335 -0.9438
11955TIP3    H257357   1.105   5.327   4.511 -0.0506 -0.0913 -0.6140
11956TIP3   OH257358   4.246   2.919   1.099 -0.6841  0.0912  0.0646
11956TIP3    H157359   4.232   2.887   1.010 -0.9180  1.2195 -0.3177
11956TIP3    H257360   4.162   2.904   1.143 -0.8688  0.3866 -0.1822
11957TIP3   OH257361   4.925   5.107  11.638  0.2021  0.1500 -0.1077
11957TIP3    H157362   4.883   5.192  11.649  0.4721  0.1990  0.5779
11957TIP3    H257363   5.012   5.119  11.675  0.8054  0.0244 -1.4167
11958TIP3   OH257364   1.104   1.259  16.285 -0.2244  0.1175 -0.7222
11958TIP3    H157365   1.023   1.238  16.331  0.4307 -1.8386 -0.3385
11958TIP3    H257366   1.084   1.338  16.235 -2.7119 -0.9099 -1.5239
11959TIP3   OH257367   6.545   3.670   3.357  0.3610 -0.2376 -0.3402
11959TIP3    H157368   6.463   3.623   3.367 -0.7785  1.7349  0.1815
11959TIP3    H257369   6.583   3.637   3.276 -1.0937 -0.9835 -0.7446
11960TIP3   OH257370   6.134   5.793  10.640  0.2510 -0.0691 -0.0036
11960TIP3    H157371   6.218   5.837  10.628  0.8281 -1.0338  0.3876
11960TIP3    H257372   6.074   5.839  10.581  0.8703  1.1077  0.2644
11961TIP3   OH257373   6.397   2.924  11.953  0.5005 -0.6469  0.3653
11961TIP3    H157374   6.410   2.863  11.880  1.0116  0.6202 -0.6452
11961TIP3    H257375   6.302   2.927  11.964  0.2732  0.4778 -1.4715
11962TIP3   OH257376   4.983   4.653  16.776  0.2388 -0.5497  0.4044
11962TIP3    H157377   4.927   4.697  16.712  0.8863 -1.0193 -0.5084
11962TIP3    H257378   5.055   4.715  16.792  1.2392 -1.2907 -1.0078
11963TIP3   OH257379   4.267   0.685  11.486 -0.1982  0.1821  0.0030
11963TIP3    H157380   4.236   0.659  11.399  0.9572 -1.3420 -0.0062
11963TIP3    H257381   4.356   0.716  11.471 -0.1981  0.4632  0.5680
11964TIP3   OH257382   6.497   5.736   5.558 -0.2390  0.2918  0.3660
11964TIP3    H157383   6.592   5.736   5.563 -0.0553  3.0556 -1.2678
11964TIP3    H257384   6.474   5.823   5.525 -3.3430 -0.2804  0.6749
11965TIP3   OH257385   3.516   4.270  16.537 -0.1808  0.4449  0.4770
11965TIP3    H157386   3.434   4.232  16.506  0.4854 -0.6638  0.0099
11965TIP3    H257387   3.536   4.339  16.473  0.6952 -1.1956 -1.1274
11966TIP3   OH257388   3.279   2.159   5.567 -0.0721 -0.1649 -0.3486
11966TIP3    H157389   3.232   2.086   5.608  1.4258 -0.1257  1.5834
11966TIP3    H257390   3.368   2.152   5.600 -0.1855  3.3961  1.1851
11967TIP3   OH257391   1.785   0.772  12.608  0.4256 -0.0499  0.3303
11967TIP3    H157392   1.719   0.832  12.573  0.0968 -1.3851 -1.4527
11967TIP3    H257393   1.738   0.722  12.675 -0.1629 -0.4635 -0.3880
11968TIP3   OH257394   4.370   1.408  15.331 -0.5330  0.4117  0.0702
11968TIP3    H157395   4.359   1.386  15.423 -0.8369 -0.0174 -0.0605
11968TIP3    H257396   4.464   1.421  15.319 -0.3478 -0.6967  0.1950
11969TIP3   OH257397   3.078   6.078   2.592  0.0056 -0.0445 -0.4653
11969TIP3    H157398   3.057   6.164   2.629 -0.1673  0.3047 -1.3487
11969TIP3    H257399   3.085   6.021   2.668  0.9306  0.9140  0.1956
11970TIP3   OH257400   1.052   1.738   5.521  0.5763 -0.2279 -0.4417
11970TIP3    H157401   0.963   1.771   5.522  0.5616 -0.0658 -2.5388
11970TIP3    H257402   1.049   1.659   5.576 -1.0329 -0.6193 -1.0322
11971TIP3   OH257403   4.878   5.141  15.935 -0.2117 -0.0551  0.2246
11971TIP3    H157404   4.879   5.147  15.839 -0.4326  1.4300  0.2965
11971TIP3    H257405   4.961   5.180  15.962 -1.1871  1.7763  0.7109
11972TIP3   OH257406   3.539   6.842   2.468  0.1166 -0.0986 -0.3055
11972TIP3    H157407   3.568   6.812   2.381 -2.0876 -2.0417 -0.4574
11972TIP3    H257408   3.556   6.767   2.526 -1.1885  0.0587  0.3105
11973TIP3   OH257409   2.479   2.984  11.605  0.8495  0.3544  0.6878
11973TIP3    H157410   2.517   3.047  11.666  3.3655  1.0516 -1.4208
11973TIP3    H257411   2.541   2.911  11.605 -0.0728 -0.4418  0.3362
11974TIP3   OH257412   4.124   1.404  11.103  0.6434  0.3918  0.2427
11974TIP3    H157413   4.053   1.388  11.165  1.3040  1.2972  1.2484
11974TIP3    H257414   4.200   1.425  11.157  0.9576  2.3187 -0.8732
11975TIP3   OH257415   2.057   1.264  16.782  0.4366 -0.0157  0.1819
11975TIP3    H157416   2.039   1.326  16.852 -0.5261 -0.5639  0.4373
11975TIP3    H257417   1.974   1.255  16.735  0.6753 -0.7795 -0.1123
11976TIP3   OH257418   3.674   4.869  11.874  0.3173 -0.3810  0.1267
11976TIP3    H157419   3.628   4.787  11.857  1.4786 -0.7253 -1.6166
11976TIP3    H257420   3.617   4.936  11.837  0.5443 -0.6723 -0.7779
11977TIP3   OH257421   1.049   3.302   2.672  0.0833  0.1676 -0.2968
11977TIP3    H157422   1.071   3.394   2.687 -1.5008  0.2493  2.0785
11977TIP3    H257423   1.123   3.253   2.708 -0.7120  0.5156  1.9727
11978TIP3   OH257424   4.618   4.280   3.027 -0.2797 -0.7051  0.5603
11978TIP3    H157425   4.540   4.307   2.979  1.8582  1.3570 -2.0541
11978TIP3    H257426   4.615   4.333   3.107 -1.7778 -1.0666  0.7778
11979TIP3   OH257427   4.811   2.328   5.529  0.0761 -0.2351 -0.0641
11979TIP3    H157428   4.826   2.352   5.620 -1.9931 -1.4855  0.6748
11979TIP3    H257429   4.716   2.318   5.521  0.1226  0.5637 -2.5701
11980TIP3   OH257430   5.915   5.725  12.541  0.2800 -0.5320  0.2992
11980TIP3    H157431   5.901   5.772  12.459  2.9513  0.7807  0.4916
11980TIP3    H257432   5.849   5.761  12.601 -0.6875 -0.3933 -0.8105
11981TIP3   OH257433   2.168   5.567  14.917  0.2945  0.0395  0.0142
11981TIP3    H157434   2.248   5.601  14.957  1.8929 -0.9358 -2.1356
11981TIP3    H257435   2.187   5.564  14.824 -1.0050 -3.3728 -0.2759
11982TIP3   OH257436   3.164   2.853   1.945  0.3119  0.0262 -0.6371
11982TIP3    H157437   3.096   2.837   1.880 -0.0738 -0.4301 -0.1353
11982TIP3    H257438   3.236   2.795   1.920  0.4361  0.3541 -1.0466
11983TIP3   OH257439   4.814   3.463   2.318  0.5250  0.1890  0.1402
11983TIP3    H157440   4.844   3.446   2.407 -1.7396 -1.7058  0.6471
11983TIP3    H257441   4.726   3.500   2.329 -0.5063 -1.6733 -1.2586
11984TIP3   OH257442   6.776   2.912   2.004  0.0856  0.2291  0.1376
11984TIP3    H157443   6.741   2.866   1.927  0.9400 -1.0971  0.5052
11984TIP3    H257444   6.709   2.902   2.071  0.3727 -0.7476  0.2933
11985TIP3   OH257445   2.674   1.736   5.693  0.6482  0.0425  0.3070
11985TIP3    H157446   2.618   1.658   5.695 -0.1998  0.6399  0.5693
11985TIP3    H257447   2.708   1.742   5.783 -2.9538  2.4933  1.7694
11986TIP3   OH257448   5.283   0.389  13.735 -0.6870 -0.2588 -0.2682
11986TIP3    H157449   5.272   0.294  13.729  3.2924 -0.9030 -0.7114
11986TIP3    H257450   5.327   0.402  13.819  0.3940  0.9171 -0.9843
11987TIP3   OH257451   5.398   6.342  13.766  0.1692  0.4604 -0.0071
11987TIP3    H157452   5.394   6.285  13.843  2.3221  0.2049 -0.0127
11987TIP3    H257453   5.423   6.428  13.802 -2.8761  1.4617 -0.0166
11988TIP3   OH257454   4.851   0.843  15.345 -0.1100  0.6278 -0.0129
11988TIP3    H157455   4.843   0.748  15.351 -0.1099  0.6458  0.3382
11988TIP3    H257456   4.862   0.861  15.252 -1.3343  0.3820 -0.2283
11989TIP3   OH257457   2.262   5.689  13.703 -0.3718 -0.2302 -0.1865
11989TIP3    H157458   2.329   5.621  13.713  0.1305 -0.0321 -1.9703
11989TIP3    H257459   2.242   5.716  13.793 -0.3559 -2.4955  0.5512
11990TIP3   OH257460   2.083   4.771  17.017 -0.4265 -0.2380 -0.7720
11990TIP3    H157461   2.032   4.848  17.042  0.3562  0.2278 -0.5679
11990TIP3    H257462   2.099   4.725  17.100  4.3479  2.6258  0.3126
11991TIP3   OH257463   1.314   0.993   0.925 -0.1201 -0.0787 -0.3890
11991TIP3    H157464   1.401   1.032   0.917 -0.9311  1.5836 -1.6703
11991TIP3    H257465   1.287   1.015   1.014  0.7174 -0.5294 -0.0084
11992TIP3   OH257466   5.749   4.352   2.019  0.9624  0.5002 -0.4412
11992TIP3    H157467   5.795   4.361   1.935  1.7668  0.8695  0.0257
11992TIP3    H257468   5.819   4.332   2.082  0.4328  0.7547  0.2330
11993TIP3   OH257469   4.742   1.115  13.626 -0.0719  0.7704  0.0740
11993TIP3    H157470   4.784   1.124  13.540 -0.4117  0.2537 -0.1571
11993TIP3    H257471   4.726   1.021  13.634 -2.5227  1.0845 -0.5032
11994TIP3   OH257472   6.318   2.688   4.912 -0.1553  0.2703 -0.1603
11994TIP3    H157473   6.224   2.708   4.913 -0.3352 -0.5200  0.5322
11994TIP3    H257474   6.327   2.616   4.974  1.2486  1.8098  1.5415
11995TIP3   OH257475   0.894   1.878  12.886  0.0714 -0.0685 -0.3144
11995TIP3    H157476   0.929   1.966  12.874 -2.2860  0.9080 -0.5443
11995TIP3    H257477   0.910   1.834  12.803  1.7410 -0.0887 -0.0214
11996TIP3   OH257478   3.081   1.185   3.703  0.2647 -0.1060 -0.1300
11996TIP3    H157479   2.986   1.178   3.702  0.3236 -1.0559 -0.5314
11996TIP3    H257480   3.111   1.107   3.656  1.2437  0.0873  0.1493
11997TIP3   OH257481   4.323   3.593   3.909  0.2218 -0.2971 -0.8472
11997TIP3    H157482   4.243   3.549   3.880  0.5453 -0.9577 -0.7416
11997TIP3    H257483   4.394   3.544   3.868  0.6187 -0.3110 -0.1608
11998TIP3   OH257484   2.951   0.324  13.746 -0.0210 -0.4234  0.3656
11998TIP3    H157485   2.969   0.359  13.833 -2.4454 -1.7234  1.4767
11998TIP3    H257486   3.002   0.244  13.741  1.4759  0.5069 -0.1681
11999TIP3   OH257487   4.227   3.599  14.827  0.1542 -0.1458 -0.0733
11999TIP3    H157488   4.189   3.516  14.855  1.0903 -1.0115 -1.2960
11999TIP3    H257489   4.317   3.578  14.802  0.2448  1.1123 -0.9169
12000TIP3   OH257490   6.036   4.834  15.058 -0.5294 -0.6872 -0.3587
12000TIP3    H157491   6.117   4.787  15.075 -0.7763 -1.3635 -0.9894
12000TIP3    H257492   5.992   4.783  14.991 -0.2276  1.1224 -2.0395
12001TIP3   OH257493   4.206   5.903   0.745  0.1734 -0.1303 -0.1739
12001TIP3    H157494   4.202   5.988   0.699 -0.4994 -0.0571  0.0028
12001TIP3    H257495   4.162   5.920   0.829  0.9253 -0.4012  0.2791
12002TIP3   OH257496   4.943   0.248   1.499  0.1430  0.3020 -0.6596
12002TIP3    H157497   4.967   0.302   1.574 -1.0353  0.2235 -0.2031
12002TIP3    H257498   4.896   0.173   1.537  1.4509 -0.8896 -1.3053
12003TIP3   OH257499   2.513   3.218   4.987 -0.0060  0.2759  0.2000
12003TIP3    H157500   2.519   3.309   4.959 -1.2070  0.9520  1.9497
12003TIP3    H257501   2.516   3.222   5.082  1.3076 -1.6664  0.2982
12004TIP3   OH257502   5.239   4.446   1.093 -0.1992 -0.0875  0.2205
12004TIP3    H157503   5.146   4.467   1.096 -0.0038  1.2662 -1.5289
12004TIP3    H257504   5.284   4.530   1.105  0.7768 -0.5541 -0.0093
12005TIP3   OH257505   0.764   2.623   6.284  0.0668  0.5594 -0.0049
12005TIP3    H157506   0.683   2.577   6.303  0.2679  0.2413  0.0911
12005TIP3    H257507   0.806   2.571   6.215  0.2965  0.5939  0.1072
12006TIP3   OH257508   6.420   5.991   5.411 -0.0426  0.4249  0.5931
12006TIP3    H157509   6.464   6.072   5.436  1.2121 -0.3638  1.0192
12006TIP3    H257510   6.344   5.987   5.469  0.6324  0.6231  1.5125
12007TIP3   OH257511   1.848   6.457  16.764 -0.2252  0.3150 -0.2106
12007TIP3    H157512   1.792   6.495  16.832 -0.5688 -1.9604  0.9198
12007TIP3    H257513   1.787   6.410  16.707  0.3007 -0.2144 -0.3477
12008TIP3   OH257514   2.907   6.032  12.249  0.3168 -0.4286  0.2644
12008TIP3    H157515   2.927   6.108  12.303  0.2012  1.1429 -1.8024
12008TIP3    H257516   2.814   6.042  12.226  0.7267 -0.2102 -1.4289
12009TIP3   OH257517   0.997   2.787   4.428  0.0340  0.2207  0.2173
12009TIP3    H157518   1.012   2.743   4.344 -0.7118 -0.0042  0.1918
12009TIP3    H257519   0.978   2.716   4.489 -0.3495  0.4495  0.3664
12010TIP3   OH257520   4.416   2.799  15.718 -0.0528  0.1269 -0.1560
12010TIP3    H157521   4.379   2.886  15.701  0.6740  0.6278  0.7042
12010TIP3    H257522   4.489   2.792  15.656  0.3250  0.4264  0.2520
12011TIP3   OH257523   2.697   2.056  15.898  0.1272 -0.0283  0.1455
12011TIP3    H157524   2.666   2.056  15.808  0.4317 -0.2090  0.0400
12011TIP3    H257525   2.700   2.149  15.923 -0.5885 -0.0145  0.1910
12012TIP3   OH257526   3.433   1.639   5.924 -0.5429 -0.0172  0.1769
12012TIP3    H157527   3.403   1.638   5.833  0.5456  0.0876 -0.1883
12012TIP3    H257528   3.499   1.570   5.929 -0.8011 -0.2218  0.9661
12013TIP3   OH257529   0.427   0.337  12.028  0.0011  0.0791  0.3972
12013TIP3    H157530   0.437   0.396  12.102 -0.4893  0.8159 -0.1164
12013TIP3    H257531   0.399   0.254  12.067 -0.2381  0.4527  1.0324
12014TIP3   OH257532   6.443   2.833  15.283 -0.8660  0.4875 -0.0949
12014TIP3    H157533   6.408   2.746  15.262  0.6834 -0.3468  0.5735
12014TIP3    H257534   6.531   2.833  15.244 -0.5225  1.4324  0.6376
12015TIP3   OH257535   4.616   3.232  11.483 -0.1351  0.1518  0.3876
12015TIP3    H157536   4.582   3.189  11.404  0.9092  1.2921 -0.7175
12015TIP3    H257537   4.548   3.296  11.506 -0.0423  0.4448 -0.1321
12016TIP3   OH257538   5.544   6.144  15.084 -0.5365 -0.0705 -0.3671
12016TIP3    H157539   5.579   6.113  15.001 -0.4976 -0.2024 -0.3019
12016TIP3    H257540   5.454   6.170  15.064 -0.0250  1.4793 -0.8267
12017TIP3   OH257541   6.522   6.472   1.209 -0.4419  0.4502 -0.2155
12017TIP3    H157542   6.516   6.377   1.211  1.4820  0.2459 -1.0117
12017TIP3    H257543   6.484   6.496   1.125  1.0163  0.1154 -1.0216
12018TIP3   OH257544   4.534   0.659   4.707  0.2669 -0.4469  0.0417
12018TIP3    H157545   4.507   0.582   4.757  0.4602  0.1491  1.0943
12018TIP3    H257546   4.459   0.718   4.711  0.4222 -0.2415 -0.0426
12019TIP3   OH257547   1.360   1.185  13.273 -0.2043  0.2198 -0.2186
12019TIP3    H157548   1.450   1.186  13.241 -0.6078  0.9020 -1.3806
12019TIP3    H257549   1.353   1.263  13.329 -0.2419  0.5166 -0.6328
12020TIP3   OH257550   1.531   5.371   4.609 -0.1263  0.3899  0.0796
12020TIP3    H157551   1.583   5.312   4.554  1.7539  0.6783  1.4299
12020TIP3    H257552   1.526   5.453   4.559 -0.3397 -0.0300 -0.5941
12021TIP3   OH257553   3.002   2.564   6.683  0.1037 -0.0619  1.0772
12021TIP3    H157554   2.988   2.492   6.744  1.2739 -1.2651 -0.0184
12021TIP3    H257555   2.915   2.604   6.672 -0.2514 -0.2548  2.9521
12022TIP3   OH257556   4.905   2.909   0.520  0.0141 -0.2907  0.6436
12022TIP3    H157557   4.898   2.988   0.575  1.5325  0.9223 -0.7958
12022TIP3    H257558   4.899   2.942   0.430  3.1371 -1.4032 -0.1023
12023TIP3   OH257559   5.040   0.078   1.224  0.4522  0.1504  0.0942
12023TIP3    H157560   5.086   0.158   1.201 -0.6228  1.0106  0.8289
12023TIP3    H257561   4.951   0.106   1.243  0.7838 -0.6726  3.5668
12024TIP3   OH257562   2.579   4.643   4.900 -0.4090 -0.1017  0.3082
12024TIP3    H157563   2.487   4.615   4.904 -0.7312  0.8951  0.2032
12024TIP3    H257564   2.628   4.564   4.878 -1.3367 -0.4647 -0.4918
12025TIP3   OH257565   4.048   5.563  12.544 -0.5224  0.1800 -0.0360
12025TIP3    H157566   4.108   5.613  12.489 -0.2055  0.6112  0.6766
12025TIP3    H257567   3.983   5.627  12.573 -0.6354 -0.0200  0.1552
12026TIP3   OH257568   5.576   6.038   2.473  0.6338  0.5307 -0.3763
12026TIP3    H157569   5.656   6.054   2.423  0.4180 -1.8346 -1.5816
12026TIP3    H257570   5.589   5.952   2.513 -1.1760  0.2514 -0.3029
12027TIP3   OH257571   3.275   2.192   4.672 -0.1109  0.8928  0.3149
12027TIP3    H157572   3.203   2.129   4.681  1.4232 -0.8100  1.5326
12027TIP3    H257573   3.267   2.247   4.750  1.2609 -0.8917  1.8253
12028TIP3   OH257574   1.767   2.426  12.427 -0.1189 -0.3137  0.0632
12028TIP3    H157575   1.767   2.454  12.519  0.4249  0.4281 -0.1500
12028TIP3    H257576   1.857   2.394  12.412 -0.2887 -0.7099 -0.1360
12029TIP3   OH257577   5.755   2.452   4.763  0.5548 -0.0533  0.3940
12029TIP3    H157578   5.672   2.480   4.802  0.6624  0.3025  0.3747
12029TIP3    H257579   5.768   2.363   4.796 -0.5735 -0.6991 -0.7889
12030TIP3   OH257580   5.995   0.072   5.969 -0.1653  0.0945  0.3322
12030TIP3    H157581   5.934   0.146   5.970 -0.3179 -0.0159 -0.4526
12030TIP3    H257582   6.001   0.044   6.061 -3.1626 -1.4267  0.1639
12031TIP3   OH257583   6.541   6.624  11.184 -0.5938 -0.0986 -0.6599
12031TIP3    H157584   6.456   6.596  11.149  0.0373 -0.1945 -2.2125
12031TIP3    H257585   6.578   6.680  11.115  1.4809 -1.7193 -0.9628
12032TIP3   OH257586   6.399   4.127  12.103 -0.7147 -0.6495 -0.0647
12032TIP3    H157587   6.400   4.089  12.015  1.3422 -1.3709  0.2307
12032TIP3    H257588   6.397   4.221  12.089  1.7239 -0.6681 -0.9794
12033TIP3   OH257589   1.422   4.581   4.351  0.9915  0.1427  1.1717
12033TIP3    H157590   1.340   4.622   4.326  0.6163 -0.3857  1.5011
12033TIP3    H257591   1.485   4.653   4.359  0.5180  0.5644  1.0814
12034TIP3   OH257592   4.793   3.545  14.455 -0.3423 -0.0476 -0.2469
12034TIP3    H157593   4.869   3.493  14.481  0.8476  1.9380  0.4609
12034TIP3    H257594   4.771   3.596  14.533 -1.6108  0.3502 -0.8365
12035TIP3   OH257595   4.281   0.919   0.239 -0.1700 -0.1574 -0.3123
12035TIP3    H157596   4.204   0.972   0.257 -0.0828 -0.2863  0.5008
12035TIP3    H257597   4.253   0.858   0.171 -1.0138 -0.6614  0.4491
12036TIP3   OH257598   2.427   5.777  12.914  0.3457 -0.1834  0.0632
12036TIP3    H157599   2.437   5.795  12.821 -0.3070 -3.1359 -0.6903
12036TIP3    H257600   2.481   5.843  12.958  0.7281  1.2305 -2.3663
12037TIP3   OH257601   1.327   1.502  12.973  0.0351  0.1793  0.1439
12037TIP3    H157602   1.284   1.586  12.955  0.5729  0.8613  1.8322
12037TIP3    H257603   1.415   1.511  12.934 -0.6597 -0.5421 -1.7340
12038TIP3   OH257604   2.023   0.547  15.054 -0.3687 -0.0372  0.1036
12038TIP3    H157605   2.081   0.573  15.126  0.5442  0.6395 -0.8594
12038TIP3    H257606   2.062   0.467  15.019 -0.0844  0.3335 -0.4439
12039TIP3   OH257607   0.557   2.097  13.288  0.1199  0.1307  0.0635
12039TIP3    H157608   0.619   2.151  13.239  0.0157  0.8788  0.7310
12039TIP3    H257609   0.472   2.136  13.270  0.0913  0.4823  0.9097
12040TIP3   OH257610   5.832   6.261   4.188 -0.3896  0.1930 -0.0195
12040TIP3    H157611   5.742   6.292   4.185 -0.8355 -1.0113  0.2871
12040TIP3    H257612   5.879   6.328   4.237 -1.4499  0.0989  1.1765
12041TIP3   OH257613   4.870   3.106  14.075 -0.5271  0.4210  0.3454
12041TIP3    H157614   4.787   3.065  14.096 -0.5210 -0.5572 -1.3555
12041TIP3    H257615   4.846   3.184  14.024 -0.4045 -0.1993 -0.6804
12042TIP3   OH257616   0.745   1.642  10.728  0.0167 -0.2272 -0.5539
12042TIP3    H157617   0.746   1.695  10.808  1.1464  0.0044 -0.7087
12042TIP3    H257618   0.831   1.601  10.725  0.4695  0.7625 -2.2985
12043TIP3   OH257619   5.492   4.944  16.679 -0.6963 -0.0500 -0.5811
12043TIP3    H157620   5.587   4.945  16.666 -0.6747 -1.3753 -0.6403
12043TIP3    H257621   5.460   5.019  16.629  0.3415  0.5803 -0.3274
12044TIP3   OH257622   1.910   6.403  10.985 -0.1218  0.0163 -0.1655
12044TIP3    H157623   2.002   6.424  10.969  0.7097 -1.5940  2.0066
12044TIP3    H257624   1.882   6.356  10.907  0.9917  0.2361 -0.7145
12045TIP3   OH257625   6.238   0.349  13.199  0.0305  0.3915  0.2551
12045TIP3    H157626   6.278   0.275  13.246  1.3964 -0.4154 -2.0242
12045TIP3    H257627   6.144   0.331  13.201  0.2756 -0.9975  0.4171
12046TIP3   OH257628   2.739   4.721   3.293 -0.0167  0.0083  0.3237
12046TIP3    H157629   2.653   4.760   3.282  0.0246  0.0093 -0.0134
12046TIP3    H257630   2.748   4.709   3.387 -1.2263 -1.8833  0.2530
12047TIP3   OH257631   6.041   6.747   4.259  0.0050 -0.0575 -0.0756
12047TIP3    H157632   6.124   6.699   4.262  0.7544  1.2280  0.8581
12047TIP3    H257633   5.977   6.681   4.232  1.3857 -0.9607 -1.3399
12048TIP3   OH257634   5.531   2.095   0.440 -0.3355  0.0815 -0.5407
12048TIP3    H157635   5.512   2.184   0.469 -0.4767  0.0325 -0.4795
12048TIP3    H257636   5.613   2.102   0.391 -0.2462  0.2120 -0.3724
12049TIP3   OH257637   3.437   0.222   3.075 -1.2409 -0.4070  0.3176
12049TIP3    H157638   3.421   0.130   3.054  1.4913 -0.8141 -0.2950
12049TIP3    H257639   3.438   0.266   2.990 -0.8874 -0.1042  0.4756
12050TIP3   OH257640   5.254   1.897  14.573  0.1046  0.3477  0.7971
12050TIP3    H157641   5.233   1.958  14.644  1.5003  1.0431  0.6455
12050TIP3    H257642   5.283   1.818  14.617 -0.1295  0.3704  0.9935
12051TIP3   OH257643   5.427   5.422   3.825  0.4374 -0.5023 -0.1035
12051TIP3    H157644   5.502   5.400   3.879  0.3215 -0.0703  0.2434
12051TIP3    H257645   5.459   5.491   3.766  0.1254  0.2289  0.5571
12052TIP3   OH257646   1.774   6.064   0.340 -0.1406  0.5249 -0.4579
12052TIP3    H157647   1.726   5.997   0.388  0.1329  0.8563  0.2992
12052TIP3    H257648   1.840   6.095   0.402  0.4305  0.7409 -1.1610
12053TIP3   OH257649   4.318   0.662  16.190  0.0940  0.3091  0.2114
12053TIP3    H157650   4.233   0.704  16.204 -1.1106 -2.2943  1.4680
12053TIP3    H257651   4.301   0.592  16.127  1.2849 -0.2939  0.5158
12054TIP3   OH257652   5.713   4.914  16.067  0.0771  0.7323  0.0409
12054TIP3    H157653   5.766   4.947  16.140 -0.4102  0.7266  0.4049
12054TIP3    H257654   5.777   4.879  16.005  0.4611 -1.0673  1.3389
12055TIP3   OH257655   0.436   0.285   1.899 -0.2249 -0.5448 -0.8898
12055TIP3    H157656   0.379   0.302   1.974  4.4511  0.4818  2.8672
12055TIP3    H257657   0.416   0.194   1.874 -2.7093 -0.5613  0.8198
12056TIP3   OH257658   2.293   3.594   4.825  0.0978 -0.4359  0.1922
12056TIP3    H157659   2.302   3.665   4.761  0.8066  0.3542  1.1336
12056TIP3    H257660   2.248   3.635   4.899  0.8253 -0.8658  0.8872
12057TIP3   OH257661   4.845   2.183  15.454  0.0213 -0.0159 -0.1707
12057TIP3    H157662   4.888   2.102  15.481  1.4390  0.3865 -1.1087
12057TIP3    H257663   4.804   2.162  15.369  0.1412  0.1715 -0.2759
12058TIP3   OH257664   6.158   5.989  14.122 -0.4173 -0.2598  0.0506
12058TIP3    H157665   6.207   6.068  14.147 -0.2160 -0.2819 -0.2715
12058TIP3    H257666   6.194   5.964  14.037  0.0317 -1.1237  0.4786
12059TIP3   OH257667   6.332   1.650  12.813 -0.3637 -0.7616 -0.7879
12059TIP3    H157668   6.411   1.626  12.862 -0.6000 -1.3239 -0.6754
12059TIP3    H257669   6.283   1.568  12.805 -1.7556 -0.1179  0.6081
12060TIP3   OH257670   1.999   4.270   4.663 -0.2219 -0.1804 -0.0140
12060TIP3    H157671   2.070   4.211   4.637  1.4659  1.1618  1.2753
12060TIP3    H257672   2.042   4.337   4.716 -2.1588  1.7901 -0.7600
12061TIP3   OH257673   0.446   0.218   3.281  0.0673 -0.1653  0.5074
12061TIP3    H157674   0.385   0.147   3.299  0.0715 -1.3910 -3.4364
12061TIP3    H257675   0.410   0.262   3.203  2.7868  0.7526 -0.3474
12062TIP3   OH257676   5.983   1.399  16.681 -0.6772  0.1240 -0.0140
12062TIP3    H157677   6.048   1.331  16.700  0.4396  0.9893 -0.6068
12062TIP3    H257678   5.901   1.364  16.717  0.5257  0.0102  2.9661
12063TIP3   OH257679   5.969   0.554   3.854 -0.2032  0.8769  0.0790
12063TIP3    H157680   6.006   0.640   3.875  2.1979  0.6414 -2.6185
12063TIP3    H257681   6.040   0.507   3.810 -1.2053 -2.8314  2.0461
12064TIP3   OH257682   4.640   3.333   1.606  0.0249 -0.2121  0.3448
12064TIP3    H157683   4.561   3.344   1.659  0.1136  0.9039  0.2622
12064TIP3    H257684   4.613   3.354   1.517  0.4474  0.2990  0.3352
12065TIP3   OH257685   0.446   2.605  16.311  0.0282 -0.2828 -0.2787
12065TIP3    H157686   0.356   2.635  16.302 -0.1230 -0.9063 -0.8998
12065TIP3    H257687   0.494   2.653  16.243 -0.0194 -0.6650 -0.5856
12066TIP3   OH257688   1.936   4.750   6.090 -0.3572 -0.2065 -0.5883
12066TIP3    H157689   2.016   4.700   6.077  0.4399  1.0063 -0.4966
12066TIP3    H257690   1.945   4.788   6.177 -0.3139  1.1762 -1.1699
12067TIP3   OH257691   5.838   0.777   2.884  0.1334  0.1116 -0.4474
12067TIP3    H157692   5.857   0.740   2.798 -0.2152  0.3716 -0.6378
12067TIP3    H257693   5.849   0.872   2.873  2.5157  0.0155  0.4024
12068TIP3   OH257694   2.328   5.459  13.190 -0.2933  0.1070  0.2342
12068TIP3    H157695   2.336   5.374  13.233  0.5210  0.3341  0.5504
12068TIP3    H257696   2.312   5.520  13.261 -3.8124 -0.1028 -0.2035
12069TIP3   OH257697   3.951   1.197  16.156  0.1198  0.1724  1.1197
12069TIP3    H157698   3.907   1.207  16.071 -0.0712 -0.9860  1.0721
12069TIP3    H257699   4.044   1.205  16.136  0.0564  0.2633  0.8589
12070TIP3   OH257700   6.617   5.333   1.420  0.8203 -0.4321 -0.0910
12070TIP3    H157701   6.610   5.322   1.325 -0.3833  0.0641 -0.0768
12070TIP3    H257702   6.584   5.251   1.457 -0.4385  0.0539 -0.0934
12071TIP3   OH257703   5.579   5.882  12.100 -0.3827 -0.3213  0.3942
12071TIP3    H157704   5.615   5.967  12.078 -0.9242 -0.3352 -0.6005
12071TIP3    H257705   5.498   5.876  12.049 -0.1906 -1.5492  0.1983
12072TIP3   OH257706   1.038   0.653   3.818 -0.3380 -0.2183 -0.2932
12072TIP3    H157707   0.970   0.677   3.881 -1.4676 -0.3402 -1.4218
12072TIP3    H257708   1.108   0.717   3.833 -0.9110  0.2341  0.5540
12073TIP3   OH257709   5.935   6.682   3.366 -0.2295 -0.1864 -0.0388
12073TIP3    H157710   6.022   6.694   3.328 -0.0944  2.3880  0.9105
12073TIP3    H257711   5.951   6.637   3.448 -0.0051 -1.2266 -0.6317
12074TIP3   OH257712   3.679   0.277  10.204  0.1397  0.2281  0.3315
12074TIP3    H157713   3.696   0.243  10.116 -2.0825 -0.0102 -0.0604
12074TIP3    H257714   3.649   0.367  10.189  0.7004  0.5210  0.9333
12075TIP3   OH257715   5.057   5.216  13.044  0.1061 -0.1531  0.0258
12075TIP3    H157716   5.039   5.240  13.135 -1.3684 -2.4773  0.4533
12075TIP3    H257717   5.098   5.293  13.005 -3.0060  2.4366  1.5198
12076TIP3   OH257718   3.740   1.553  14.693  0.3584  0.4197  0.0798
12076TIP3    H157719   3.734   1.648  14.707 -1.7881  0.0717  2.2600
12076TIP3    H257720   3.665   1.532  14.638 -1.2545 -0.3382  2.4017
12077TIP3   OH257721   3.462   1.138  11.562  0.1191  0.1850  0.3325
12077TIP3    H157722   3.557   1.130  11.557  0.1759  0.8853  0.2239
12077TIP3    H257723   3.447   1.215  11.616 -0.3912 -0.1192  0.6276
12078TIP3   OH257724   4.678   0.966   3.264 -0.2949  0.5291  0.2456
12078TIP3    H157725   4.591   0.927   3.270 -0.3638  0.5016 -0.7751
12078TIP3    H257726   4.737   0.891   3.255 -0.2235  0.5815  0.2736
12079TIP3   OH257727   2.298   3.213  11.894  0.0953  0.4745  0.4461
12079TIP3    H157728   2.300   3.185  11.986  0.1890 -1.4862 -0.1072
12079TIP3    H257729   2.277   3.307  11.898  3.3830  1.2993  2.5959
12080TIP3   OH257730   0.511   2.553   0.684 -0.1249  0.3617  0.0032
12080TIP3    H157731   0.491   2.465   0.654 -1.2710  0.5687  0.1266
12080TIP3    H257732   0.458   2.565   0.763  2.8639 -0.1979  2.2500
12081TIP3   OH257733   6.024   0.287  12.808 -0.1434  0.0959 -0.0347
12081TIP3    H157734   5.977   0.263  12.727  0.9717  0.0738 -0.6917
12081TIP3    H257735   5.961   0.268  12.878 -1.0513 -0.1137 -0.8734
12082TIP3   OH257736   1.821   3.215   6.152 -0.0606 -0.2199 -0.3558
12082TIP3    H157737   1.901   3.177   6.188  0.3765  1.7086  0.8525
12082TIP3    H257738   1.850   3.264   6.075  0.0736  1.1322  0.5362
12083TIP3   OH257739   3.179   4.827   5.019  0.5467  0.1957  0.3068
12083TIP3    H157740   3.096   4.872   5.004  1.8295  2.1120 -1.3903
12083TIP3    H257741   3.152   4.740   5.050 -2.0590  1.0678  0.8057
12084TIP3   OH257742   5.504   4.117   1.438  0.0486  0.1499  0.2457
12084TIP3    H157743   5.457   4.198   1.418 -0.8318 -0.8421 -1.9829
12084TIP3    H257744   5.442   4.066   1.491 -0.3109 -0.0206 -0.3370
12085TIP3   OH257745   2.488   1.958  15.226  0.1796 -0.3045 -0.2303
12085TIP3    H157746   2.567   2.000  15.261 -0.1466 -0.2748  0.4760
12085TIP3    H257747   2.512   1.866  15.218  0.3534 -0.2618 -0.2075
12086TIP3   OH257748   6.284   5.857  16.722 -0.0238 -0.4467 -0.5383
12086TIP3    H157749   6.208   5.853  16.663  0.1702 -0.4644 -0.7898
12086TIP3    H257750   6.351   5.903  16.671  0.1027 -0.3482 -0.2827
12087TIP3   OH257751   2.547   1.862   1.999 -0.2117 -0.5910  0.2517
12087TIP3    H157752   2.569   1.771   1.979  0.1112 -0.6831  1.0066
12087TIP3    H257753   2.607   1.887   2.069 -0.8663 -0.0661  0.6436
12088TIP3   OH257754   0.181   4.492   4.493 -0.3280 -0.2246 -0.2602
12088TIP3    H157755   0.183   4.550   4.568 -2.2066  1.4506 -1.4020
12088TIP3    H257756   0.263   4.509   4.446 -0.0122  0.1178  0.4106
12089TIP3   OH257757   3.739   2.067  15.657 -0.3888 -0.1234  0.0572
12089TIP3    H157758   3.777   1.987  15.692  0.2833  0.6798  1.2388
12089TIP3    H257759   3.813   2.118  15.626 -0.8091  0.0440 -0.7002
12090TIP3   OH257760   0.603   0.917   1.481 -0.2508 -0.2868  0.2237
12090TIP3    H157761   0.591   0.853   1.551 -1.6470 -0.7008 -0.3802
12090TIP3    H257762   0.632   0.865   1.406 -2.1420 -0.3742 -0.4969
12091TIP3   OH257763   2.337   4.105   6.512 -0.5525 -0.6428 -0.5398
12091TIP3    H157764   2.416   4.052   6.515 -1.6065 -2.2438  1.4754
12091TIP3    H257765   2.349   4.170   6.582 -1.2910 -1.3773  0.2961
12092TIP3   OH257766   0.763   4.209   5.697 -0.6323 -0.7403 -0.0893
12092TIP3    H157767   0.836   4.157   5.732 -0.1908 -0.6997 -0.9087
12092TIP3    H257768   0.765   4.192   5.603  0.0260  1.3680 -0.5076
12093TIP3   OH257769   1.372   3.376  10.324 -0.1165 -0.0691 -0.6383
12093TIP3    H157770   1.345   3.468  10.328 -0.4442 -0.0558 -2.3227
12093TIP3    H257771   1.314   3.332  10.386 -0.2990  0.7811 -0.1844
12094TIP3   OH257772   6.185   0.053   6.461 -0.4413 -0.0045  0.7709
12094TIP3    H157773   6.094   0.063   6.488 -0.3783  0.6469  0.7758
12094TIP3    H257774   6.231   0.031   6.542 -0.8347 -2.0605  0.4653
12095TIP3   OH257775   4.008   6.088   5.565  0.2252 -0.8925 -0.8049
12095TIP3    H157776   4.007   6.138   5.646  1.2411  0.5100 -1.6127
12095TIP3    H257777   4.028   5.998   5.592 -0.3794 -0.6430  0.5553
12096TIP3   OH257778   1.947   2.071   3.103 -0.1765  0.4555 -0.0547
12096TIP3    H157779   2.038   2.089   3.081  0.0444  0.8018  1.0655
12096TIP3    H257780   1.941   1.975   3.103  0.3969  0.4068  0.5999
12097TIP3   OH257781   5.728   3.096  13.747 -0.3374 -0.1216 -0.1773
12097TIP3    H157782   5.746   3.176  13.696 -0.4804  0.2669  0.3741
12097TIP3    H257783   5.681   3.127  13.824 -0.2602 -0.7270  0.1153
12098TIP3   OH257784   4.384   0.341   5.823  0.4157 -0.3792 -0.7920
12098TIP3    H157785   4.417   0.269   5.769  0.7919  0.8981 -2.3479
12098TIP3    H257786   4.452   0.355   5.888  0.7143 -0.9020 -0.9848
12099TIP3   OH257787   0.020   5.433   2.094 -0.6265 -0.0492 -0.2537
12099TIP3    H157788   0.058   5.368   2.153  2.0192  1.3349 -0.2466
12099TIP3    H257789   0.021   5.391   2.008 -0.2343 -0.5097 -0.0324
12100TIP3   OH257790   3.003   2.963  13.985  0.0339  0.1402  0.3036
12100TIP3    H157791   2.931   3.026  13.985  0.6294  0.8930 -1.7752
12100TIP3    H257792   3.069   3.002  14.041 -0.4437  0.3206  0.7508
12101TIP3   OH257793   4.767   2.097   2.895 -0.8910  0.0516 -0.3123
12101TIP3    H157794   4.823   2.054   2.830  0.9008  2.2285 -0.3433
12101TIP3    H257795   4.697   2.137   2.844 -1.6483 -1.4082 -0.4495
12102TIP3   OH257796   1.386   0.480   3.637  0.0056  1.4064 -0.0525
12102TIP3    H157797   1.308   0.517   3.595  0.9465  2.6787 -0.7434
12102TIP3    H257798   1.409   0.406   3.581 -1.1688  0.4796  0.6371
12103TIP3   OH257799   2.979   2.792  12.526 -0.2496  0.1909  0.2266
12103TIP3    H157800   3.056   2.829  12.571  0.2802  0.2937 -0.7182
12103TIP3    H257801   2.934   2.869  12.490  0.2798  0.0305 -0.8507
12104TIP3   OH257802   1.041   1.825   2.754  0.1973 -0.5407 -0.5909
12104TIP3    H157803   0.979   1.773   2.804  0.2686 -0.9040 -0.8727
12104TIP3    H257804   1.127   1.791   2.780  0.3035  0.2555  0.1256
12105TIP3   OH257805   4.261   3.169  12.454 -0.0940 -0.0948  0.1343
12105TIP3    H157806   4.194   3.102  12.445 -0.8913  0.6073  0.6478
12105TIP3    H257807   4.261   3.192  12.547  0.5050  0.2761  0.0536
12106TIP3   OH257808   6.609   6.398  16.422 -0.3821  0.4794 -0.2701
12106TIP3    H157809   6.691   6.406  16.374  0.8438  1.3081  1.7776
12106TIP3    H257810   6.612   6.311  16.461 -0.5889  0.4260 -0.3722
12107TIP3   OH257811   4.304   1.630   4.553 -0.0881 -0.2554  0.2683
12107TIP3    H157812   4.274   1.566   4.489 -0.4457 -0.5870  0.7638
12107TIP3    H257813   4.300   1.584   4.637 -1.5558  0.7790  0.8161
12108TIP3   OH257814   6.455   3.996  15.040  0.1021  0.4895 -0.8360
12108TIP3    H157815   6.450   4.046  14.958 -0.0224 -0.5244 -1.4707
12108TIP3    H257816   6.460   3.905  15.011  2.4632  0.2106  0.2064
12109TIP3   OH257817   3.370   2.838   0.242  0.2296  0.4591 -0.0679
12109TIP3    H157818   3.395   2.752   0.210 -2.1731 -0.2994 -0.0939
12109TIP3    H257819   3.364   2.892   0.163 -1.7185 -0.3365 -0.5097
12110TIP3   OH257820   4.598   2.250   0.246 -0.0542 -0.4876 -0.3171
12110TIP3    H157821   4.607   2.159   0.218 -2.5604 -1.3580  1.3783
12110TIP3    H257822   4.519   2.280   0.202 -1.0446 -0.2026  1.5639
12111TIP3   OH257823   2.443   1.488  11.451 -0.1953  0.4296  0.1268
12111TIP3    H157824   2.464   1.462  11.361 -0.9877  0.2462 -0.0200
12111TIP3    H257825   2.354   1.524  11.444  0.5711  2.5099  0.4492
12112TIP3   OH257826   5.513   6.833  14.885 -0.6936 -0.4913 -0.3310
12112TIP3    H157827   5.459   6.867  14.956 -3.3413 -1.3348 -1.8095
12112TIP3    H257828   5.535   6.744  14.912 -0.4191 -0.3133  0.0519
12113TIP3   OH257829   0.568   6.280  11.978 -0.1013 -0.3229 -0.0659
12113TIP3    H157830   0.653   6.256  11.942 -0.6937 -0.8514 -1.1639
12113TIP3    H257831   0.524   6.197  11.993 -0.2565 -0.0692  0.9632
12114TIP3   OH257832   6.684   3.519   5.108  0.2755 -0.0404  0.1873
12114TIP3    H157833   6.648   3.606   5.090  1.4926  0.3002 -0.7536
12114TIP3    H257834   6.743   3.533   5.182 -0.4782 -0.3260  0.8493
12115TIP3   OH257835   1.980   1.832  12.594  0.1993  0.4560  0.3602
12115TIP3    H157836   1.953   1.760  12.651  0.4416  1.0411  1.2369
12115TIP3    H257837   2.075   1.836  12.604  0.4685 -0.4816 -1.3776
12116TIP3   OH257838   2.743   5.852  12.490 -0.9211  0.0917  0.5008
12116TIP3    H157839   2.774   5.938  12.519 -0.6229 -0.1599  0.9407
12116TIP3    H257840   2.719   5.807  12.571 -1.1254 -0.2199  0.2669
12117TIP3   OH257841   2.261   0.133   3.075  0.6876  0.0581  0.1129
12117TIP3    H157842   2.286   0.217   3.114  2.6351 -0.1928 -0.4768
12117TIP3    H257843   2.235   0.155   2.986  2.2954 -0.0323 -0.4191
12118TIP3   OH257844   4.986   4.070  15.841  0.0714 -0.1885  0.4135
12118TIP3    H157845   5.021   4.114  15.764 -1.1685  1.1324  0.5790
12118TIP3    H257846   5.064   4.041  15.889  0.8656 -0.4865 -1.0027
12119TIP3   OH257847   1.587   2.004   0.931 -0.8664 -0.4220  0.0691
12119TIP3    H157848   1.573   1.993   1.025 -0.4394  0.4738  0.2593
12119TIP3    H257849   1.631   1.924   0.903  0.0351 -0.2267  0.8719
12120TIP3   OH257850   3.681   4.822  14.391  0.0328  0.3679  0.2731
12120TIP3    H157851   3.642   4.897  14.435  1.8280  0.0170  2.6239
12120TIP3    H257852   3.686   4.848  14.299 -1.4358  2.1979  0.6596
12121TIP3   OH257853   2.761   6.651  10.947  0.2392  0.5748  0.3013
12121TIP3    H157854   2.840   6.628  10.898  0.9591  1.6517  0.9032
12121TIP3    H257855   2.730   6.567  10.982  2.5541  0.3511  2.1072
12122TIP3   OH257856   1.357   1.485  16.093 -0.0483 -0.2110  0.0417
12122TIP3    H157857   1.316   1.514  16.175  1.3525 -0.0915  0.7214
12122TIP3    H257858   1.322   1.545  16.026  0.6641  1.2938  0.9624
12123TIP3   OH257859   6.486   6.314   5.269 -0.5193 -0.3807  0.2169
12123TIP3    H157860   6.401   6.311   5.315 -1.0536  0.2273 -0.7014
12123TIP3    H257861   6.487   6.400   5.227  0.8996 -0.0769  0.8348
12124TIP3   OH257862   3.618   2.390   0.075  0.0361 -0.3935 -0.6101
12124TIP3    H157863   3.645   2.298   0.078 -1.0300 -0.7820 -1.8057
12124TIP3    H257864   3.699   2.439   0.080  0.5432 -1.3512  1.3228
12125TIP3   OH257865   4.806   2.762   3.019 -0.1830 -0.6794 -0.3539
12125TIP3    H157866   4.862   2.823   2.971  0.2285 -1.4943 -0.9313
12125TIP3    H257867   4.799   2.800   3.107  0.1972  0.1058 -0.6538
12126TIP3   OH257868   3.748   3.825  13.268  0.0489 -0.2038 -0.4675
12126TIP3    H157869   3.753   3.890  13.198 -0.5673  0.9753  0.5281
12126TIP3    H257870   3.797   3.749  13.235 -0.2968  0.2776 -2.1823
12127TIP3   OH257871   2.128   0.451  16.629 -0.4417 -0.4633 -0.0099
12127TIP3    H157872   2.065   0.458  16.557 -0.7783 -0.7966  0.2480
12127TIP3    H257873   2.188   0.524  16.615 -1.5016  0.5090  0.3397
12128TIP3   OH257874   4.127   5.978   3.512 -0.5574 -0.3812 -0.6212
12128TIP3    H157875   4.085   5.998   3.428 -0.7865 -0.6224 -0.5681
12128TIP3    H257876   4.081   6.034   3.575 -0.2130 -0.0123 -0.6923
12129TIP3   OH257877   5.107   0.103   5.735  0.4885  0.2443  0.4092
12129TIP3    H157878   5.127   0.196   5.722  2.4731 -0.3008 -0.8967
12129TIP3    H257879   5.069   0.099   5.823 -1.2754  2.4730 -0.1380
12130TIP3   OH257880   3.165   0.888  13.192 -0.1875 -0.6065 -0.1383
12130TIP3    H157881   3.093   0.832  13.163 -0.7297 -0.1030  0.1931
12130TIP3    H257882   3.161   0.884  13.288  0.8162 -1.3022 -0.1151
12131TIP3   OH257883   1.218   1.931   0.742  0.1111 -0.1234 -0.2687
12131TIP3    H157884   1.127   1.906   0.723 -0.1954  2.4365 -2.9129
12131TIP3    H257885   1.212   2.021   0.772  1.7571 -0.1391  0.1843
12132TIP3   OH257886   2.769   6.131   0.774  0.0029 -0.2176  0.0568
12132TIP3    H157887   2.704   6.200   0.765 -0.6411 -0.5898  1.5135
12132TIP3    H257888   2.791   6.107   0.685  1.2717  2.7701 -0.5318
12133TIP3   OH257889   3.333   1.058   1.307 -0.4378  0.1746  0.2844
12133TIP3    H157890   3.314   0.991   1.241  1.0067 -0.4260  0.4269
12133TIP3    H257891   3.287   1.028   1.385 -2.1011  0.8524 -0.3928
12134TIP3   OH257892   6.091   2.803  13.886 -0.1537 -0.0029  0.4760
12134TIP3    H157893   6.070   2.736  13.822  1.1547 -1.6354  1.6423
12134TIP3    H257894   6.186   2.796  13.897  0.2980  3.1634 -0.5107
12135TIP3   OH257895   3.265   5.116   1.335 -0.2454 -0.3215 -0.1921
12135TIP3    H157896   3.262   5.035   1.385 -1.7323  1.0838  2.1537
12135TIP3    H257897   3.327   5.172   1.382 -2.9246  1.6440  1.2836
12136TIP3   OH257898   5.776   0.414   0.731  0.3832  0.0237 -0.0186
12136TIP3    H157899   5.853   0.461   0.764 -0.7265  1.3033  0.8660
12136TIP3    H257900   5.702   0.471   0.753 -0.8483 -1.2756 -0.6387
12137TIP3   OH257901   6.636   1.837  13.075 -0.2208 -0.1724  0.4382
12137TIP3    H157902   6.616   1.745  13.058 -1.1840  0.0368  0.3913
12137TIP3    H257903   6.569   1.886  13.028  1.6112  0.6728 -1.5048
12138TIP3   OH257904   5.501   5.950   4.848  0.3134 -0.5088  0.2443
12138TIP3    H157905   5.484   6.040   4.874 -2.1519 -1.3588  1.9801
12138TIP3    H257906   5.494   5.951   4.752  1.1937  1.2431  0.1521
12139TIP3   OH257907   6.628   5.962   1.692 -0.0990 -0.2004 -0.2859
12139TIP3    H157908   6.649   5.951   1.599 -1.1507  0.2380 -0.6005
12139TIP3    H257909   6.710   5.947   1.738  0.4054 -0.5657 -1.2807
12140TIP3   OH257910   5.450   6.589   2.786 -0.0323  0.2461  0.0148
12140TIP3    H157911   5.369   6.567   2.740 -0.5662  0.7647  0.6861
12140TIP3    H257912   5.517   6.535   2.744 -0.6363  0.1582 -0.8628
12141TIP3   OH257913   4.221   1.167  13.146 -0.0011  0.0083  1.2048
12141TIP3    H157914   4.192   1.136  13.060  1.4162 -0.0900  0.7389
12141TIP3    H257915   4.158   1.129  13.207 -0.6641 -0.4470  0.2700
12142TIP3   OH257916   0.595   3.919  11.546 -0.0116 -0.2373  0.3549
12142TIP3    H157917   0.640   4.002  11.565 -1.8930  0.9152  0.0323
12142TIP3    H257918   0.531   3.941  11.479 -0.6721 -1.9449  0.3676
12143TIP3   OH257919   2.713   5.941   2.635 -0.1567 -0.1503 -0.2093
12143TIP3    H157920   2.678   6.009   2.693 -0.1999 -1.5691  1.5110
12143TIP3    H257921   2.664   5.952   2.553 -1.1081  1.0322  0.4870
12144TIP3   OH257922   3.570   2.583   1.251  0.0025  0.3592 -0.4248
12144TIP3    H157923   3.525   2.512   1.206 -2.7586  0.1836  2.2941
12144TIP3    H257924   3.623   2.540   1.317 -0.6635  0.7409  0.3747
12145TIP3   OH257925   6.383   2.754  13.931 -0.0750 -0.7755 -0.3212
12145TIP3    H157926   6.426   2.837  13.910  0.4666 -0.4040  1.9937
12145TIP3    H257927   6.435   2.717  14.002 -2.0218 -1.6008  0.7671
12146TIP3   OH257928   2.593   0.971  12.228 -0.8982 -0.0146  0.4625
12146TIP3    H157929   2.629   0.958  12.140 -0.6760  0.7919  0.4339
12146TIP3    H257930   2.654   1.029  12.272  0.3349 -2.3199  2.0192
12147TIP3   OH257931   5.054   0.915   3.756  0.4897 -0.0069 -0.2708
12147TIP3    H157932   5.100   0.969   3.819  0.1732 -1.3753  1.1978
12147TIP3    H257933   5.122   0.860   3.717  0.1939 -2.3833  2.2580
12148TIP3   OH257934   5.326   2.132  16.287 -0.2010  0.0297  0.5061
12148TIP3    H157935   5.399   2.186  16.318  0.2118 -0.3494  0.2107
12148TIP3    H257936   5.279   2.187  16.225  0.5254 -0.1185 -0.1940
12149TIP3   OH257937   6.021   4.556  16.186  0.0185  0.1761 -0.6155
12149TIP3    H157938   6.091   4.498  16.214 -1.6007 -1.9072 -0.6675
12149TIP3    H257939   6.033   4.566  16.092 -0.9977 -2.0086 -1.0184
12150TIP3   OH257940   1.702   3.626   1.260 -0.5819  0.4672 -0.3844
12150TIP3    H157941   1.731   3.618   1.351 -0.6566  0.5809 -0.3496
12150TIP3    H257942   1.774   3.670   1.216 -0.6587  0.6607 -0.3195
12151TIP3   OH257943   0.846   1.993   6.419  0.2104  0.0932 -0.5585
12151TIP3    H157944   0.804   1.975   6.503  0.7336  0.9444 -0.0972
12151TIP3    H257945   0.922   2.047   6.441  0.5155  0.0988 -1.5536
12152TIP3   OH257946   3.756   4.195  11.899 -0.3717 -0.4251 -0.5879
12152TIP3    H157947   3.818   4.148  11.844  0.9701  0.8723 -0.2648
12152TIP3    H257948   3.756   4.148  11.982  0.0878 -0.5210 -0.6392
12153TIP3   OH257949   2.892   0.317   0.738 -0.1095 -0.0835 -0.2869
12153TIP3    H157950   2.925   0.359   0.659 -1.7909  1.4554 -0.2540
12153TIP3    H257951   2.966   0.318   0.798  0.6714  0.4209 -1.2216
12154TIP3   OH257952   3.370   0.446  17.040  0.1307  0.3192  0.3277
12154TIP3    H157953   3.314   0.490  16.977  1.2566  1.6973  0.2534
12154TIP3    H257954   3.325   0.362  17.057 -2.8782  2.0256  1.6270
12155TIP3   OH257955   1.211   3.340  15.160  0.2049  0.0184  0.1365
12155TIP3    H157956   1.220   3.258  15.112 -1.1474  0.1981 -0.4505
12155TIP3    H257957   1.288   3.391  15.134  0.3559 -0.5429 -0.5464
12156TIP3   OH257958   3.543   6.271  11.497  0.1026  0.0933 -1.0526
12156TIP3    H157959   3.554   6.197  11.436  1.7592 -0.4316 -0.1750
12156TIP3    H257960   3.631   6.306  11.508  0.0687 -0.4597  1.7988
12157TIP3   OH257961   4.722   0.655  11.286 -0.1047 -0.3592  0.1128
12157TIP3    H157962   4.702   0.664  11.193 -0.0116 -0.1266  0.1142
12157TIP3    H257963   4.808   0.696  11.296 -0.8926  1.2409  0.6089
12158TIP3   OH257964   1.036   6.789  13.299  0.4197 -0.1326  0.5257
12158TIP3    H157965   0.958   6.845  13.292  1.2914  1.6041  3.1387
12158TIP3    H257966   1.004   6.701  13.279 -1.5360  0.9099 -1.4137
12159TIP3   OH257967   5.559   5.305  16.681  0.4480 -0.1929  0.2659
12159TIP3    H157968   5.501   5.237  16.648 -0.2815  0.5836 -0.0999
12159TIP3    H257969   5.527   5.323  16.770  0.2461  0.0883  0.1393
12160TIP3   OH257970   2.704   6.152  14.818  0.3602  0.0138  0.3448
12160TIP3    H157971   2.713   6.109  14.903  1.5190 -0.7198 -0.1240
12160TIP3    H257972   2.616   6.128  14.789  0.3248 -0.5725  0.8921
12161TIP3   OH257973   6.390   1.761  15.874  0.2429  0.1711 -0.5501
12161TIP3    H157974   6.439   1.739  15.953  0.2181 -1.0550 -0.8591
12161TIP3    H257975   6.445   1.825  15.828  1.7675 -1.4632 -1.0751
12162TIP3   OH257976   6.663   3.610  12.082  0.0374 -0.5760  0.0624
12162TIP3    H157977   6.626   3.653  12.005  2.0243 -1.0827 -1.2737
12162TIP3    H257978   6.718   3.677  12.122 -1.4583 -0.1223  1.4668
12163TIP3   OH257979   3.963   6.373   2.648  0.0156  0.6083  0.5048
12163TIP3    H157980   3.895   6.425   2.605 -0.6051 -1.3028 -0.9636
12163TIP3    H257981   3.920   6.337   2.725 -1.4225 -2.1810 -1.4264
12164TIP3   OH257982   6.717   1.576  11.199 -0.0912  0.1939 -0.4389
12164TIP3    H157983   6.786   1.641  11.207 -0.6950  0.7561  0.5631
12164TIP3    H257984   6.706   1.562  11.105 -0.0961  1.7104 -0.6808
12165TIP3   OH257985   6.855   4.624  15.994 -0.1615  0.0618  0.3744
12165TIP3    H157986   6.841   4.632  16.088 -1.0193  0.9252  0.1901
12165TIP3    H257987   6.862   4.530  15.978 -2.8423 -0.2918  0.9362
12166TIP3   OH257988   6.501   3.040  11.457  0.0191 -0.1317 -0.8180
12166TIP3    H157989   6.430   3.023  11.395 -0.2620  0.0626 -0.5515
12166TIP3    H257990   6.459   3.086  11.530 -0.0593 -2.1236  0.4712
12167TIP3   OH257991   5.844   0.274   6.063  0.4714  0.7325 -0.3701
12167TIP3    H157992   5.844   0.369   6.049 -2.5584  1.2420  1.9556
12167TIP3    H257993   5.837   0.263   6.157 -1.3230 -1.7147 -0.6841
12168TIP3   OH257994   3.391   3.693   0.381  0.6393 -0.1149 -0.0044
12168TIP3    H157995   3.478   3.728   0.401  1.3813 -1.5095 -0.6554
12168TIP3    H257996   3.356   3.666   0.465  2.2836 -2.7050 -0.0548
12169TIP3   OH257997   1.559   2.260   5.695 -0.0978  0.1982  0.2908
12169TIP3    H157998   1.544   2.245   5.789 -2.7987  0.4938  0.0098
12169TIP3    H257999   1.479   2.227   5.653  1.0193  0.1535 -1.9148
12170TIP3   OH258000   6.423   6.176   3.924 -0.2993 -0.2932  0.2638
12170TIP3    H158001   6.453   6.264   3.900 -2.3153 -0.2340 -2.5841
12170TIP3    H258002   6.481   6.149   3.995  2.2416  2.1855 -0.6792
12171TIP3   OH258003   1.541   1.906   1.448  0.2192 -0.5158 -0.0629
12171TIP3    H158004   1.477   1.974   1.468 -0.4699 -1.0762 -0.3233
12171TIP3    H258005   1.548   1.855   1.528  1.6660  0.5676  0.5537
12172TIP3   OH258006   4.492   0.919   5.082 -0.4162  0.2170  0.8855
12172TIP3    H158007   4.584   0.901   5.066 -0.8437 -2.0129  0.6787
12172TIP3    H258008   4.492   0.993   5.143  1.5075 -0.0366  1.2474
12173TIP3   OH258009   2.061   1.893   1.865 -0.2314  0.1851 -0.3177
12173TIP3    H158010   2.151   1.924   1.854 -0.5476  1.6393  0.9067
12173TIP3    H258011   2.028   1.940   1.941 -1.8939 -0.6673 -0.4607
12174TIP3   OH258012   3.438   1.653  12.618  0.0827 -0.2273 -0.0219
12174TIP3    H158013   3.344   1.639  12.610 -0.1142  0.6049  0.6291
12174TIP3    H258014   3.448   1.748  12.612  1.0341 -0.3749 -1.4695
12175TIP3   OH258015   1.223   6.375  13.713  0.3117 -0.1910  0.0571
12175TIP3    H158016   1.163   6.433  13.759 -0.9911 -0.3823 -1.3177
12175TIP3    H258017   1.181   6.289  13.718  0.2498 -0.2586 -1.2315
12176TIP3   OH258018   1.331   0.611  13.849  0.5717  0.6407 -0.0561
12176TIP3    H158019   1.376   0.624  13.766 -1.8317 -0.3330 -1.6250
12176TIP3    H258020   1.253   0.666  13.844 -0.1223 -0.1676  1.1114
12177TIP3   OH258021   0.999   1.198  16.897 -0.2282 -0.0096 -0.4194
12177TIP3    H158022   0.986   1.257  16.822  2.2458 -2.2933 -2.9261
12177TIP3    H258023   1.093   1.177  16.894 -0.6057 -2.4621  1.5498
12178TIP3   OH258024   6.745   6.347   0.628  0.2644  0.0036 -0.1654
12178TIP3    H158025   6.787   6.295   0.697 -0.0207  2.1704  1.7912
12178TIP3    H258026   6.653   6.323   0.633 -0.0589  1.3894  1.5120
12179TIP3   OH258027   0.365   2.368  16.964 -0.2078 -0.0714 -0.9384
12179TIP3    H158028   0.275   2.339  16.982  1.0006 -1.7954  3.9182
12179TIP3    H258029   0.375   2.447  17.018  0.8034  1.1514 -2.8086
12180TIP3   OH258030   2.600   3.318  13.128  0.5012 -0.1399  0.0769
12180TIP3    H158031   2.678   3.288  13.174 -0.3325  1.4584  2.7635
12180TIP3    H258032   2.528   3.268  13.166  0.0715 -1.2356 -2.0190
12181TIP3   OH258033   0.446   2.936   4.713  0.2132  0.1966  0.1942
12181TIP3    H158034   0.392   2.896   4.781  0.1240  0.7892  0.4840
12181TIP3    H258035   0.521   2.972   4.761  1.2265 -1.1906 -0.2816
12182TIP3   OH258036   0.483   1.349  15.780  0.0589  0.1816 -0.0436
12182TIP3    H158037   0.547   1.413  15.749  0.5020 -0.1329  0.2258
12182TIP3    H258038   0.530   1.295  15.843 -0.4441 -0.1097  0.0925
12183TIP3   OH258039   2.903   5.133  15.451 -0.2999 -0.2541  0.4908
12183TIP3    H158040   2.808   5.129  15.455 -0.5311  1.2304 -1.7148
12183TIP3    H258041   2.923   5.136  15.357  1.7751  1.5418  0.9094
12184TIP3   OH258042   3.249   3.368   2.712  0.5397 -0.7595  0.5436
12184TIP3    H158043   3.160   3.373   2.748  0.2723 -0.1915 -0.1790
12184TIP3    H258044   3.300   3.427   2.767 -0.1319  1.0958 -0.7266
12185TIP3   OH258045   1.164   2.312   2.184  0.0773 -0.7600  0.4512
12185TIP3    H158046   1.164   2.218   2.163  0.2231 -0.8467  0.8256
12185TIP3    H258047   1.174   2.355   2.099 -0.0589 -1.0818  0.2685
12186TIP3   OH258048   4.175   2.805   0.298 -0.2760 -0.5884  0.2318
12186TIP3    H158049   4.254   2.799   0.350 -0.9676 -0.3233  1.3336
12186TIP3    H258050   4.135   2.888   0.324  0.6866  0.9250 -2.6618
12187TIP3   OH258051   2.110   3.279   1.653  0.0183  0.3378  0.0498
12187TIP3    H158052   2.055   3.232   1.715 -0.0259 -0.1584 -0.3536
12187TIP3    H258053   2.156   3.344   1.705  1.1011 -1.0395  0.8543
12188TIP3   OH258054   1.054   5.191   1.920 -0.2671  0.0605 -0.6100
12188TIP3    H158055   1.115   5.117   1.916  1.1815  1.1910 -0.2089
12188TIP3    H258056   1.060   5.232   1.833  0.5646  0.9268 -0.1672
12189TIP3   OH258057   4.925   1.229   2.423  0.4909  0.3890  0.5469
12189TIP3    H158058   4.969   1.160   2.473 -0.8470 -0.8116  0.1555
12189TIP3    H258059   4.832   1.211   2.435  0.1208  0.8774 -1.2463
12190TIP3   OH258060   4.581   1.023   3.836  0.4656  0.2921  0.1237
12190TIP3    H158061   4.642   0.950   3.828  1.1394  0.8284  0.3323
12190TIP3    H258062   4.506   0.998   3.781  0.2970 -0.9397  0.8959
12191TIP3   OH258063   4.308   0.002  16.684  0.4891 -0.0878 -0.5355
12191TIP3    H158064   4.260   0.084  16.672  1.3253  0.7120  1.1906
12191TIP3    H258065   4.247  -0.055  16.732  0.5513  0.1871 -0.1293
12192TIP3   OH258066   6.538   0.068  15.128  0.2195 -0.0364 -0.0391
12192TIP3    H158067   6.609   0.115  15.085 -0.2367  1.3087  0.6471
12192TIP3    H258068   6.557   0.075  15.222 -0.6202  0.0412  0.1348
12193TIP3   OH258069   5.901   2.327   0.686  0.4435 -0.2094 -0.1802
12193TIP3    H158070   5.869   2.237   0.698 -0.6076  0.2355  0.3987
12193TIP3    H258071   5.983   2.329   0.735 -0.7404 -0.1792  1.9176
12194TIP3   OH258072   0.885   0.557  11.903  0.4183 -0.2711 -0.0953
12194TIP3    H158073   0.908   0.495  11.833  0.1143 -1.5235  0.8761
12194TIP3    H258074   0.934   0.526  11.979  2.1137  2.0891 -0.1257
12195TIP3   OH258075   0.500   6.830   0.018  0.3074 -0.0538 -0.1394
12195TIP3    H158076   0.428   6.809   0.078 -0.8751  1.4702 -0.9433
12195TIP3    H258077   0.569   6.866   0.074  0.5645 -1.7420  0.6715
12196TIP3   OH258078   0.747   2.328   0.907 -0.4270 -0.4091 -0.0834
12196TIP3    H158079   0.664   2.357   0.870  0.2556  1.0105 -0.5545
12196TIP3    H258080   0.810   2.338   0.836  0.7408  1.5836  1.1369
12197TIP3   OH258081   4.968   4.934  11.181  0.0625 -0.3838 -0.4646
12197TIP3    H158082   5.057   4.936  11.146 -0.1267  4.0181 -1.2971
12197TIP3    H258083   4.978   4.952  11.274  0.0955 -2.4053 -0.0470
12198TIP3   OH258084   0.222   3.561   3.265 -0.3576 -0.4764  0.2158
12198TIP3    H158085   0.287   3.546   3.334 -0.8041  0.7990  0.9470
12198TIP3    H258086   0.151   3.608   3.309 -0.7938  0.0791 -1.0461
12199TIP3   OH258087   3.606   6.121   4.344  0.7738 -0.0937  0.1710
12199TIP3    H158088   3.584   6.082   4.259 -0.3231 -0.7204  0.7347
12199TIP3    H258089   3.700   6.138   4.338  0.5812  0.6414 -1.4855
12200TIP3   OH258090   4.090   3.197  10.884  0.5740  0.1211 -0.3180
12200TIP3    H158091   4.071   3.249  10.806 -0.1271  0.9392  0.3773
12200TIP3    H258092   4.012   3.206  10.938  1.0404 -0.4574  0.4757
12201TIP3   OH258093   6.579   0.963   2.001 -0.1687 -0.7967  0.1847
12201TIP3    H158094   6.491   0.964   1.964 -0.5758 -0.9500  1.1299
12201TIP3    H258095   6.595   1.054   2.027  0.6986 -0.3698 -1.6541
12202TIP3   OH258096   5.194   3.132   1.485  0.4429  0.0335 -0.1660
12202TIP3    H158097   5.273   3.078   1.484  0.4730  0.0416  0.6999
12202TIP3    H258098   5.122   3.069   1.489  0.4301  0.0379 -0.3213
12203TIP3   OH258099   6.262   5.056   1.524  0.0355  0.2604 -0.7976
12203TIP3    H158100   6.213   4.986   1.567  2.5521  0.3232  2.6030
12203TIP3    H258101   6.279   5.022   1.436 -2.3699 -1.5062 -0.7001
12204TIP3   OH258102   1.038   3.845   1.013  0.0314 -0.2311  0.3298
12204TIP3    H158103   1.063   3.931   1.048 -0.2897  0.9091 -2.0533
12204TIP3    H258104   0.993   3.865   0.931 -0.2857 -2.6913 -0.1608
12205TIP3   OH258105   5.864   3.968  15.680 -0.1376  0.1447 -0.4091
12205TIP3    H158106   5.859   4.011  15.765  1.4357  0.5847 -0.5210
12205TIP3    H258107   5.954   3.980  15.651 -0.5959 -0.1241 -2.0841
12206TIP3   OH258108   1.388   2.678  12.920  0.0503 -0.0540 -0.8734
12206TIP3    H158109   1.389   2.727  13.003  0.2508  2.1670 -2.1078
12206TIP3    H258110   1.438   2.732  12.860  0.9493 -2.2210 -2.1698
12207TIP3   OH258111   4.126   5.441  13.754 -0.3404 -0.4994  0.1058
12207TIP3    H158112   4.088   5.450  13.842 -0.7709 -1.1243 -0.0028
12207TIP3    H258113   4.098   5.354  13.726  1.9549 -1.3764  0.3825
12208TIP3   OH258114   2.756   5.673  12.719  0.8597 -0.2937  0.5919
12208TIP3    H158115   2.694   5.602  12.735  1.2726 -0.9023 -0.4080
12208TIP3    H258116   2.778   5.706  12.806 -2.5924  1.4941  0.9470
12209TIP3   OH258117   5.775   4.522  12.202 -0.4937 -0.6993  0.0683
12209TIP3    H158118   5.852   4.468  12.222  0.0504  0.2103  0.4736
12209TIP3    H258119   5.808   4.612  12.201 -1.4687 -0.3330 -0.2004
12210TIP3   OH258120   4.090   0.694   1.171  0.6257  0.1969 -0.2514
12210TIP3    H158121   4.166   0.677   1.227  0.7546  0.5104 -0.3259
12210TIP3    H258122   4.061   0.782   1.196  0.4533  0.1875 -0.4126
12211TIP3   OH258123   4.454   5.508  17.023  0.0685  0.6904 -0.0304
12211TIP3    H158124   4.381   5.554  17.064  0.2463 -0.0174  1.1419
12211TIP3    H258125   4.510   5.577  16.987 -1.7941  1.2158 -2.1445
12212TIP3   OH258126   5.868   0.281  13.028  0.2897  0.6612  0.5245
12212TIP3    H158127   5.909   0.307  13.110  0.2851  2.4230  0.0152
12212TIP3    H258128   5.830   0.195  13.046 -0.5035  1.3853  2.6442
12213TIP3   OH258129   3.757   4.457   0.756 -0.1042  0.1147 -0.1816
12213TIP3    H158130   3.722   4.542   0.781  2.3646  0.5475  2.3481
12213TIP3    H258131   3.729   4.398   0.827  0.3285 -0.5732 -0.5688
12214TIP3   OH258132   1.147   3.636  14.543 -0.1969  0.3416  0.2623
12214TIP3    H158133   1.112   3.725  14.544 -0.0971  0.3827  1.2899
12214TIP3    H258134   1.192   3.627  14.628 -0.4929 -0.8018  0.3146
12215TIP3   OH258135   4.043   6.534   2.911 -0.5699  0.0130  0.2776
12215TIP3    H158136   3.968   6.567   2.861 -0.2719  0.6686  0.2539
12215TIP3    H258137   4.119   6.558   2.858 -0.3878 -1.8038 -0.3520
12216TIP3   OH258138   0.640   4.612   6.021 -0.1609 -0.1461 -0.1032
12216TIP3    H158139   0.688   4.657   5.952 -0.6487  1.1061  0.3420
12216TIP3    H258140   0.703   4.548   6.056  0.2167 -0.5140 -1.4176
12217TIP3   OH258141   0.682   6.564  14.132  0.4430  0.0773  0.0691
12217TIP3    H158142   0.741   6.637  14.149  0.7351 -0.3154  0.7641
12217TIP3    H258143   0.731   6.487  14.160 -0.2681 -0.2856  0.3285
12218TIP3   OH258144   1.626   5.592  16.297  0.0520 -0.1030  0.1048
12218TIP3    H158145   1.663   5.540  16.368 -1.1251  1.7926  2.2275
12218TIP3    H258146   1.552   5.540  16.265 -0.2251 -0.3805  1.1732
12219TIP3   OH258147   3.147   4.587  14.087 -0.3571  0.2382 -0.1854
12219TIP3    H158148   3.099   4.641  14.025 -2.1220 -0.7377  0.2459
12219TIP3    H258149   3.119   4.498  14.068  2.4798 -0.5943 -0.8820
12220TIP3   OH258150   0.603   5.180  14.475  0.2505  0.1655 -0.4145
12220TIP3    H158151   0.664   5.228  14.418  0.4673 -0.2953 -0.5698
12220TIP3    H258152   0.516   5.207  14.444  0.2195 -2.6987 -3.3849
12221TIP3   OH258153   5.701   4.977   2.736 -0.2395 -0.2045  0.0835
12221TIP3    H158154   5.661   5.063   2.725  1.1400  0.3005 -1.5656
12221TIP3    H258155   5.633   4.915   2.711 -0.5003  0.5455 -1.1291
12222TIP3   OH258156   0.812   1.333  15.758 -0.1128  0.1219  0.4171
12222TIP3    H158157   0.872   1.395  15.799 -1.5013  0.4165  2.0858
12222TIP3    H258158   0.858   1.249  15.763  0.3959  0.4307  1.1734
12223TIP3   OH258159   1.752   1.288   6.295 -0.0916  0.8548 -0.1078
12223TIP3    H158160   1.780   1.275   6.386  1.5344 -3.7327 -1.0183
12223TIP3    H258161   1.687   1.220   6.280 -0.2435  1.4392 -2.4349
12224TIP3   OH258162   2.445   3.492   1.037  0.8264 -0.1391  0.2901
12224TIP3    H158163   2.449   3.583   1.065 -1.4750  0.4019 -0.9212
12224TIP3    H258164   2.406   3.495   0.950  1.5634 -2.2317 -0.1647
12225TIP3   OH258165   0.403   4.382   2.262  0.1428  0.2231 -0.0453
12225TIP3    H158166   0.482   4.426   2.230  0.7631 -0.0641  1.0147
12225TIP3    H258167   0.345   4.454   2.288  0.0248  0.4367 -0.8774
12226TIP3   OH258168   2.311   1.984   4.821  0.3210 -0.0776  0.6199
12226TIP3    H158169   2.269   1.972   4.735 -1.9504  0.8918  1.5109
12226TIP3    H258170   2.375   2.053   4.807  2.0970 -1.9102 -0.9055
12227TIP3   OH258171   4.385   2.325   0.505  0.5878  0.2802 -0.1121
12227TIP3    H158172   4.444   2.332   0.430 -1.3920  1.0679 -1.6899
12227TIP3    H258173   4.436   2.360   0.579  1.8862  1.4675 -1.5021
12228TIP3   OH258174   6.555   6.168   5.660 -0.4292 -0.0218 -0.2897
12228TIP3    H158175   6.578   6.254   5.625  0.2139 -0.0670  0.0170
12228TIP3    H258176   6.463   6.176   5.685 -0.4380  0.5000 -0.4816
12229TIP3   OH258177   1.334   0.955  12.149  0.2978  0.6961 -0.3082
12229TIP3    H158178   1.308   0.986  12.236  0.0979 -0.3883  0.0344
12229TIP3    H258179   1.292   0.869  12.141  1.1083  0.3603 -1.0852
12230TIP3   OH258180   4.445   2.177   5.699 -0.4636  0.6435  0.2288
12230TIP3    H158181   4.470   2.146   5.786 -2.1114  0.7833  0.7905
12230TIP3    H258182   4.354   2.150   5.689 -0.3690  0.8281 -1.3750
12231TIP3   OH258183   2.901   5.322  12.796 -0.0810  0.7939 -0.0610
12231TIP3    H158184   2.868   5.255  12.737  0.1787  0.8464 -0.2669
12231TIP3    H258185   2.828   5.339  12.856  0.4277 -0.9470  1.1371
12232TIP3   OH258186   2.115   3.575   1.110 -0.4785 -0.1924  0.7037
12232TIP3    H158187   2.149   3.656   1.147  0.9971 -0.2677 -0.3856
12232TIP3    H258188   2.172   3.507   1.146 -0.2072 -0.4656 -0.2013
12233TIP3   OH258189   1.947   6.194   5.198 -0.0417  0.6517 -0.2751
12233TIP3    H158190   1.860   6.233   5.209 -0.4818 -0.2778 -0.3676
12233TIP3    H258191   1.997   6.260   5.151 -0.4644  1.5129  0.4502
12234TIP3   OH258192   2.946   6.633  11.788  0.7434  0.1446  0.0012
12234TIP3    H158193   2.954   6.713  11.737  1.1926 -0.3350 -0.7067
12234TIP3    H258194   2.933   6.564  11.722 -1.0583 -0.2030  0.6431
12235TIP3   OH258195   1.157   0.210   4.701 -0.0556  0.0493  0.3616
12235TIP3    H158196   1.160   0.115   4.691 -0.6797  0.0753 -0.1036
12235TIP3    H258197   1.169   0.244   4.612 -0.2147  0.3993  0.4718
12236TIP3   OH258198   0.221   4.989  14.224 -0.1152  0.5243  0.0428
12236TIP3    H158199   0.151   4.996  14.158  0.6116  0.6935 -0.7373
12236TIP3    H258200   0.180   4.947  14.299 -0.6581 -0.8690 -1.0033
12237TIP3   OH258201   3.085   1.222  11.693 -0.0932  0.1142 -0.1395
12237TIP3    H158202   3.149   1.170  11.644  0.5165  2.5922 -2.1812
12237TIP3    H258203   3.124   1.233  11.780  0.0421 -2.1861  0.1557
12238TIP3   OH258204   6.198   4.597   6.120  0.1525  0.6965  0.2075
12238TIP3    H158205   6.224   4.556   6.202  3.0922 -1.8944 -1.8004
12238TIP3    H258206   6.239   4.683   6.122  0.4439  0.5451  1.3441
12239TIP3   OH258207   6.056   1.248  16.044 -0.0246  1.0374  0.6381
12239TIP3    H158208   6.089   1.280  15.960 -0.4843 -0.7828 -0.2867
12239TIP3    H258209   5.967   1.217  16.025 -0.0299  0.3185  1.7182
12240TIP3   OH258210   3.917   0.952   1.200 -0.1503  0.2021  0.0617
12240TIP3    H158211   3.914   0.932   1.106 -0.4860  0.7519 -0.0498
12240TIP3    H258212   3.989   1.014   1.208  0.4283 -0.4839  0.3014
12241TIP3   OH258213   0.399   1.234  11.766 -0.7027  0.4197 -0.2439
12241TIP3    H158214   0.396   1.300  11.836  0.4443  1.1469 -0.8451
12241TIP3    H258215   0.411   1.151  11.811 -2.7299  0.5144  0.5685
12242TIP3   OH258216   5.757   6.409   0.876  0.2434 -0.0426 -0.6923
12242TIP3    H158217   5.747   6.485   0.934 -0.5828 -1.9108  1.8019
12242TIP3    H258218   5.676   6.406   0.826 -0.4821 -0.2013  0.4435
12243TIP3   OH258219   4.572   4.958  13.623  0.3223 -0.2091 -0.1650
12243TIP3    H158220   4.531   4.937  13.707  0.0308 -0.3830 -0.3491
12243TIP3    H258221   4.509   4.930  13.557  0.3408  0.3685 -0.4389
12244TIP3   OH258222   3.839   2.869  16.523  0.4869  0.5409 -0.0384
12244TIP3    H158223   3.853   2.880  16.617 -0.4222 -1.5377  0.3961
12244TIP3    H258224   3.748   2.839  16.516 -0.1721  2.7038 -1.7954
12245TIP3   OH258225   2.002   6.815  16.508  0.3801 -0.1262  0.5257
12245TIP3    H158226   2.004   6.739  16.566 -0.7319 -0.3252  0.3186
12245TIP3    H258227   1.911   6.823  16.481  0.0622  2.3573  1.9836
12246TIP3   OH258228   2.496   4.795   6.053 -0.0511 -0.2546  0.1959
12246TIP3    H158229   2.588   4.789   6.081  0.1478  1.2083 -0.0578
12246TIP3    H258230   2.461   4.707   6.069  0.4203  0.0515  3.7423
12247TIP3   OH258231   2.476   6.695  11.519 -0.3320  0.2201  0.4517
12247TIP3    H158232   2.486   6.766  11.455  0.9397  0.8246  1.2857
12247TIP3    H258233   2.562   6.688  11.561 -0.4842 -1.7113  0.5235
12248TIP3   OH258234   5.634   5.768   1.799  0.2152  0.1177  0.0484
12248TIP3    H158235   5.697   5.821   1.748 -1.0298 -0.1229 -1.8597
12248TIP3    H258236   5.553   5.819   1.795 -0.6610 -1.2840 -0.7183
12249TIP3   OH258237   2.054   0.400  11.956  0.5517  0.1249  0.9983
12249TIP3    H158238   2.106   0.361  11.886 -1.1124  1.6819 -1.2120
12249TIP3    H258239   2.094   0.367  12.036  3.7877 -0.1963 -0.5979
12250TIP3   OH258240   4.318   3.259  14.639  0.1275  0.4464  0.5843
12250TIP3    H158241   4.270   3.183  14.673 -0.1274  0.7956  1.0078
12250TIP3    H258242   4.250   3.321  14.614  0.2516 -0.1105 -1.3778
12251TIP3   OH258243   0.676   1.880   0.232  0.0270 -0.2666  1.2423
12251TIP3    H158244   0.644   1.968   0.216 -0.7710 -0.6001  0.9402
12251TIP3    H258245   0.605   1.837   0.279  0.1901 -0.9086  0.9129
12252TIP3   OH258246   5.918   2.736   3.535  0.1773 -0.2361  0.2206
12252TIP3    H158247   5.989   2.794   3.563 -0.1920  0.6962 -0.6763
12252TIP3    H258248   5.893   2.771   3.449 -0.3714 -1.4623 -0.1269
12253TIP3   OH258249   6.482   5.644   4.631 -0.2769 -0.0972  0.0174
12253TIP3    H158250   6.530   5.625   4.712  1.3107  2.0407 -0.3205
12253TIP3    H258251   6.398   5.678   4.661 -0.0539 -0.1505  0.7457
12254TIP3   OH258252   4.247   0.744  14.285 -0.1594 -0.0631 -0.2806
12254TIP3    H158253   4.234   0.834  14.315  1.7105  0.4543 -0.8675
12254TIP3    H258254   4.158   0.707  14.281 -0.9523  1.6691  0.1897
12255TIP3   OH258255   6.296   1.040  14.778  0.3762 -0.0068  0.4911
12255TIP3    H158256   6.217   1.081  14.742  0.2382  0.1701  0.9862
12255TIP3    H258257   6.329   0.985  14.707 -0.5409 -0.5731  0.4920
12256TIP3   OH258258   5.406   0.853  13.014 -0.1263  0.1363 -0.0958
12256TIP3    H158259   5.501   0.859  13.020 -0.1817  1.0728  0.0313
12256TIP3    H258260   5.382   0.920  12.949 -0.8392  1.3023  1.3056
12257TIP3   OH258261   3.092   1.447   4.665 -0.7410 -0.1371 -0.0691
12257TIP3    H158262   3.006   1.489   4.673 -0.5100  0.9917 -2.5178
12257TIP3    H258263   3.136   1.466   4.748 -1.7672  1.9500  0.0559
12258TIP3   OH258264   6.001   5.678  13.357 -0.4832  0.0444  0.0103
12258TIP3    H158265   5.970   5.716  13.440  0.6398  0.8877  0.0658
12258TIP3    H258266   6.067   5.614  13.384 -0.3228  0.1126 -0.2262
12259TIP3   OH258267   4.385   3.377  11.611  0.3344 -0.0649  0.2603
12259TIP3    H158268   4.423   3.400  11.696 -1.7745  0.8862  0.9957
12259TIP3    H258269   4.291   3.377  11.625 -0.0363 -1.2344 -1.7727
12260TIP3   OH258270   0.177   3.588  14.013 -0.3299  0.5575 -0.1586
12260TIP3    H158271   0.238   3.521  13.984  1.6441  1.7231  1.0473
12260TIP3    H258272   0.154   3.562  14.103 -2.1283 -0.1514 -0.7599
12261TIP3   OH258273   3.531   4.827  12.634 -0.1644 -0.3226  0.1729
12261TIP3    H158274   3.464   4.809  12.567  0.3848  1.0611 -0.7969
12261TIP3    H258275   3.550   4.741  12.672  1.3713 -1.6729 -3.2375
12262TIP3   OH258276   2.750   4.795  12.656  0.4712  0.6666 -0.3460
12262TIP3    H158277   2.816   4.834  12.713  0.0840  0.4806  0.2365
12262TIP3    H258278   2.792   4.790  12.570  1.6265 -0.5282  0.2628
12263TIP3   OH258279   0.770   6.271  12.981  0.0574 -0.3049 -0.4129
12263TIP3    H158280   0.756   6.306  12.893 -1.3918  3.1852  1.0473
12263TIP3    H258281   0.684   6.276  13.023  0.9817 -0.5391  1.6369
12264TIP3   OH258282   2.019   5.151  12.796 -0.0345 -0.4576 -0.1732
12264TIP3    H158283   2.072   5.230  12.785  0.2002 -0.4787  0.7673
12264TIP3    H258284   2.022   5.132  12.889 -2.0850 -0.1909 -0.0016
12265TIP3   OH258285   3.388   6.663   0.928  0.0293 -0.3132 -0.0965
12265TIP3    H158286   3.457   6.717   0.966  1.2888  0.1354 -2.7694
12265TIP3    H258287   3.426   6.629   0.847 -2.7200 -0.5252 -1.4160
12266TIP3   OH258288   6.600   0.460   1.610 -0.3680 -0.1624 -0.1951
12266TIP3    H158289   6.540   0.534   1.606  0.5731  0.8184  2.2653
12266TIP3    H258290   6.675   0.486   1.557 -0.0054  0.7433  0.7186
12267TIP3   OH258291   0.256   4.283   3.160  0.1679  0.3931  0.0934
12267TIP3    H158292   0.179   4.262   3.213  0.1155 -1.0377 -0.5123
12267TIP3    H258293   0.225   4.279   3.070  0.5713  1.4968 -0.1073
12268TIP3   OH258294   1.745   3.392   5.125 -0.2212 -0.2034  0.2803
12268TIP3    H158295   1.675   3.348   5.076  0.0266 -0.4622  0.1519
12268TIP3    H258296   1.821   3.386   5.068 -0.0398 -0.1142  0.5111
12269TIP3   OH258297   2.811   1.184  10.351  0.5975  0.6196 -0.2550
12269TIP3    H158298   2.817   1.089  10.367  1.2886  0.2157 -2.5262
12269TIP3    H258299   2.807   1.192  10.256  1.3682  2.9401 -0.1517
12270TIP3   OH258300   0.467   4.259  14.584 -0.6923 -0.2895 -0.1290
12270TIP3    H158301   0.551   4.219  14.559 -1.8650 -3.9597  1.1214
12270TIP3    H258302   0.421   4.271  14.501  0.3338 -0.0337 -0.6776
12271TIP3   OH258303   3.094   4.752  16.241 -0.0227  0.1282  0.0679
12271TIP3    H158304   3.130   4.686  16.301 -0.5725  1.3350  1.8272
12271TIP3    H258305   3.159   4.761  16.172  0.8982 -0.9427  0.7653
12272TIP3   OH258306   0.209   2.432   2.286 -0.3888  0.1411  0.0246
12272TIP3    H158307   0.183   2.521   2.263 -1.8005 -0.3632 -0.4874
12272TIP3    H258308   0.128   2.392   2.320  0.4168 -0.6938  1.0202
12273TIP3   OH258309   0.370   3.040  14.219 -0.3052 -0.0063 -0.0551
12273TIP3    H158310   0.393   2.977  14.151  2.5833 -1.3300  1.9292
12273TIP3    H258311   0.452   3.085  14.239 -1.9176  3.2619 -0.1604
12274TIP3   OH258312   3.028   3.084  13.349 -0.1059  0.4584 -0.6356
12274TIP3    H158313   3.106   3.139  13.342 -0.3179  0.7974 -0.3907
12274TIP3    H258314   3.053   3.013  13.408  1.2279 -1.5849 -3.3928
12275TIP3   OH258315   2.890   6.459   5.893 -1.2858 -0.3311  0.5761
12275TIP3    H158316   2.794   6.466   5.892 -1.2626  0.3235  1.8185
12275TIP3    H258317   2.915   6.480   5.983  0.0703 -0.0474  0.1518
12276TIP3   OH258318   6.655   2.678   2.800 -0.0908 -0.9192 -0.2181
12276TIP3    H158319   6.685   2.687   2.891 -0.9512 -0.7508  0.0571
12276TIP3    H258320   6.725   2.629   2.757 -0.3441 -2.2984  0.8935
12277TIP3   OH258321   1.487   1.979   4.483  0.5548  0.3786 -0.1309
12277TIP3    H158322   1.564   2.013   4.528 -0.1406 -0.6352  1.9215
12277TIP3    H258323   1.510   1.889   4.461  0.0552  0.1745  0.1944
12278TIP3   OH258324   3.337   1.384  14.695 -0.0108  0.3628 -0.1844
12278TIP3    H158325   3.271   1.396  14.763 -2.2608 -1.1973 -1.9488
12278TIP3    H258326   3.309   1.441  14.623  0.4989 -0.3944 -1.0077
12279TIP3   OH258327   2.860   5.396   1.612 -0.1497  0.2999  0.2870
12279TIP3    H158328   2.792   5.444   1.658  0.1637  0.4411  0.6055
12279TIP3    H258329   2.836   5.304   1.624  1.3182  0.1645  3.0091
12280TIP3   OH258330   3.293   1.538   5.693  0.3326  0.2321  0.4356
12280TIP3    H158331   3.356   1.508   5.627 -0.5499 -2.6052  0.7813
12280TIP3    H258332   3.260   1.458   5.734 -1.3370  1.7691  2.3110
12281TIP3   OH258333   4.981   2.940  16.149  0.0102  0.0908 -0.2600
12281TIP3    H158334   4.952   3.010  16.207  1.3322 -0.2601  0.8853
12281TIP3    H258335   5.077   2.949  16.147  0.0803 -0.6787 -1.4002
12282TIP3   OH258336   1.899   0.686   4.576  0.5538  0.5653 -0.1641
12282TIP3    H158337   1.897   0.780   4.591  0.6636  0.6056 -0.3920
12282TIP3    H258338   1.990   0.661   4.592  0.2127  0.2346  1.4316
12283TIP3   OH258339   3.338   0.832  12.814  0.4008  0.8595  0.1552
12283TIP3    H158340   3.413   0.789  12.774  1.0291  0.4892  1.6543
12283TIP3    H258341   3.369   0.857  12.901 -1.2603  0.5911  0.8469
12284TIP3   OH258342   3.106   2.173  16.915 -0.0252  0.2279 -0.1582
12284TIP3    H158343   3.163   2.124  16.855  0.0264  0.4492 -0.2910
12284TIP3    H258344   3.147   2.162  17.001 -0.0149  0.0367 -0.1862
12285TIP3   OH258345   6.451   6.437  13.105  0.4497 -0.1727 -0.0841
12285TIP3    H158346   6.361   6.440  13.073  0.6467 -0.3762 -0.6605
12285TIP3    H258347   6.446   6.385  13.185  0.1452 -0.6688 -0.4233
12286TIP3   OH258348   3.080   4.531  10.436  0.6322 -0.0405 -0.6413
12286TIP3    H158349   3.161   4.484  10.414  0.1242 -1.6904  0.7526
12286TIP3    H258350   3.027   4.525  10.357  1.5192  0.3231 -1.2899
12287TIP3   OH258351   2.871   5.178   3.338  0.3132 -0.1508 -0.2013
12287TIP3    H158352   2.938   5.232   3.295 -1.1409  0.1752 -2.2103
12287TIP3    H258353   2.869   5.097   3.287 -1.0408 -0.0128 -0.3951
12288TIP3   OH258354   6.756   0.576   6.353  0.7225 -0.1918 -0.5467
12288TIP3    H158355   6.717   0.630   6.421  1.1032  2.9490 -2.5762
12288TIP3    H258356   6.847   0.564   6.380  0.7620  0.6714 -0.2651
12289TIP3   OH258357   0.944   5.966  12.862 -0.5843  0.8342 -0.3522
12289TIP3    H158358   0.891   6.024  12.806 -0.4242  2.0714  0.7306
12289TIP3    H258359   1.027   6.012  12.872 -0.1379  0.0022 -0.1487
12290TIP3   OH258360   6.576   5.776  12.401 -0.4825  0.2775 -0.0526
12290TIP3    H158361   6.605   5.701  12.451 -2.7736 -0.7532 -0.1391
12290TIP3    H258362   6.562   5.845  12.467  0.6593  0.3509  0.1399
12291TIP3   OH258363   1.070   3.073   2.311 -0.6483 -0.1456 -0.2222
12291TIP3    H158364   1.002   3.102   2.371  0.7259  0.5998  1.0513
12291TIP3    H258365   1.045   2.984   2.287 -0.8901 -0.7793  2.0930
12292TIP3   OH258366   4.504   1.160   0.327 -0.3906  0.4055  0.0738
12292TIP3    H158367   4.453   1.148   0.246  0.1736  0.3015 -0.2731
12292TIP3    H258368   4.563   1.085   0.329  1.4305  1.7326 -0.8009
12293TIP3   OH258369   5.166   2.833   0.922  0.4576  0.3419  0.0799
12293TIP3    H158370   5.210   2.894   0.982  0.5834 -0.5931  0.9750
12293TIP3    H258371   5.163   2.879   0.839 -0.3137  1.9561  0.9522
12294TIP3   OH258372   3.081   0.024  11.958 -0.2158 -0.4659  0.0874
12294TIP3    H158373   3.154   0.028  11.896 -0.5027 -2.9941 -0.5144
12294TIP3    H258374   3.009  -0.015  11.908 -1.2102 -0.3477  1.3820
12295TIP3   OH258375   0.202   3.887   2.221  0.2042 -0.7120  0.4305
12295TIP3    H158376   0.195   3.901   2.315 -0.9369 -0.1265  0.2711
12295TIP3    H258377   0.168   3.968   2.182  0.6496 -0.9513 -0.4857
12296TIP3   OH258378   0.493   4.928   1.546 -0.2936  0.3002  0.2155
12296TIP3    H158379   0.566   4.868   1.532  1.3917  1.4307  3.3648
12296TIP3    H258380   0.502   4.994   1.477  1.1594 -0.0269  0.0738
12297TIP3   OH258381   4.239   4.001  16.067  0.4484  0.2412 -0.3686
12297TIP3    H158382   4.283   4.081  16.040  0.5487  0.5717  0.7078
12297TIP3    H258383   4.220   4.014  16.160  2.0909 -1.6614  0.3263
12298TIP3   OH258384   5.780   3.094  11.146 -0.1676  0.0132 -0.1194
12298TIP3    H158385   5.757   3.003  11.126 -0.3110  0.0337 -0.0470
12298TIP3    H258386   5.833   3.122  11.071 -0.7472  0.1080 -0.4960
12299TIP3   OH258387   3.525   3.354   0.861 -0.4468  0.2653  0.4002
12299TIP3    H158388   3.605   3.400   0.888  0.4844 -1.3740  0.5328
12299TIP3    H258389   3.472   3.351   0.941  0.4586 -0.8165  0.9890
12300TIP3   OH258390   3.519   4.102   1.454  0.2131  0.5293  0.6763
12300TIP3    H158391   3.439   4.140   1.489 -0.2476  0.1215  0.0859
12300TIP3    H258392   3.517   4.123   1.361  0.0193 -0.8030  0.3627
12301TIP3   OH258393   1.675   6.595   3.267 -0.1356 -0.2115 -0.2740
12301TIP3    H158394   1.737   6.635   3.328 -1.2721  2.0533 -0.4766
12301TIP3    H258395   1.721   6.592   3.183 -0.2330  1.4108 -0.4147
12302TIP3   OH258396   4.165   2.814   2.904 -0.3181 -0.4256  0.5187
12302TIP3    H158397   4.175   2.722   2.930  1.2076 -0.6863 -0.8155
12302TIP3    H258398   4.216   2.822   2.823 -2.5054  1.0163 -0.8208
12303TIP3   OH258399   5.955   1.476   5.064 -0.1945 -0.0945 -0.1224
12303TIP3    H158400   5.911   1.465   4.980  2.1294  2.0373 -1.7687
12303TIP3    H258401   6.032   1.530   5.044  1.1628 -0.5702  3.1688
12304TIP3   OH258402   0.186   4.632   2.305 -0.3232 -0.1701 -0.3388
12304TIP3    H158403   0.218   4.640   2.394 -0.4147 -0.4566 -0.2807
12304TIP3    H258404   0.258   4.663   2.251  0.2923 -1.3824 -0.2413
12305TIP3   OH258405   4.329   1.840  11.809  0.0709  0.2339 -0.2894
12305TIP3    H158406   4.305   1.909  11.872 -0.8198 -0.0335 -0.3169
12305TIP3    H258407   4.423   1.828  11.821  0.1602  1.1521  0.0192
12306TIP3   OH258408   2.591   0.407  15.396  0.5189 -0.7985  0.1244
12306TIP3    H158409   2.662   0.413  15.459  0.4848  4.6406  0.0946
12306TIP3    H258410   2.633   0.377  15.315  2.1749 -0.5165  0.8363
12307TIP3   OH258411   4.886   4.527   3.310 -0.4711  0.0460  0.6756
12307TIP3    H158412   4.794   4.531   3.284 -0.2755  0.8483  0.0456
12307TIP3    H258413   4.901   4.610   3.355  0.1897  0.3566 -0.1053
12308TIP3   OH258414   2.717   4.272   2.047  0.2606 -0.1261  0.3339
12308TIP3    H158415   2.735   4.203   2.111  1.2671 -1.3758 -1.2331
12308TIP3    H258416   2.799   4.282   1.998  0.0102  1.9181  0.2419
12309TIP3   OH258417   1.149   2.826  11.959  0.0096  0.3657  0.0081
12309TIP3    H158418   1.101   2.804  11.880 -0.8270  0.1761  0.5555
12309TIP3    H258419   1.196   2.906  11.937  2.9226 -1.7094 -1.9387
12310TIP3   OH258420   0.509   6.248  14.097  0.1409  0.2280  0.3656
12310TIP3    H158421   0.572   6.320  14.088  1.1413 -0.4094  1.8546
12310TIP3    H258422   0.563   6.169  14.100 -0.6607 -0.2982  2.1393
12311TIP3   OH258423   6.586   5.058   5.737 -0.1749 -0.4436  0.4237
12311TIP3    H158424   6.518   5.092   5.795 -0.8416  1.3878 -1.3362
12311TIP3    H258425   6.539   5.025   5.661  0.8140 -0.4619 -0.1972
12312TIP3   OH258426   2.781   0.074  11.307 -0.2547  0.4110 -0.4850
12312TIP3    H158427   2.698   0.031  11.287 -1.3091  1.3065  1.6293
12312TIP3    H258428   2.830   0.011  11.360  0.2943  0.0332 -1.4071
12313TIP3   OH258429   3.290   2.497   0.639  0.3558  0.0906  0.0280
12313TIP3    H158430   3.359   2.525   0.578  0.8937 -1.4234 -0.1050
12313TIP3    H258431   3.238   2.576   0.654  0.6991  0.7131 -1.7492
12314TIP3   OH258432   2.181   5.538  12.975  0.0339 -0.3069 -0.7438
12314TIP3    H158433   2.228   5.523  13.057 -0.9737  1.5954  0.2424
12314TIP3    H258434   2.230   5.608  12.932 -0.9005  0.5035 -0.5149
12315TIP3   OH258435   1.793   4.761   3.549 -0.4072 -0.4306 -0.4005
12315TIP3    H158436   1.818   4.673   3.521  1.7326  0.9476 -3.4369
12315TIP3    H258437   1.861   4.788   3.610 -0.6071 -0.5641 -0.1154
12316TIP3   OH258438   2.258   3.485  15.038 -0.3284  0.2923 -0.6883
12316TIP3    H158439   2.209   3.441  15.108 -2.1488  0.2556 -1.9419
12316TIP3    H258440   2.310   3.551  15.084 -0.1271 -0.8702  0.8688
12317TIP3   OH258441   1.244   3.692   0.031 -0.2381  0.3376 -0.4455
12317TIP3    H158442   1.298   3.768   0.009 -0.6978  0.9359  0.4473
12317TIP3    H258443   1.205   3.666  -0.052  1.8838 -0.4929 -1.2405
12318TIP3   OH258444   1.093   0.820   0.309  0.1959  0.2941 -0.3993
12318TIP3    H158445   1.115   0.900   0.357  1.1030 -0.5630  0.6649
12318TIP3    H258446   1.142   0.827   0.227  1.1176  0.3474  0.1496
12319TIP3   OH258447   0.353   3.689   2.093  0.5322 -0.0883 -0.1937
12319TIP3    H158448   0.302   3.749   2.148 -0.3878 -0.5858 -0.4755
12319TIP3    H258449   0.393   3.746   2.027  1.4735  0.4834  0.8325
12320TIP3   OH258450   5.066   5.065   1.316 -0.0416  0.1856  0.5055
12320TIP3    H158451   5.114   5.148   1.323 -0.4416  0.8024 -2.6373
12320TIP3    H258452   4.975   5.088   1.332  0.0225  0.0544  1.0776
12321TIP3   OH258453   4.998   2.756   1.553  0.3840  0.0449 -0.1762
12321TIP3    H158454   4.909   2.789   1.567 -0.0285 -0.8794 -0.5033
12321TIP3    H258455   4.990   2.700   1.475  1.5401  1.0168 -1.0220
12322TIP3   OH258456   3.927   0.164  16.272  0.1301 -0.2761 -0.0055
12322TIP3    H158457   3.953   0.125  16.356  0.9421  3.2526  1.5652
12322TIP3    H258458   4.008   0.201  16.237 -0.4899 -0.3847 -1.6092
12323TIP3   OH258459   6.305   0.289  12.822 -0.0961  0.1120  0.0870
12323TIP3    H158460   6.356   0.280  12.903  0.0350  0.9610  0.1109
12323TIP3    H258461   6.215   0.301  12.852 -0.1785 -0.4653  0.0755
12324TIP3   OH258462   2.921   1.996  16.057  0.4492  0.0473 -0.3212
12324TIP3    H158463   2.982   1.964  15.992 -0.0449 -1.2391 -0.1772
12324TIP3    H258464   2.854   2.043  16.006  0.9660  0.5179 -0.5722
12325TIP3   OH258465   3.916   4.148  13.440 -0.2853 -0.5160  0.2627
12325TIP3    H158466   3.968   4.216  13.397 -1.8516  1.0308  0.6804
12325TIP3    H258467   3.959   4.133  13.524 -0.4768  0.7483  0.6090
12326TIP3   OH258468   4.325   0.211  14.497  0.1053  0.4815  0.6867
12326TIP3    H158469   4.313   0.147  14.427  3.1774 -0.4519  0.8991
12326TIP3    H258470   4.303   0.163  14.577  1.6340 -0.0998  0.7766
12327TIP3   OH258471   4.917   3.744  10.224  0.5519 -0.1392  0.0642
12327TIP3    H158472   4.930   3.792  10.142  2.3953 -0.9411 -0.1581
12327TIP3    H258473   4.857   3.799  10.275  1.6180  1.7799 -0.6724
12328TIP3   OH258474   4.353   1.885   2.743  0.4634 -0.1487 -0.2682
12328TIP3    H158475   4.378   1.796   2.767  1.5128  0.2819  0.3256
12328TIP3    H258476   4.328   1.879   2.651 -2.0574 -1.5401  0.4018
12329TIP3   OH258477   4.572   3.785   5.400 -0.0901  0.2578 -0.5898
12329TIP3    H158478   4.502   3.757   5.341 -0.7845 -0.0429  0.3459
12329TIP3    H258479   4.652   3.777   5.348 -0.4871 -1.6504 -0.9782
12330TIP3   OH258480   0.553   4.539   5.586  0.0451 -0.4706  0.1098
12330TIP3    H158481   0.605   4.517   5.663 -1.1579  1.0132  1.3988
12330TIP3    H258482   0.613   4.586   5.528  0.0962  1.6763  1.8011
12331TIP3   OH258483   4.386   3.566   1.503 -0.1518  0.5129 -0.4133
12331TIP3    H158484   4.466   3.609   1.474 -0.1401 -0.1062 -1.3583
12331TIP3    H258485   4.321   3.636   1.507 -0.7627  0.3920 -4.2085
12332TIP3   OH258486   2.727   2.270  13.027  0.5488  0.4785 -0.3910
12332TIP3    H158487   2.691   2.252  13.114 -0.5765  0.8793 -0.7530
12332TIP3    H258488   2.820   2.251  13.035  0.1666 -1.2192  0.4169
12333TIP3   OH258489   1.768   4.932  12.792 -0.4670  0.2595  0.5236
12333TIP3    H158490   1.838   4.995  12.774 -1.8960  1.3094 -1.8953
12333TIP3    H258491   1.709   4.978  12.852 -1.1450  1.0019 -0.6838
12334TIP3   OH258492   6.129   5.806  14.596 -0.2944 -0.2829 -1.2781
12334TIP3    H158493   6.043   5.765  14.588  0.2698 -1.6773 -0.5543
12334TIP3    H258494   6.190   5.738  14.569  0.7428 -0.2792  0.8659
12335TIP3   OH258495   0.617   5.372  13.983 -0.1320  0.2745 -0.0336
12335TIP3    H158496   0.542   5.323  14.018 -1.1681  2.2021  0.5981
12335TIP3    H258497   0.650   5.421  14.058  0.6335  0.8381 -0.7309
12336TIP3   OH258498   4.100   1.658  12.666  0.3703 -0.2819 -0.3947
12336TIP3    H158499   4.023   1.646  12.722 -1.0676 -2.6804 -2.6513
12336TIP3    H258500   4.163   1.593  12.698  0.3490 -0.2793 -0.3476
12337TIP3   OH258501   6.590   2.263   2.406  0.5172 -0.0369  0.4175
12337TIP3    H158502   6.594   2.305   2.492  0.4727 -0.3759  0.5880
12337TIP3    H258503   6.548   2.178   2.423 -0.1631  0.1945 -0.0517
12338TIP3   OH258504   3.039   5.205  11.829  0.1987 -0.0366  0.2138
12338TIP3    H158505   2.963   5.263  11.824  0.9234  0.9012 -0.1710
12338TIP3    H258506   3.029   5.146  11.754 -2.1966 -2.5562  2.2993
12339TIP3   OH258507   6.376   6.402  15.583 -0.2942  0.0469  0.3586
12339TIP3    H158508   6.369   6.314  15.621 -3.6716  1.1895  2.9313
12339TIP3    H258509   6.320   6.399  15.505  1.5766 -0.6293 -1.0282
12340TIP3   OH258510   4.720   1.298   1.887 -0.1626  0.5801  0.0625
12340TIP3    H158511   4.737   1.303   1.981  1.5968 -1.0823 -0.0997
12340TIP3    H258512   4.793   1.344   1.847 -0.3264  0.3451 -0.5111
12341TIP3   OH258513   1.063   4.821   5.201  0.3456 -0.2524 -0.3240
12341TIP3    H158514   1.096   4.817   5.291  1.2093 -1.1236 -0.6710
12341TIP3    H258515   0.999   4.892   5.203 -0.2966 -0.8273  1.1902
12342TIP3   OH258516   2.481   1.489  15.123 -0.0002 -0.4462 -0.4626
12342TIP3    H158517   2.534   1.411  15.107  0.3683 -0.1657 -0.6057
12342TIP3    H258518   2.433   1.503  15.041  0.9013  0.2231 -0.8938
12343TIP3   OH258519   3.963   2.778   3.491  0.1238 -0.2874 -0.2568
12343TIP3    H158520   4.019   2.784   3.414  0.8390  0.6987  0.3292
12343TIP3    H258521   3.971   2.687   3.520  0.5093 -0.4422 -0.8414
12344TIP3   OH258522   4.045   1.965  11.676 -0.1203 -0.1675 -0.1509
12344TIP3    H158523   4.140   1.951  11.668  0.3296  1.8100  0.9924
12344TIP3    H258524   4.032   1.990  11.767 -1.6331  0.3662 -0.4876
12345TIP3   OH258525   4.246   4.890   1.074  0.0440 -0.1374 -0.0247
12345TIP3    H158526   4.187   4.899   1.149  1.0215  0.8984  0.6495
12345TIP3    H258527   4.332   4.880   1.113  0.6346  0.8820 -1.0058
12346TIP3   OH258528   3.279   2.990  14.743 -0.4091 -0.0345 -0.3296
12346TIP3    H158529   3.306   3.068  14.791  2.5122 -0.4466 -1.1204
12346TIP3    H258530   3.271   3.020  14.652 -1.6199 -0.1852 -0.2859
12347TIP3   OH258531   0.357   5.681   0.476  0.0698 -0.2183  0.0984
12347TIP3    H158532   0.309   5.662   0.557  1.8587 -1.7348  0.8815
12347TIP3    H258533   0.319   5.622   0.411 -0.3727 -0.0700  0.2177
12348TIP3   OH258534   2.214   0.051   0.862  0.1219 -0.1775 -0.2276
12348TIP3    H158535   2.127   0.025   0.893  0.4616 -0.6133  0.3746
12348TIP3    H258536   2.203   0.063   0.767 -0.3584 -1.2542 -0.3244
12349TIP3   OH258537   5.742   0.051  13.081  0.3837  0.5501 -0.4254
12349TIP3    H158538   5.772   0.062  13.172 -0.0421  2.2805 -0.4663
12349TIP3    H258539   5.764  -0.040  13.060  2.4972  0.7259  0.6844
12350TIP3   OH258540   4.624   1.146  14.520 -0.0927 -0.2035 -0.4534
12350TIP3    H158541   4.557   1.215  14.517  0.3133  0.2215 -0.0173
12350TIP3    H258542   4.626   1.119  14.611 -0.5470 -1.1068 -0.7042
12351TIP3   OH258543   2.028   3.992   3.057  0.1593  0.6180 -0.4069
12351TIP3    H158544   1.964   3.967   3.123  1.0863  1.9678  1.0821
12351TIP3    H258545   2.066   3.909   3.028 -1.2316 -0.0915 -0.2746
12352TIP3   OH258546   5.624   5.435  11.042  0.0460  0.0892 -0.5187
12352TIP3    H158547   5.551   5.495  11.057 -1.3206 -1.6429  0.1177
12352TIP3    H258548   5.619   5.413  10.949 -0.8519 -0.7303 -0.2931
12353TIP3   OH258549   4.041   5.773  14.126  0.2565 -0.0328 -0.1025
12353TIP3    H158550   4.105   5.787  14.056  1.9535  1.4523  1.6313
12353TIP3    H258551   4.037   5.857  14.172 -1.4171 -0.7205  1.0958
12354TIP3   OH258552   6.061   3.187   0.805  0.1690  0.8331  0.0814
12354TIP3    H158553   6.038   3.163   0.715 -2.2210  0.6434  0.6873
12354TIP3    H258554   6.137   3.132   0.825 -1.1617 -1.4828 -0.8105
12355TIP3   OH258555   3.049   3.323   5.336 -0.1354 -0.0311  0.0816
12355TIP3    H158556   3.022   3.336   5.426 -0.7015  1.3940 -0.2724
12355TIP3    H258557   2.973   3.349   5.284 -0.3880 -2.2717 -0.8069
12356TIP3   OH258558   3.454   3.803   5.695 -0.1537  0.1336  0.7564
12356TIP3    H158559   3.468   3.809   5.600  3.2997  0.8021  1.1701
12356TIP3    H258560   3.462   3.893   5.726 -1.3607 -0.0687  1.7088
12357TIP3   OH258561   5.297   6.396   4.706 -0.3957  0.2381 -0.7139
12357TIP3    H158562   5.353   6.355   4.639  0.8103  1.7841 -0.7014
12357TIP3    H258563   5.346   6.384   4.788 -0.3920  1.0386 -0.5989
12358TIP3   OH258564   5.127   1.306   2.240  0.0100 -0.2614  0.4787
12358TIP3    H158565   5.081   1.292   2.322  0.7006 -0.3176  0.8626
12358TIP3    H258566   5.070   1.365   2.190  0.0498  0.5878  1.4062
12359TIP3   OH258567   5.984   1.028  15.289  0.2227  0.5026 -0.3209
12359TIP3    H158568   5.929   1.085  15.236 -0.3350 -0.4197 -0.7719
12359TIP3    H258569   6.062   1.015  15.235 -0.2381 -0.2371 -0.8361
12360TIP3   OH258570   1.463   1.688  12.386  0.0806 -0.0970 -0.1560
12360TIP3    H158571   1.460   1.767  12.333  0.6204 -0.2923 -0.4851
12360TIP3    H258572   1.527   1.707  12.454  0.6430 -0.4510 -0.5744
12361TIP3   OH258573   3.499   6.847  15.766  0.2275 -0.3114 -0.2390
12361TIP3    H158574   3.592   6.825  15.762  0.6506  1.3540 -0.1762
12361TIP3    H258575   3.457   6.789  15.702  1.3626 -0.7335 -0.6144
12362TIP3   OH258576   3.304   3.461   3.713  0.3655  0.5820  0.4201
12362TIP3    H158577   3.298   3.556   3.719  1.7082  0.6275  1.5270
12362TIP3    H258578   3.382   3.439   3.764  1.1690 -0.9558 -1.3867
12363TIP3   OH258579   4.069   3.390  13.090  0.4128  0.0900 -0.0788
12363TIP3    H158580   3.982   3.373  13.054  0.3826 -0.0702  0.0708
12363TIP3    H258581   4.095   3.473  13.049  0.6225 -0.3791 -0.9150
12364TIP3   OH258582   2.531   3.457  11.716 -0.6284  0.5021 -0.6649
12364TIP3    H158583   2.626   3.442  11.717 -1.1441 -4.0399  0.6840
12364TIP3    H258584   2.506   3.447  11.625  0.0333  0.2023 -0.8209
12365TIP3   OH258585   3.469   0.470  11.368 -0.6986 -0.0363 -0.5834
12365TIP3    H158586   3.517   0.455  11.287  0.8713 -4.0403  0.8177
12365TIP3    H258587   3.378   0.449  11.346 -1.1139  2.9150 -2.1232
12366TIP3   OH258588   3.588   5.744  14.925  1.0200  0.0139  0.1558
12366TIP3    H158589   3.566   5.677  14.990  2.1538 -0.7583 -0.2192
12366TIP3    H258590   3.676   5.773  14.949  0.9043  0.7028 -0.2362
12367TIP3   OH258591   6.054   1.352  11.971 -0.0198 -0.1681 -0.1888
12367TIP3    H158592   6.093   1.416  12.030 -1.1067  1.3129 -1.0129
12367TIP3    H258593   6.009   1.404  11.904 -0.0515 -1.7866 -1.5078
12368TIP3   OH258594   0.254   2.214   5.830  0.1610 -0.3254  0.5311
12368TIP3    H158595   0.233   2.123   5.849  1.3652 -0.8422 -0.4904
12368TIP3    H258596   0.188   2.264   5.877 -2.2588 -1.7730 -1.1092
12369TIP3   OH258597   1.390   5.482   3.812  0.8016 -0.6520  0.2576
12369TIP3    H158598   1.464   5.492   3.752  0.1199 -1.1927 -0.7084
12369TIP3    H258599   1.329   5.426   3.764 -0.0401 -0.5702  1.2178
12370TIP3   OH258600   4.052   4.785   0.055  0.1408  0.4004  0.0545
12370TIP3    H158601   3.984   4.718   0.060  1.8278 -1.4651 -0.6032
12370TIP3    H258602   4.116   4.760   0.121  0.2728  2.0627  0.6002
12371TIP3   OH258603   1.356   3.579  15.002  0.0096  0.1503 -0.3485
12371TIP3    H158604   1.417   3.516  14.964  0.1119  0.7599 -1.2460
12371TIP3    H258605   1.403   3.617  15.076  0.1932 -0.3570 -0.2026
12372TIP3   OH258606   5.095   1.123   5.445  0.3267 -0.1403  0.0101
12372TIP3    H158607   5.017   1.075   5.471  0.9536 -0.5352  1.1942
12372TIP3    H258608   5.100   1.197   5.506  1.0231 -0.2603  0.1064
12373TIP3   OH258609   6.600   1.410  15.487 -0.9619 -0.0962 -0.0835
12373TIP3    H158610   6.666   1.342  15.500  0.1599  0.9149 -0.3078
12373TIP3    H258611   6.534   1.394  15.554 -0.1728 -0.7629  0.5443
12374TIP3   OH258612   1.991   6.810   4.847 -0.5586 -0.0411 -0.5416
12374TIP3    H158613   2.032   6.896   4.856  0.0216 -0.4189  0.6067
12374TIP3    H258614   2.029   6.773   4.767 -1.4240  1.0841 -1.4949
12375TIP3   OH258615   2.349   5.408  13.536 -0.2219  0.5062 -0.1673
12375TIP3    H158616   2.393   5.417  13.620  1.5686 -1.4126 -0.8221
12375TIP3    H258617   2.268   5.360  13.556 -0.2955  0.9162  0.5636
12376TIP3   OH258618   4.602   3.900  13.427 -0.0598 -0.1386 -0.5500
12376TIP3    H158619   4.630   3.825  13.373 -1.7340 -0.6833 -0.7243
12376TIP3    H258620   4.680   3.924  13.477  1.1272 -0.5757 -2.1102
12377TIP3   OH258621   4.991   5.355  11.648  0.2486 -0.0306  0.4762
12377TIP3    H158622   4.953   5.439  11.621 -2.5098 -1.8559 -1.9693
12377TIP3    H258623   5.081   5.358  11.617 -0.6456  0.9657 -2.3149
12378TIP3   OH258624   3.248   2.896  13.175 -0.3932  0.5398  0.1127
12378TIP3    H158625   3.222   2.889  13.084 -1.5209  2.2714  0.2517
12378TIP3    H258626   3.167   2.911  13.223  0.1846 -0.2692  1.4120
12379TIP3   OH258627   1.697   1.936  12.303  0.0334 -0.1055 -0.6669
12379TIP3    H158628   1.671   1.869  12.240 -1.2794  0.4942 -0.8055
12379TIP3    H258629   1.792   1.928  12.309 -0.0629 -1.7627 -0.9011
12380TIP3   OH258630   5.881   5.967  11.547 -0.7231  0.3822  0.2381
12380TIP3    H158631   5.958   5.917  11.574 -1.0470  0.5445  1.5449
12380TIP3    H258632   5.904   6.002  11.461  0.3023 -0.3155  0.2086
12381TIP3   OH258633   4.250   4.445  16.128  0.3828 -0.3182 -0.3365
12381TIP3    H158634   4.205   4.491  16.199 -0.2891  1.2087 -1.6755
12381TIP3    H258635   4.243   4.353  16.150 -0.6400  0.0654  1.0929
12382TIP3   OH258636   5.608   4.853  14.496  0.0543  0.1739  0.1271
12382TIP3    H158637   5.582   4.916  14.429 -0.2679  2.4173  2.2469
12382TIP3    H258638   5.697   4.828  14.472  0.6550  2.3789 -0.1537
12383TIP3   OH258639   0.759   1.714  15.451  0.2016 -0.0752  0.0270
12383TIP3    H158640   0.788   1.805  15.455 -1.0165  0.3572 -0.3915
12383TIP3    H258641   0.793   1.682  15.368  0.6002  0.0152  0.1543
12384TIP3   OH258642   2.527   1.096   5.307 -0.1738  0.5522  0.1662
12384TIP3    H158643   2.434   1.087   5.289 -0.5157  2.5351  0.6637
12384TIP3    H258644   2.534   1.085   5.402  0.2226 -0.3361  0.0423
12385TIP3   OH258645   5.424   2.968  16.611  0.3336 -0.0252  0.0914
12385TIP3    H158646   5.453   3.055  16.583  1.5543 -0.5880 -0.4401
12385TIP3    H258647   5.377   2.934  16.535 -2.1886  1.0280  1.0700
12386TIP3   OH258648   5.968   6.200   2.792  0.0607 -0.2608  0.3613
12386TIP3    H158649   5.991   6.288   2.824 -1.4006  0.6656 -0.9513
12386TIP3    H258650   6.027   6.185   2.719  0.2428 -0.3348  0.5217
12387TIP3   OH258651   2.833   3.822  12.996 -0.4357 -0.3074 -0.0182
12387TIP3    H158652   2.743   3.850  12.976 -0.8179 -1.5471 -0.0956
12387TIP3    H258653   2.884   3.850  12.920 -1.0974 -1.2201 -0.8149
12388TIP3   OH258654   4.949   5.632   4.012  0.1070 -0.7726 -0.3363
12388TIP3    H158655   4.866   5.669   4.041  0.6275 -0.3929  0.7641
12388TIP3    H258656   5.015   5.688   4.055  0.9143 -1.4043 -0.7432
12389TIP3   OH258657   5.699   0.763  15.678 -0.0213  0.3170 -0.5585
12389TIP3    H158658   5.654   0.712  15.611 -2.1137  2.5297 -0.9395
12389TIP3    H258659   5.729   0.842  15.633  1.5747  0.3184  0.4067
12390TIP3   OH258660   3.949   0.843   6.062  0.0626  0.0952 -0.8185
12390TIP3    H158661   4.007   0.771   6.036 -0.3464 -0.5661  0.0337
12390TIP3    H258662   3.863   0.802   6.070 -0.0497  0.5138  0.3362
12391TIP3   OH258663   0.608   5.108   2.481 -0.0204  0.5578 -0.3307
12391TIP3    H158664   0.532   5.129   2.536  0.0871  1.4076 -0.4936
12391TIP3    H258665   0.576   5.116   2.392  0.0251 -0.0084 -0.4040
12392TIP3   OH258666   6.054   3.000  12.817 -0.0343  0.2476  0.7961
12392TIP3    H158667   6.073   3.023  12.726  0.3012  1.6054  1.1947
12392TIP3    H258668   5.984   3.060  12.843  0.1946  0.1913  1.5762
12393TIP3   OH258669   6.792   0.999  14.477 -0.6817 -0.1883 -0.0115
12393TIP3    H158670   6.719   1.027  14.421 -0.8428  1.7032  1.0603
12393TIP3    H258671   6.869   1.041  14.438 -0.5789 -0.0346  0.3524
12394TIP3   OH258672   6.702   1.938  14.322  0.6299 -0.4828  0.8519
12394TIP3    H158673   6.767   1.931  14.391 -0.5646 -2.1602  1.8822
12394TIP3    H258674   6.749   1.912  14.242  1.1049 -2.4204  1.6878
12395TIP3   OH258675   1.842   2.715   1.751  0.4663  0.1570  0.3351
12395TIP3    H158676   1.850   2.659   1.673 -0.1887  0.6428 -0.0955
12395TIP3    H258677   1.898   2.790   1.731  0.3033  0.2781  0.3351
12396TIP3   OH258678   6.803   2.664   1.815  0.2664  0.3492  0.3622
12396TIP3    H158679   6.749   2.592   1.846  1.2537  0.1846  1.7949
12396TIP3    H258680   6.891   2.628   1.807  0.5176  1.0527 -0.2060
12397TIP3   OH258681   0.747   5.858   1.737  0.1520  0.4820  0.0109
12397TIP3    H158682   0.652   5.868   1.747  0.3326 -0.1789  3.8849
12397TIP3    H258683   0.758   5.810   1.655 -2.9076 -0.3892 -0.0017
12398TIP3   OH258684   1.366   1.457  15.332  0.3945 -0.2199 -0.3638
12398TIP3    H158685   1.424   1.427  15.402  0.5177  1.3406  0.2462
12398TIP3    H258686   1.288   1.402  15.341  0.2651  0.1812  1.2456
12399TIP3   OH258687   1.694   4.297   4.712 -0.0893 -0.2267  0.4614
12399TIP3    H158688   1.768   4.287   4.652 -0.3023 -0.1394  0.1795
12399TIP3    H258689   1.722   4.362   4.776 -0.0126 -0.0114  0.2113
12400TIP3   OH258690   1.963   5.447   5.769  0.1023 -0.2097 -0.8225
12400TIP3    H158691   2.032   5.444   5.836  0.8487  0.6139 -1.5291
12400TIP3    H258692   1.997   5.506   5.702 -1.3131  0.2307 -1.1879
12401TIP3   OH258693   6.390   2.943  13.537 -0.6409  0.2429 -0.2305
12401TIP3    H158694   6.410   2.979  13.450  0.7957 -0.3294 -0.1502
12401TIP3    H258695   6.432   2.858  13.538  0.3792  0.7377  1.4647
12402TIP3   OH258696   2.253   4.586   1.031 -0.6161 -0.2689 -0.4753
12402TIP3    H158697   2.308   4.527   1.082 -0.9365 -1.0084 -0.9643
12402TIP3    H258698   2.218   4.648   1.095 -0.4982 -0.7799  0.0942
12403TIP3   OH258699   4.494   3.046   3.530  0.2490 -0.2724  0.4348
12403TIP3    H158700   4.438   2.981   3.573  0.1085 -0.7228 -0.3967
12403TIP3    H258701   4.485   3.026   3.437 -0.2948  1.3564  0.1144
12404TIP3   OH258702   1.045   6.174  16.326  0.1621 -0.0117  0.2356
12404TIP3    H158703   0.988   6.201  16.397  0.8096  0.4445  0.5890
12404TIP3    H258704   1.000   6.099  16.287 -1.1099  0.8819 -0.0704
12405TIP3   OH258705   5.072   6.748   1.428 -0.0212 -0.4998  0.8221
12405TIP3    H158706   4.996   6.698   1.399 -0.0062 -0.3978  0.6041
12405TIP3    H258707   5.072   6.826   1.372 -0.5725  0.2023  1.7633
12406TIP3   OH258708   5.376   1.922   4.799  0.1896 -0.3916  0.4062
12406TIP3    H158709   5.465   1.916   4.832  0.4289 -3.1893 -0.5133
12406TIP3    H258710   5.330   1.977   4.863  1.8799 -1.2652  2.4694
12407TIP3   OH258711   3.378   5.486  17.079 -0.3008 -0.0613 -0.3573
12407TIP3    H158712   3.349   5.415  17.021 -0.7110 -0.4506  0.3067
12407TIP3    H258713   3.299   5.513  17.125  0.3374 -1.1581  1.5125
12408TIP3   OH258714   3.240   4.218   3.972 -0.5094 -0.6457 -0.0350
12408TIP3    H158715   3.331   4.228   4.001 -0.5041  0.9209 -0.4864
12408TIP3    H258716   3.191   4.203   4.053  0.0064 -0.3729  0.3381
12409TIP3   OH258717   2.552   1.127   4.721  0.5467  0.4104 -0.3300
12409TIP3    H158718   2.639   1.111   4.757  0.8623  0.9846 -0.8141
12409TIP3    H258719   2.553   1.085   4.635 -0.1870 -0.9144  0.2608
12410TIP3   OH258720   5.179   0.323  12.402  0.3463  0.2196  0.3723
12410TIP3    H158721   5.170   0.396  12.463 -1.3140 -0.1571  0.6339
12410TIP3    H258722   5.110   0.262  12.427  0.4257 -0.5294 -1.0972
12411TIP3   OH258723   5.807   4.315  16.219  0.0259  0.0572  0.2635
12411TIP3    H158724   5.830   4.407  16.226  0.0674  0.2862 -2.0833
12411TIP3    H258725   5.712   4.313  16.216 -0.0135 -0.0898  1.2505
12412TIP3   OH258726   5.583   3.455  11.320  0.0776 -0.6175  0.3018
12412TIP3    H158727   5.502   3.503  11.300 -0.6238 -1.5451  0.8588
12412TIP3    H258728   5.582   3.381  11.259  1.5778  0.4729 -1.1431
12413TIP3   OH258729   3.107   4.669   3.676 -0.0011  0.3410 -0.3128
12413TIP3    H158730   3.075   4.628   3.756  0.5088 -0.2008 -0.3755
12413TIP3    H258731   3.092   4.762   3.689 -2.4159  0.0585 -0.7249
12414TIP3   OH258732   1.035   5.856  11.340 -0.0466 -0.1929 -0.1521
12414TIP3    H158733   0.968   5.908  11.295 -1.2655 -1.5148  0.0991
12414TIP3    H258734   1.031   5.770  11.299  0.6072 -0.6754  0.7541
12415TIP3   OH258735   2.385   1.215   0.558 -0.8126 -0.0869  0.3237
12415TIP3    H158736   2.409   1.237   0.468  1.5282 -0.0642  0.8869
12415TIP3    H258737   2.352   1.297   0.595  0.4251  0.5425  0.1159
12416TIP3   OH258738   4.298   0.296  16.908 -0.0129  0.5870 -0.5910
12416TIP3    H158739   4.391   0.273  16.904  0.6276  2.7551  0.5253
12416TIP3    H258740   4.290   0.350  16.986 -2.4314 -0.3490 -0.1270
12417TIP3   OH258741   0.125   2.488   1.700 -0.3316 -0.3481 -0.9095
12417TIP3    H158742   0.214   2.456   1.714  0.7934  3.0873  1.2786
12417TIP3    H258743   0.130   2.537   1.618 -0.5296 -1.0621 -1.3539
12418TIP3   OH258744   5.697   1.929  12.485 -0.8643 -0.3714  0.7717
12418TIP3    H158745   5.668   1.839  12.469  0.5910 -0.8704  0.7280
12418TIP3    H258746   5.789   1.919  12.512 -0.8351  1.0701  1.2598
12419TIP3   OH258747   4.321   0.671   5.377 -0.2337 -0.1632  0.0297
12419TIP3    H158748   4.235   0.663   5.418 -0.8113 -1.1883 -1.3167
12419TIP3    H258749   4.362   0.586   5.390  0.4192  0.1787  0.2738
12420TIP3   OH258750   1.381   4.334  16.613 -0.0123 -0.4302  0.1591
12420TIP3    H158751   1.353   4.245  16.635 -1.5541  0.0873  0.4095
12420TIP3    H258752   1.314   4.391  16.651  0.1177  0.7654 -1.2901
12421TIP3   OH258753   6.145   2.811  13.212  0.0061 -0.3012 -0.7268
12421TIP3    H158754   6.204   2.790  13.285 -0.7960 -0.6132 -0.1511
12421TIP3    H258755   6.110   2.726  13.185  0.4863 -0.2142 -1.6517
12422TIP3   OH258756   5.263   2.028   0.346 -0.4494 -0.6304 -0.0581
12422TIP3    H158757   5.350   2.037   0.386 -0.8364  0.6031  0.5469
12422TIP3    H258758   5.208   1.997   0.418 -0.6596 -0.7179 -0.2573
12423TIP3   OH258759   2.854   3.779   1.312  0.4568 -0.0148  0.0546
12423TIP3    H158760   2.818   3.742   1.232  0.4092  0.2723 -0.0574
12423TIP3    H258761   2.869   3.704   1.369  0.3262 -0.2009 -0.1581
12424TIP3   OH258762   6.192   2.795   2.173  0.2253 -0.0484  0.4234
12424TIP3    H158763   6.264   2.735   2.155  0.1469  0.1390 -0.5888
12424TIP3    H258764   6.119   2.739   2.196 -0.3292 -0.4975 -2.1534
12425TIP3   OH258765   4.092   4.263   5.573  0.1080 -0.0545  1.0136
12425TIP3    H158766   4.148   4.325   5.526 -0.0095  0.7573  1.9117
12425TIP3    H258767   4.081   4.302   5.660  0.0230 -1.3349  1.5993
12426TIP3   OH258768   0.015   6.641  13.195 -0.5541 -0.3894 -0.3045
12426TIP3    H158769   0.076   6.688  13.253  0.3597 -2.4799  0.5599
12426TIP3    H258770   0.054   6.649  13.108 -0.2873  0.2318 -0.1338
12427TIP3   OH258771   5.437   1.028  16.537  0.3896 -0.7538  0.0391
12427TIP3    H158772   5.531   1.044  16.547  0.7014 -1.6498 -1.2145
12427TIP3    H258773   5.425   0.939  16.569 -0.3392 -0.1047  1.6871
12428TIP3   OH258774   2.560   3.447   6.226  0.1118 -0.0126 -0.0773
12428TIP3    H158775   2.499   3.429   6.155 -2.2962 -1.2453  2.1431
12428TIP3    H258776   2.608   3.525   6.198 -2.1963  0.7707 -2.1491
12429TIP3   OH258777   4.835   2.223  16.574 -0.6492 -0.0152 -0.3092
12429TIP3    H158778   4.872   2.136  16.588 -0.9364  0.1437  1.8448
12429TIP3    H258779   4.778   2.237  16.650 -1.0069  1.8523 -0.8729
12430TIP3   OH258780   2.548   6.721   1.155  0.0716 -0.1098 -0.4342
12430TIP3    H158781   2.477   6.781   1.132  0.2976  0.0346 -0.7633
12430TIP3    H258782   2.628   6.767   1.129  0.2447 -0.5703 -0.7348
12431TIP3   OH258783   6.444   5.989  16.549 -0.3968 -0.0598 -0.1829
12431TIP3    H158784   6.466   5.965  16.459  0.1065  1.5673 -0.5418
12431TIP3    H258785   6.374   6.054  16.540 -1.5004 -1.0636  0.7035
12432TIP3   OH258786   4.776   4.080  15.325 -0.3969 -0.4214  0.4493
12432TIP3    H158787   4.827   4.027  15.386 -0.3228  0.6939  1.3958
12432TIP3    H258788   4.685   4.067  15.351 -0.3956 -0.2831  0.5269
12433TIP3   OH258789   6.409   4.451  13.887  0.2848 -0.2963 -1.1738
12433TIP3    H158790   6.498   4.427  13.913 -0.3309 -0.6408  0.6948
12433TIP3    H258791   6.359   4.370  13.893 -1.1522  0.7064  2.3471
12434TIP3   OH258792   6.389   1.574  11.822 -0.0928  0.2511 -0.2836
12434TIP3    H158793   6.371   1.526  11.741 -1.6690  2.2953 -1.2294
12434TIP3    H258794   6.303   1.600  11.854  0.5922  0.6236  1.3587
12435TIP3   OH258795   6.574   2.333  16.679 -0.0939 -0.5113  0.2571
12435TIP3    H158796   6.517   2.278  16.626  0.7174 -2.2957  1.1783
12435TIP3    H258797   6.548   2.316  16.769 -2.2030  3.2882  0.5956
12436TIP3   OH258798   4.700   3.313   5.278  0.0252 -0.4266  0.6510
12436TIP3    H158799   4.716   3.237   5.333  1.2901 -0.8901 -0.3181
12436TIP3    H258800   4.718   3.388   5.335 -0.0330 -0.8709  1.2631
12437TIP3   OH258801   4.199   3.842   4.312  0.0548 -0.0157 -0.5707
12437TIP3    H158802   4.156   3.909   4.259  0.5289  0.8633  0.1300
12437TIP3    H258803   4.128   3.800   4.361 -0.4373 -1.0665 -2.0877
12438TIP3   OH258804   0.888   2.701   0.856 -0.2267  1.1144 -0.4644
12438TIP3    H158805   0.851   2.716   0.943  1.0438  0.3517  0.2332
12438TIP3    H258806   0.930   2.615   0.861 -0.4433  0.8798 -1.9543
12439TIP3   OH258807   4.300   3.942  12.543  0.3758 -0.0151 -0.3355
12439TIP3    H158808   4.374   3.882  12.542 -1.2962 -2.2256  0.5600
12439TIP3    H258809   4.325   4.012  12.481  2.6042 -1.3524 -1.0600
12440TIP3   OH258810   3.443   1.126   3.616  0.0892 -0.1495 -0.6207
12440TIP3    H158811   3.433   1.183   3.693 -0.1029  0.5266 -1.1408
12440TIP3    H258812   3.375   1.060   3.627  1.0714 -1.0096  0.5999
12441TIP3   OH258813   4.986   0.948   3.367  0.2949  0.0945 -0.3280
12441TIP3    H158814   4.894   0.927   3.384  0.5930 -0.5332  0.5865
12441TIP3    H258815   5.003   1.027   3.418  0.5027 -0.3046  0.2198
12442TIP3   OH258816   4.664   0.429  12.531 -0.3004 -0.0550 -0.3649
12442TIP3    H158817   4.723   0.458  12.462  0.7783 -0.5084  0.3387
12442TIP3    H258818   4.719   0.421  12.609 -1.1625 -1.0310  0.1834
12443TIP3   OH258819   1.465   6.771   0.519  0.6143 -0.1011 -0.1311
12443TIP3    H158820   1.423   6.716   0.585 -0.7126 -0.7141 -1.4202
12443TIP3    H258821   1.448   6.860   0.548  1.0713 -0.3500  0.9535
12444TIP3   OH258822   4.793   1.211  12.236 -0.1323 -0.4286  0.7999
12444TIP3    H158823   4.854   1.138  12.222  0.4244  0.0224  0.8572
12444TIP3    H258824   4.729   1.202  12.164 -0.3809 -1.2758  1.1069
12445TIP3   OH258825   3.517   1.118   1.007  0.6577 -0.5265 -0.0263
12445TIP3    H158826   3.471   1.165   0.938  0.6096 -0.9088 -0.2550
12445TIP3    H258827   3.543   1.034   0.968  1.4605 -0.3645  0.1307
12446TIP3   OH258828   4.488   0.932  14.793  0.4187 -0.1405 -0.0098
12446TIP3    H158829   4.419   0.954  14.855 -0.7558  3.0016 -2.1724
12446TIP3    H258830   4.450   0.862  14.739 -0.2964  0.2087  0.0349
12447TIP3   OH258831   0.360   6.494   6.223  0.0889 -0.0205  0.1090
12447TIP3    H158832   0.358   6.562   6.155  1.8694  0.3400  0.3675
12447TIP3    H258833   0.278   6.507   6.271 -1.0308 -0.0367 -1.6869
12448TIP3   OH258834   5.732   5.188  15.194 -0.1873 -0.0992 -0.8383
12448TIP3    H158835   5.721   5.111  15.138 -0.7790 -0.1687 -0.6257
12448TIP3    H258836   5.752   5.259  15.133  1.7250 -0.6576 -0.9547
12449TIP3   OH258837   4.252   1.644  16.524 -0.0890  0.3954  0.4312
12449TIP3    H158838   4.336   1.689  16.536 -0.8484  1.8591  0.4857
12449TIP3    H258839   4.197   1.678  16.594 -0.2994 -1.7162  1.3494
12450TIP3   OH258840   5.125   2.759  11.098  0.5081 -0.2121 -0.5166
12450TIP3    H158841   5.159   2.823  11.034  0.0438  0.5794  0.0089
12450TIP3    H258842   5.032   2.780  11.105  0.3127 -1.0666 -0.4514
12451TIP3   OH258843   4.555   1.971   0.244 -0.1148  0.0914  0.4122
12451TIP3    H158844   4.618   1.957   0.315 -0.2598 -1.1859  0.3135
12451TIP3    H258845   4.485   1.908   0.262 -0.7639  0.6384 -0.1664
12452TIP3   OH258846   3.498   3.124   5.234 -0.3529  0.1766  0.1841
12452TIP3    H158847   3.524   3.086   5.150  1.0761  1.0247  0.1948
12452TIP3    H258848   3.521   3.058   5.299  1.9189  0.8615  0.1858
12453TIP3   OH258849   3.138   4.634   5.297  0.3607 -0.0990 -0.2701
12453TIP3    H158850   3.125   4.607   5.388  1.6593  1.2000  0.3569
12453TIP3    H258851   3.226   4.602   5.275 -0.1408 -0.8418 -1.2543
12454TIP3   OH258852   3.704   0.120  15.202 -0.2254  0.5270  0.0082
12454TIP3    H158853   3.671   0.198  15.247  2.3570  1.0694  1.1623
12454TIP3    H258854   3.723   0.058  15.272  1.5097  0.4153 -0.5115
12455TIP3   OH258855   4.781   1.077  15.806  0.2979  0.5270 -0.3888
12455TIP3    H158856   4.832   1.158  15.811  0.2535  0.5642 -0.5266
12455TIP3    H258857   4.785   1.052  15.713 -1.2389  1.3621 -0.6963
12456TIP3   OH258858   0.080   5.038  16.071 -0.6784  0.0638  0.5120
12456TIP3    H158859   0.163   5.084  16.083 -1.1464  1.0646  0.0167
12456TIP3    H258860   0.099   4.970  16.007  0.3171 -1.2588  2.1330
12457TIP3   OH258861   5.144   4.123  11.624 -0.4428 -0.5695  0.3317
12457TIP3    H158862   5.182   4.210  11.617 -0.7023 -0.4528  0.3427
12457TIP3    H258863   5.049   4.138  11.621 -0.4835 -0.9398 -0.8281
12458TIP3   OH258864   1.635   5.340   4.158  0.2712  0.2916  0.7954
12458TIP3    H158865   1.688   5.340   4.238  1.0661  3.2258  0.3658
12458TIP3    H258866   1.696   5.318   4.089 -0.2431 -1.4043  0.8307
12459TIP3   OH258867   1.851   2.020   4.088  0.1376  0.3694  0.3539
12459TIP3    H158868   1.808   2.077   4.153 -1.3494  0.0637 -0.3077
12459TIP3    H258869   1.804   1.937   4.095 -1.9921  1.1029 -2.9198
12460TIP3   OH258870   0.673   0.229  15.014  0.0936  0.0767 -0.4228
12460TIP3    H158871   0.727   0.307  15.003  1.7650 -0.7365  1.3728
12460TIP3    H258872   0.730   0.156  14.988 -1.0742 -0.6474 -1.0527
12461TIP3   OH258873   0.142   4.434  12.822  0.4646  0.6342 -0.4584
12461TIP3    H158874   0.061   4.440  12.773 -0.1727  0.0022  0.4901
12461TIP3    H258875   0.156   4.523  12.856 -0.1104  0.6199 -0.1857
12462TIP3   OH258876   6.305   0.354  14.314  0.6286 -0.1562 -0.2188
12462TIP3    H158877   6.260   0.323  14.393 -1.3863  0.4906 -1.0588
12462TIP3    H258878   6.356   0.279  14.285  1.5425 -0.3646  1.7599
12463TIP3   OH258879   1.451   1.736   3.459  0.0401  0.2479  0.0207
12463TIP3    H158880   1.369   1.777   3.433 -0.1700 -0.1492  0.0567
12463TIP3    H258881   1.459   1.661   3.401  1.2549  1.2615 -1.2131
12464TIP3   OH258882   6.546   1.431   1.313 -0.4733  0.7294  0.4698
12464TIP3    H158883   6.619   1.414   1.372 -2.7464 -4.5496  2.4548
12464TIP3    H258884   6.551   1.361   1.248 -2.3385  1.7308 -0.8502
12465TIP3   OH258885   2.445   5.243   2.035 -0.0095 -0.9789 -0.4112
12465TIP3    H158886   2.508   5.217   1.968  1.3591 -2.4610  1.3451
12465TIP3    H258887   2.361   5.211   2.002  0.4439 -0.7038 -1.8991
12466TIP3   OH258888   1.289   4.837   1.458  0.6933 -0.8936 -0.4490
12466TIP3    H158889   1.202   4.871   1.435  0.6408  0.1539  1.1446
12466TIP3    H258890   1.280   4.805   1.547  2.1590  0.1561  0.1233
12467TIP3   OH258891   2.058   6.049   4.858 -0.0906  0.0896 -0.0888
12467TIP3    H158892   2.147   6.060   4.823 -0.9893 -2.0425 -3.6097
12467TIP3    H258893   2.007   6.117   4.814 -0.5585  0.0606  0.4010
12468TIP3   OH258894   3.529   1.023   3.382  0.4157 -0.3260  0.1509
12468TIP3    H158895   3.619   1.050   3.363  0.6731 -0.5491  1.0353
12468TIP3    H258896   3.499   1.084   3.450 -0.9313  1.2694 -1.7352
12469TIP3   OH258897   1.091   1.216  15.848  0.3780  0.1470 -0.6523
12469TIP3    H158898   1.072   1.309  15.839 -0.6794  0.0182  0.0819
12469TIP3    H258899   1.173   1.212  15.898 -0.0277  0.6774  0.0665
12470TIP3   OH258900   6.774   6.247   1.727  0.2592  0.0891 -0.0981
12470TIP3    H158901   6.867   6.246   1.752 -0.2508  0.0510  2.0168
12470TIP3    H258902   6.731   6.196   1.796 -1.2961 -0.2628 -1.2820
12471TIP3   OH258903   0.156   0.575  15.069 -0.0664 -0.3426  0.2446
12471TIP3    H158904   0.191   0.636  15.005 -1.0800 -1.7899 -1.8094
12471TIP3    H258905   0.078   0.539  15.027 -0.1653 -2.1586  1.8570
12472TIP3   OH258906   1.550   0.176   4.633 -0.1111  0.0650 -0.1275
12472TIP3    H158907   1.506   0.204   4.714 -0.7343 -0.8535 -0.1275
12472TIP3    H258908   1.520   0.086   4.620 -1.1022  0.6249 -2.1127
12473TIP3   OH258909   3.310   2.231  12.436  0.2948  0.0504 -0.4393
12473TIP3    H158910   3.234   2.277  12.471 -0.2199  1.1615 -2.8143
12473TIP3    H258911   3.283   2.139  12.432  1.0050 -0.5051  3.4944
12474TIP3   OH258912   4.487   4.740  15.808 -0.5746  0.3135 -0.1447
12474TIP3    H158913   4.406   4.727  15.760  0.1207 -1.3028 -0.9478
12474TIP3    H258914   4.466   4.719  15.899 -1.5181  1.8808  0.0298
12475TIP3   OH258915   5.158   5.136   5.566 -0.0546  0.3170  0.6988
12475TIP3    H158916   5.175   5.042   5.564  0.6217  0.4396 -1.2879
12475TIP3    H258917   5.242   5.176   5.545 -0.6668  1.3061  0.0627
12476TIP3   OH258918   0.913   1.109   0.704  0.3241 -0.3094 -0.2127
12476TIP3    H158919   0.984   1.049   0.725  0.4291  0.0027  0.3504
12476TIP3    H258920   0.957   1.187   0.670  0.2094 -0.4050 -0.5835
12477TIP3   OH258921   5.961   4.675   5.651  0.2838  0.0737  0.1776
12477TIP3    H158922   6.008   4.592   5.647  1.9428  1.0187 -0.9043
12477TIP3    H258923   5.975   4.706   5.741  1.2060  0.0476  0.0441
12478TIP3   OH258924   0.446   1.343   2.620 -1.2025 -0.3700  0.1926
12478TIP3    H158925   0.381   1.280   2.590 -0.1559 -0.6835 -1.5601
12478TIP3    H258926   0.437   1.417   2.561  0.4381 -0.6926 -0.5316
12479TIP3   OH258927   0.684   0.298   0.061  0.5734 -0.1314 -0.3730
12479TIP3    H158928   0.688   0.246   0.142  0.4179 -1.3844 -1.1399
12479TIP3    H258929   0.591   0.315   0.048  0.3626 -1.8973 -1.4602
12480TIP3   OH258930   6.164   5.345  16.656  0.2724 -0.6561 -0.1590
12480TIP3    H158931   6.198   5.424  16.697 -0.3859  0.1029 -1.0114
12480TIP3    H258932   6.074   5.338  16.688  1.0569 -2.5110  1.8936
12481TIP3   OH258933   2.495   0.349  16.914 -0.0356 -0.0808  0.1353
12481TIP3    H158934   2.402   0.349  16.939  0.1077  1.3185  0.7503
12481TIP3    H258935   2.507   0.431  16.866  0.5784 -0.9322 -1.2351
12482TIP3   OH258936   6.010   4.366   3.274 -0.4231 -0.6146  0.6399
12482TIP3    H158937   6.000   4.353   3.368  0.3225  0.4747  0.8866
12482TIP3    H258938   6.066   4.443   3.266  0.3397 -1.2606 -0.6898
12483TIP3   OH258939   4.120   5.198   1.395  0.0627 -0.1008  0.7034
12483TIP3    H158940   4.065   5.176   1.471  0.5695  0.4006  1.2270
12483TIP3    H258941   4.157   5.284   1.416  2.2917 -1.0819  1.1095
12484TIP3   OH258942   4.246   4.808  11.462  0.0406  0.1698  0.2886
12484TIP3    H158943   4.236   4.715  11.442 -1.1887 -0.0355  1.6815
12484TIP3    H258944   4.168   4.830  11.514 -0.3920  2.3225 -1.1543
12485TIP3   OH258945   3.843   6.645  11.887 -0.2656 -0.1088  0.0592
12485TIP3    H158946   3.846   6.693  11.805 -1.6325  0.6751  0.4381
12485TIP3    H258947   3.819   6.556  11.862  1.5927 -0.4762 -0.5797
12486TIP3   OH258948   0.470   6.845   4.761 -0.4591  0.6667 -0.0540
12486TIP3    H158949   0.442   6.936   4.770  0.0310  0.8891 -0.6871
12486TIP3    H258950   0.388   6.795   4.755 -0.7317  1.0298  0.5775
12487TIP3   OH258951   4.363   0.868   4.504 -0.3242 -0.8412  0.3531
12487TIP3    H158952   4.440   0.824   4.468 -0.1117 -0.5242  0.4142
12487TIP3    H258953   4.382   0.961   4.496 -0.5145 -0.7618  0.7634
12488TIP3   OH258954   1.858   1.705   3.810  0.2213  0.2547  0.2760
12488TIP3    H158955   1.819   1.639   3.753  1.1266 -0.2928  0.2613
12488TIP3    H258956   1.826   1.789   3.776  0.8184 -0.0442 -1.1267
12489TIP3   OH258957   6.819   3.801   2.830  0.2161 -0.2533 -0.2515
12489TIP3    H158958   6.843   3.882   2.784  2.8293 -2.0835 -2.3825
12489TIP3    H258959   6.745   3.767   2.781 -0.6957  0.6277  0.4678
12490TIP3   OH258960   1.444   0.297   6.718  0.6730 -0.1573 -0.3551
12490TIP3    H158961   1.358   0.288   6.678  0.7288  1.2079 -0.8153
12490TIP3    H258962   1.497   0.228   6.677  0.2128 -0.0056 -1.2187
12491TIP3   OH258963   2.652   3.158   4.299  0.1819  0.5382 -0.1842
12491TIP3    H158964   2.568   3.203   4.305 -0.0060 -0.0009  1.7614
12491TIP3    H258965   2.718   3.227   4.304 -0.0905  0.9827 -1.9107
12492TIP3   OH258966   4.131   1.958  12.574  0.7044 -0.2036  0.3323
12492TIP3    H158967   4.225   1.947  12.589  0.7976 -1.5215 -0.9881
12492TIP3    H258968   4.093   1.872  12.593 -0.2251  0.2454  0.6121
12493TIP3   OH258969   6.042   0.752   1.188  0.7761  0.2436  0.1300
12493TIP3    H158970   5.967   0.696   1.168  0.9526  0.1210 -0.1921
12493TIP3    H258971   6.003   0.838   1.208  0.4213 -0.2632  1.7370
12494TIP3   OH258972   3.675   2.316   0.948 -0.0556  0.6829 -0.0252
12494TIP3    H158973   3.595   2.347   0.991  1.9318  1.2342  3.6730
12494TIP3    H258974   3.712   2.395   0.907 -1.0596  0.5192 -1.3340
12495TIP3   OH258975   2.306   1.536  12.057  0.0352  0.0713  0.2732
12495TIP3    H158976   2.327   1.523  11.965  0.4955  1.0623  0.2297
12495TIP3    H258977   2.212   1.551  12.059 -0.1183 -0.7870  0.0715
12496TIP3   OH258978   1.040   4.800  12.207  0.0060  0.0445  0.4211
12496TIP3    H158979   1.033   4.805  12.302  1.3820 -0.7804  0.5960
12496TIP3    H258980   1.127   4.836  12.187  0.7253 -1.8923 -0.2617
12497TIP3   OH258981   4.080   2.001  14.404 -0.3222 -0.1519  0.4232
12497TIP3    H158982   4.168   1.982  14.371 -0.0524 -0.1937  1.1261
12497TIP3    H258983   4.026   1.929  14.373  0.1081 -0.6462  0.7978
12498TIP3   OH258984   0.702   4.347  15.354  0.7568 -0.5363  0.0363
12498TIP3    H158985   0.675   4.277  15.294 -1.0783  0.1248  0.0448
12498TIP3    H258986   0.620   4.381  15.390  1.7261  0.3733  1.4635
12499TIP3   OH258987   0.438   3.174   4.308 -0.3375  0.3932  0.1651
12499TIP3    H158988   0.415   3.090   4.348 -1.8292 -0.3604 -2.1113
12499TIP3    H258989   0.355   3.215   4.287  0.3829  1.2099 -1.2247
12500TIP3   OH258990   3.481   4.187   4.408  0.0884  0.4016  0.3470
12500TIP3    H158991   3.419   4.169   4.479 -1.6777  1.5275 -0.8228
12500TIP3    H258992   3.478   4.109   4.354  2.1310 -0.8514  1.8796
12501TIP3   OH258993   5.465   0.248   4.283 -0.2550 -0.3805 -0.4753
12501TIP3    H158994   5.475   0.153   4.287 -0.9174 -0.4908 -1.2772
12501TIP3    H258995   5.404   0.269   4.353 -1.5976 -0.7789 -1.4880
12502TIP3   OH258996   0.025   3.434  15.401 -0.3617 -0.0614  0.1438
12502TIP3    H158997   0.053   3.347  15.430 -0.7455 -0.1552  0.2444
12502TIP3    H258998  -0.068   3.422  15.379 -0.2948  0.2133 -0.2898
12503TIP3   OH258999   1.369   6.148  14.896 -0.0505 -0.6609 -0.0177
12503TIP3    H159000   1.292   6.100  14.926  0.5800 -0.7414  1.5836
12503TIP3    H259001   1.409   6.183  14.977  0.7181  0.7076 -0.9379
12504TIP3   OH259002   3.435   5.281   4.085  0.7347  0.3738 -0.1705
12504TIP3    H159003   3.382   5.289   4.164  0.7468  1.6016 -0.2760
12504TIP3    H259004   3.526   5.279   4.118  0.6724 -1.9046  0.0232
12505TIP3   OH259005   4.548   0.796   2.380 -0.4678 -0.3230  0.1426
12505TIP3    H159006   4.470   0.762   2.337 -1.5061  2.6259 -0.5569
12505TIP3    H259007   4.621   0.754   2.335 -1.6068 -1.1614 -0.9933
12506TIP3   OH259008   1.446   5.920  12.734 -0.0832 -1.1281 -0.0109
12506TIP3    H159009   1.510   5.878  12.791  0.9767  0.5063  0.0679
12506TIP3    H259010   1.465   6.013  12.742 -1.3167 -0.7254 -1.3924
12507TIP3   OH259011   4.309   4.589   5.887 -0.3000 -0.1447  0.0147
12507TIP3    H159012   4.254   4.512   5.897 -0.4436 -0.1848 -0.9758
12507TIP3    H259013   4.365   4.589   5.965 -1.4287 -0.3041  0.8606
12508TIP3   OH259014   0.806   5.245   1.646 -0.2443 -0.1488 -0.2257
12508TIP3    H159015   0.899   5.238   1.664 -0.4144 -2.1449  0.1233
12508TIP3    H259016   0.799   5.242   1.551 -0.0053 -1.1559 -0.2194
12509TIP3   OH259017   1.674   0.205   3.641 -0.2158  0.2001 -0.0256
12509TIP3    H159018   1.694   0.116   3.671 -2.0404 -0.9169 -1.8172
12509TIP3    H259019   1.582   0.200   3.615  0.0798  2.2112 -1.6290
12510TIP3   OH259020   4.212   3.389   4.537  0.0603 -0.2074  0.1851
12510TIP3    H159021   4.262   3.408   4.458 -0.0735  1.3813  0.4506
12510TIP3    H259022   4.121   3.386   4.507  0.1033 -0.7350  0.0988
12511TIP3   OH259023   3.742   0.617  12.057  0.2185 -0.1064 -0.0867
12511TIP3    H159024   3.807   0.605  11.988 -0.9469  0.2722 -1.3149
12511TIP3    H259025   3.661   0.581  12.020 -0.8267  1.6199  0.3868
12512TIP3   OH259026   6.762   3.884  16.529  0.5736  0.1596 -0.0249
12512TIP3    H159027   6.756   3.856  16.438  1.0623  1.6631 -0.5514
12512TIP3    H259028   6.768   3.802  16.579 -0.6149 -0.7200 -1.2469
12513TIP3   OH259029   5.430   1.467  14.414 -0.4507 -0.1134 -0.6187
12513TIP3    H159030   5.366   1.435  14.477  0.9266  0.5025  1.1714
12513TIP3    H259031   5.456   1.388  14.365 -1.1381 -0.7149 -0.0392
12514TIP3   OH259032   2.856   3.298  12.144 -0.5299  1.0167  0.0332
12514TIP3    H159033   2.950   3.291  12.156 -0.6750  1.7270  1.7843
12514TIP3    H259034   2.846   3.354  12.067  0.4584  0.6771 -0.3618
12515TIP3   OH259035   4.522   4.864   1.054  0.0394  0.1837 -0.6566
12515TIP3    H159036   4.551   4.773   1.060 -1.1100 -0.1488  0.2503
12515TIP3    H259037   4.603   4.916   1.058  1.0106 -0.8192 -4.0290
12516TIP3   OH259038   5.412   5.705   5.200 -0.3328  0.2593  0.0873
12516TIP3    H159039   5.322   5.723   5.229 -0.2710 -0.4471  0.7431
12516TIP3    H259040   5.429   5.615   5.227  1.0828  0.8484  1.3084
12517TIP3   OH259041   2.113   1.553  11.476  0.0658 -0.1648 -0.2719
12517TIP3    H159042   2.052   1.490  11.514 -0.7669  0.6027 -0.3112
12517TIP3    H259043   2.057   1.624  11.443  0.8490 -0.2894 -1.9340
12518TIP3   OH259044   5.859   6.530   5.672 -0.6668 -0.2193  0.2884
12518TIP3    H159045   5.766   6.506   5.675 -0.9726  0.9080  0.1292
12518TIP3    H259046   5.862   6.618   5.707  0.6268 -0.9684  2.1925
12519TIP3   OH259047   0.637   3.835   1.539 -0.1675 -0.1160 -0.0125
12519TIP3    H159048   0.575   3.884   1.593 -0.4404 -1.8543  1.3308
12519TIP3    H259049   0.707   3.810   1.599  0.1149 -1.0943 -0.7230
12520TIP3   OH259050   5.098   3.569   1.664 -0.4240 -0.1125 -0.2433
12520TIP3    H159051   5.113   3.475   1.676 -1.6056 -0.6677 -2.7100
12520TIP3    H259052   5.181   3.602   1.627 -0.5988 -0.5264 -1.0103
12521TIP3   OH259053   0.846   6.299  10.505 -0.7612  0.0158  0.1165
12521TIP3    H159054   0.898   6.241  10.562 -1.0383 -0.2537  0.0973
12521TIP3    H259055   0.879   6.386  10.523  1.0878 -0.3144 -1.3231
12522TIP3   OH259056   6.159   6.688  15.444 -0.2485 -0.0186  0.2794
12522TIP3    H159057   6.083   6.631  15.451  0.3887 -0.8863  0.2736
12522TIP3    H259058   6.164   6.709  15.350 -0.8966  0.6402  0.3828
12523TIP3   OH259059   6.443   0.441  13.020  0.5461  0.7743  0.0233
12523TIP3    H159060   6.385   0.405  13.087 -0.9858 -0.8759 -2.0636
12523TIP3    H259061   6.391   0.509  12.977  0.9017  0.7022 -0.5330
12524TIP3   OH259062   4.629   5.375  14.594  0.8748 -0.5436  0.2731
12524TIP3    H159063   4.718   5.367  14.627  1.3292  1.0586 -0.4236
12524TIP3    H259064   4.616   5.298  14.540  2.3717 -0.1258 -0.7452
12525TIP3   OH259065   4.002   4.123   3.094  0.0414  0.3948 -0.5578
12525TIP3    H159066   4.026   4.057   3.029 -0.8451 -0.2339 -0.2579
12525TIP3    H259067   4.085   4.165   3.117  0.9052 -1.7084  0.4400
12526TIP3   OH259068   5.812   1.769  13.165 -0.1837  0.0994  0.1446
12526TIP3    H159069   5.843   1.678  13.167 -1.1698 -0.3164 -1.4840
12526TIP3    H259070   5.871   1.813  13.104  0.1496  0.5015  0.7549
12527TIP3   OH259071   4.887   5.246   0.273 -0.1100  0.4105 -0.0622
12527TIP3    H159072   4.931   5.246   0.358 -0.7351 -0.0330  0.2745
12527TIP3    H259073   4.944   5.192   0.217 -0.7776 -1.1667  0.6936
12528TIP3   OH259074   0.591   1.376  14.429  0.0829  0.4956 -0.5642
12528TIP3    H159075   0.671   1.354  14.382 -0.6394 -0.6889 -1.2780
12528TIP3    H259076   0.600   1.332  14.513  0.3360  0.6766 -0.4940
12529TIP3   OH259077   1.941   0.635  15.875 -0.2977  0.3722 -0.2114
12529TIP3    H159078   1.983   0.653  15.791 -0.3914 -1.5677 -0.7386
12529TIP3    H259079   2.010   0.648  15.940  0.0515  0.9344 -0.6890
12530TIP3   OH259080   5.364   2.923   1.094 -0.7244 -0.0297 -0.3081
12530TIP3    H159081   5.426   2.870   1.044 -1.9666 -0.3723 -1.5447
12530TIP3    H259082   5.338   2.866   1.167 -2.3440 -1.3428 -1.8383
12531TIP3   OH259083   6.679   0.007   5.539  0.3007 -0.4678  0.0786
12531TIP3    H159084   6.595   0.045   5.515  0.4454  0.3988  0.8989
12531TIP3    H259085   6.659  -0.085   5.557  0.2059 -1.2866 -3.3953
12532TIP3   OH259086   4.145   1.104   1.242  0.1185 -0.4215 -0.2740
12532TIP3    H159087   4.165   1.158   1.318 -1.1468 -0.2070 -0.0594
12532TIP3    H259088   4.216   1.120   1.180  0.4351  0.4798  0.3139
12533TIP3   OH259089   2.822   2.936  12.899 -0.2240 -0.0885 -0.3460
12533TIP3    H159090   2.808   3.004  12.833  0.1925 -0.7256 -1.1055
12533TIP3    H259091   2.791   2.855  12.858 -0.3343 -0.4345  0.3917
12534TIP3   OH259092   0.622   6.349  12.756 -0.5066  0.7231  0.2454
12534TIP3    H159093   0.589   6.432  12.790 -1.7598 -0.2763  1.6324
12534TIP3    H259094   0.575   6.336  12.674  0.0017  1.5612 -0.1876
12535TIP3   OH259095   2.919   2.701   1.026 -0.1738  0.1035 -0.0963
12535TIP3    H159096   2.979   2.724   0.955 -0.4457  0.5815 -0.1726
12535TIP3    H259097   2.932   2.607   1.038  0.0243  0.0573 -0.6359
12536TIP3   OH259098   5.984   1.402   2.644 -0.6652  0.7556 -0.0347
12536TIP3    H159099   5.926   1.478   2.644 -1.5251  0.1198 -0.5181
12536TIP3    H259100   6.028   1.406   2.559 -0.3328  0.9818  0.1446
12537TIP3   OH259101   2.544   2.502  11.300  0.0733  0.6283  0.7400
12537TIP3    H159102   2.587   2.583  11.325  1.0568  0.1817  0.5272
12537TIP3    H259103   2.451   2.524  11.296  0.3861  1.8906  0.1093
12538TIP3   OH259104   3.643   4.015   2.498  0.2340  0.2733 -0.1774
12538TIP3    H159105   3.662   4.037   2.406  0.2818 -1.2259 -0.5584
12538TIP3    H259106   3.556   4.052   2.514 -0.4738 -0.7811 -1.3497
12539TIP3   OH259107   2.515   4.088  16.926  0.0788 -0.3329  0.4119
12539TIP3    H159108   2.603   4.107  16.894  0.1149 -0.3150  0.5225
12539TIP3    H259109   2.520   4.103  17.020 -0.3568  0.8374  0.2614
12540TIP3   OH259110   3.684   3.253   4.409  0.0504 -0.0049 -1.1214
12540TIP3    H159111   3.623   3.219   4.475  1.5886 -0.5614  0.0808
12540TIP3    H259112   3.628   3.288   4.341 -1.6161 -0.6318 -0.1423
12541TIP3   OH259113   1.188   4.562  13.151  0.0136 -0.2178  0.3502
12541TIP3    H159114   1.226   4.597  13.231 -0.7841  0.1427  0.5753
12541TIP3    H259115   1.101   4.533  13.176  0.4029 -1.7757  0.0232
12542TIP3   OH259116   1.388   6.832  13.913  0.3898  0.4109  0.4786
12542TIP3    H159117   1.345   6.812  13.995  1.1701  2.1063  1.3544
12542TIP3    H259118   1.380   6.752  13.861 -1.7871 -0.0493  1.4437
12543TIP3   OH259119   0.461   0.059   0.765 -0.4072  0.6348  0.1259
12543TIP3    H159120   0.520  -0.001   0.810  0.3044  1.7447  0.7250
12543TIP3    H259121   0.414   0.103   0.835  1.7181  3.4102  0.0091
12544TIP3   OH259122   4.813   2.438   4.205 -0.3515  0.3406 -0.2453
12544TIP3    H159123   4.816   2.524   4.164 -0.3407 -0.3257 -1.7333
12544TIP3    H259124   4.901   2.402   4.194  0.1602  0.7809  1.9329
12545TIP3   OH259125   6.538   0.446  14.205 -0.6708  0.1771  0.2118
12545TIP3    H159126   6.467   0.422  14.264  0.1867 -1.2894  0.7076
12545TIP3    H259127   6.506   0.426  14.118 -1.0929  0.1457  0.3743
12546TIP3   OH259128   6.191   5.312   1.573 -0.3361 -0.4013  0.2727
12546TIP3    H159129   6.194   5.219   1.547 -0.1349 -0.0216 -1.1860
12546TIP3    H259130   6.258   5.353   1.519 -2.2761  1.0432 -1.1680
12547TIP3   OH259131   2.148   2.906   2.374 -0.7393 -0.6370  0.0693
12547TIP3    H159132   2.157   2.859   2.292 -0.6090  0.1713 -0.3956
12547TIP3    H259133   2.165   2.998   2.351  1.2106 -0.6097  1.3230
12548TIP3   OH259134   4.123   3.478   3.739 -0.1184  0.5664 -0.2116
12548TIP3    H159135   4.158   3.392   3.716 -1.8631 -0.2292  0.0119
12548TIP3    H259136   4.031   3.463   3.759  0.0425  2.0731  2.1337
12549TIP3   OH259137   6.686   2.712  14.678  0.3676  0.0797  0.0408
12549TIP3    H159138   6.634   2.752  14.609  0.9190  0.0956 -0.3658
12549TIP3    H259139   6.762   2.769  14.688  0.0119  0.4084  1.0719
12550TIP3   OH259140   0.955   0.690   2.872 -0.6304  0.1892 -0.1221
12550TIP3    H159141   1.019   0.667   2.805 -0.7201 -0.9257  0.1545
12550TIP3    H259142   0.938   0.608   2.919  0.2083  1.1181  1.9438
12551TIP3   OH259143   2.818   5.666  16.861  0.0077 -0.1718 -0.0809
12551TIP3    H159144   2.801   5.753  16.825 -1.1325 -0.2471  0.2172
12551TIP3    H259145   2.896   5.676  16.914  0.4618  0.4361 -0.8488
12552TIP3   OH259146   4.994   2.940  10.862 -0.2124 -0.2055  0.3191
12552TIP3    H159147   4.945   2.950  10.943 -0.2324 -2.2550  0.6290
12552TIP3    H259148   5.051   3.017  10.858 -0.8573  0.3822  1.8079
12553TIP3   OH259149   6.832   1.287  15.250 -0.8588 -1.2612 -0.5907
12553TIP3    H159150   6.870   1.230  15.183  0.4671  2.0587 -2.8725
12553TIP3    H259151   6.756   1.327  15.207  0.5298  1.6073 -0.5860
12554TIP3   OH259152   4.281   5.603  12.311 -0.3117  0.2270 -0.3972
12554TIP3    H159153   4.237   5.655  12.244  1.8314  0.1650 -1.9536
12554TIP3    H259154   4.331   5.666  12.361  1.3087 -0.1237 -1.5003
12555TIP3   OH259155   1.050   1.021  12.582 -0.2224  0.2548 -0.1139
12555TIP3    H159156   1.110   1.031  12.509  2.4206 -3.2600  1.3272
12555TIP3    H259157   1.082   1.084  12.647  1.3975 -0.8986  0.2625
12556TIP3   OH259158   6.329   3.519   1.758 -0.0414  0.1952  0.1947
12556TIP3    H159159   6.236   3.502   1.744 -0.4319 -0.0979  2.7458
12556TIP3    H259160   6.368   3.433   1.771 -0.1599  0.4499  2.8345
12557TIP3   OH259161   2.847   3.588   3.423  1.2808 -0.5200  0.0226
12557TIP3    H159162   2.852   3.671   3.470  0.1705 -0.7001  0.4933
12557TIP3    H259163   2.928   3.543   3.444  1.8293  0.3798 -0.1228
12558TIP3   OH259164   1.489   2.738   1.554 -0.1535 -1.0014  0.2209
12558TIP3    H159165   1.560   2.731   1.490 -1.3497 -1.4222 -1.1229
12558TIP3    H259166   1.532   2.756   1.637  1.4131  0.3229 -0.8283
12559TIP3   OH259167   2.893   0.627  14.656 -0.4659 -0.0966  0.9418
12559TIP3    H159168   2.948   0.549  14.643 -1.2779 -0.3373 -1.7396
12559TIP3    H259169   2.954   0.701  14.649 -0.0609 -0.4330  0.8488
12560TIP3   OH259170   2.080   1.263  15.679  0.2684  0.4513 -0.2445
12560TIP3    H159171   2.123   1.220  15.753  1.2013  1.3890 -0.2137
12560TIP3    H259172   1.987   1.243  15.690  0.6368 -1.2263 -0.0429
12561TIP3   OH259173   4.754   3.693  12.002 -0.2461  0.0976 -0.2701
12561TIP3    H159174   4.676   3.670  12.052 -0.7262  2.2495  0.0925
12561TIP3    H259175   4.793   3.609  11.977 -0.7837 -1.0811  2.4405
12562TIP3   OH259176   1.248   2.358  14.575  0.1576 -0.5520 -0.0275
12562TIP3    H159177   1.247   2.322  14.664  0.6383  1.8835  1.0192
12562TIP3    H259178   1.185   2.430  14.578  0.3003 -0.3284 -1.6421
12563TIP3   OH259179   2.349   4.231   2.669  0.1503  0.5431 -0.1682
12563TIP3    H159180   2.255   4.251   2.661 -0.8011 -3.2977 -0.6222
12563TIP3    H259181   2.372   4.262   2.756 -0.8828  3.4736 -0.7946
12564TIP3   OH259182   1.225   1.096  15.607  0.0672  0.1513 -0.0084
12564TIP3    H159183   1.181   1.126  15.687  0.6385  2.2069 -0.4065
12564TIP3    H259184   1.318   1.116  15.622  0.7449 -2.6400  0.1680
12565TIP3   OH259185   1.480   1.812   5.434 -0.0636  0.4641  0.2989
12565TIP3    H159186   1.482   1.830   5.527 -2.3526  1.8706  0.1365
12565TIP3    H259187   1.403   1.757   5.421  1.5432 -1.7760 -0.5202
12566TIP3   OH259188   2.648   0.256   5.518 -0.1923  0.5281  0.1441
12566TIP3    H159189   2.699   0.239   5.598 -2.5227  0.4543  1.7040
12566TIP3    H259190   2.564   0.213   5.533  0.0296 -1.5461 -3.3942
12567TIP3   OH259191   5.255   6.131  14.249  0.5394 -0.0099 -0.5025
12567TIP3    H159192   5.171   6.163  14.284 -0.1113  0.2040 -2.1699
12567TIP3    H259193   5.319   6.154  14.317 -0.7586 -0.3329  0.8935
12568TIP3   OH259194   6.212   4.634   2.593  0.3384  0.3183  0.0279
12568TIP3    H159195   6.234   4.672   2.677  0.3190 -0.9622  0.6444
12568TIP3    H259196   6.125   4.597   2.605  0.0900  0.6283 -0.7393
12569TIP3   OH259197   0.747   3.856   1.097 -0.2027 -0.4203 -0.2982
12569TIP3    H159198   0.790   3.895   1.020 -1.0505 -0.5541 -0.8483
12569TIP3    H259199   0.731   3.765   1.071  0.6760 -0.8220  0.5292
12570TIP3   OH259200   1.429   5.571  11.024 -0.3706 -0.2594  0.0776
12570TIP3    H159201   1.457   5.580  10.933  0.1501  1.1482  0.3481
12570TIP3    H259202   1.480   5.496  11.057  1.5439  0.9098 -0.0525
12571TIP3   OH259203   1.556   3.868  14.554 -0.0667  0.4141  0.2751
12571TIP3    H159204   1.579   3.879  14.462 -1.1824  0.4353 -0.0167
12571TIP3    H259205   1.639   3.875  14.601  0.8558 -1.6696 -0.8989
12572TIP3   OH259206   3.877   5.830   3.071  0.6040  0.2541  0.5086
12572TIP3    H159207   3.911   5.863   3.154  0.1284 -0.5126  1.0108
12572TIP3    H259208   3.888   5.735   3.076 -0.5668  0.0959  0.2147
12573TIP3   OH259209   5.482   4.517   3.420 -0.0568 -0.4184 -0.1794
12573TIP3    H159210   5.539   4.498   3.345 -0.0815 -1.1088 -0.0309
12573TIP3    H259211   5.540   4.553   3.486  0.1672 -0.8606 -0.1302
12574TIP3   OH259212   5.801   0.979  13.353 -0.7360 -0.1886 -0.3524
12574TIP3    H159213   5.781   1.055  13.299  0.3183 -0.4226 -1.0863
12574TIP3    H259214   5.715   0.946  13.380 -1.2365  0.5535 -1.0005
12575TIP3   OH259215   4.456   5.091  16.706  0.1204  0.3649  0.2580
12575TIP3    H159216   4.456   5.168  16.763 -1.2031 -0.4968  1.4866
12575TIP3    H259217   4.533   5.104  16.649 -0.5668  3.0405 -0.2369
12576TIP3   OH259218   3.316   1.672  15.546  0.5690  0.0326  0.4497
12576TIP3    H159219   3.284   1.690  15.458  1.0547  0.8307  0.4287
12576TIP3    H259220   3.237   1.651  15.596  0.1877  0.4449  0.0346
12577TIP3   OH259221   2.028   5.008  12.524 -0.4261  0.2382 -0.5258
12577TIP3    H159222   2.055   5.065  12.452 -0.1561 -0.7674 -1.2382
12577TIP3    H259223   2.037   5.063  12.602  2.0432  0.5008 -0.9089
12578TIP3   OH259224   1.683   6.475  15.653  0.6970 -0.4017 -0.8109
12578TIP3    H159225   1.631   6.398  15.675  3.3608 -2.7113 -2.0139
12578TIP3    H259226   1.650   6.503  15.567 -2.1147  1.6704  0.7710
12579TIP3   OH259227   0.248   1.498  11.576  0.2771 -0.1952 -0.3458
12579TIP3    H159228   0.342   1.515  11.576  0.2619 -0.0894 -0.7532
12579TIP3    H259229   0.239   1.414  11.531  0.1178  0.1771 -1.0186
12580TIP3   OH259230   0.424   3.969  13.122 -0.2699  0.0009 -0.1953
12580TIP3    H159231   0.404   4.056  13.156 -0.5971  0.5968 -1.8485
12580TIP3    H259232   0.452   3.920  13.199 -1.1269  1.2404  0.9610
12581TIP3   OH259233   2.579   6.703   5.490 -0.6649 -0.4362  0.5410
12581TIP3    H159234   2.493   6.733   5.459 -0.7814 -1.1520  0.1274
12581TIP3    H259235   2.576   6.608   5.477 -0.0135 -0.5285  1.0491
12582TIP3   OH259236   2.958   2.981   4.540 -0.1734 -0.1732 -0.0074
12582TIP3    H159237   2.915   2.953   4.459  0.8098 -1.6719 -0.0473
12582TIP3    H259238   2.908   2.936   4.609 -0.3204  0.2161  0.1400
12583TIP3   OH259239   0.710   1.542  16.327 -0.2164 -0.0175 -0.7576
12583TIP3    H159240   0.662   1.624  16.330 -1.3072 -0.6352 -0.8980
12583TIP3    H259241   0.713   1.519  16.234  0.1162 -0.1182 -0.7228
12584TIP3   OH259242   4.556   5.481   5.199  0.1064 -0.0259 -0.1616
12584TIP3    H159243   4.625   5.449   5.258 -0.0397 -1.8118 -0.8806
12584TIP3    H259244   4.594   5.558   5.158  0.6048  0.6428  1.4802
12585TIP3   OH259245   0.036   5.575  11.196  0.0164  0.0544 -0.4512
12585TIP3    H159246   0.040   5.482  11.215  0.3630 -0.2612 -1.9449
12585TIP3    H259247  -0.049   5.588  11.153  0.6212  0.1249 -1.6562
12586TIP3   OH259248   1.027   5.697  17.097  0.4133 -0.1869 -0.1033
12586TIP3    H159249   1.123   5.694  17.097  0.4499 -3.1048 -2.1479
12586TIP3    H259250   1.002   5.658  17.180  1.1351 -3.1527 -1.1579
12587TIP3   OH259251   1.115   4.501  10.884  0.2106  0.1582 -0.0997
12587TIP3    H159252   1.029   4.462  10.902  0.2145  0.0945 -0.2176
12587TIP3    H259253   1.097   4.595  10.875  0.3424  0.3168  1.1257
12588TIP3   OH259254   2.066   5.080  17.090  0.3671 -0.0488 -0.4017
12588TIP3    H159255   2.099   5.163  17.123 -1.4503 -0.0941  1.7622
12588TIP3    H259256   2.033   5.100  17.003  1.7553  1.0153 -0.7134
12589TIP3   OH259257   4.020   0.221  11.816 -0.3281 -0.1405  0.6215
12589TIP3    H159258   4.027   0.248  11.907 -1.7051 -0.1792  0.7573
12589TIP3    H259259   3.950   0.275  11.780 -0.3699 -0.7147 -0.1873
12590TIP3   OH259260   3.885   5.279  11.609 -0.4907  0.2573  0.1185
12590TIP3    H159261   3.939   5.324  11.543  0.6732  0.1062  0.9341
12590TIP3    H259262   3.830   5.348  11.645 -0.4912  0.5243 -0.3767
12591TIP3   OH259263   4.870   1.992   1.250  0.1905 -0.0085  0.5005
12591TIP3    H159264   4.900   1.986   1.160  0.5097 -0.0758  0.6094
12591TIP3    H259265   4.874   1.902   1.283 -1.9776 -0.3702 -0.0583
12592TIP3   OH259266   0.301   2.207   0.196  0.0530 -0.2528 -0.0835
12592TIP3    H159267   0.216   2.230   0.235 -0.6251 -0.9118 -1.1057
12592TIP3    H259268   0.309   2.113   0.211 -0.0565 -0.4541 -1.1641
12593TIP3   OH259269   5.159   1.843  12.208 -0.4893  0.3609  0.2462
12593TIP3    H159270   5.113   1.885  12.135 -0.6388 -0.6237 -0.2380
12593TIP3    H259271   5.187   1.916  12.264  0.4697  1.2108 -1.2750
12594TIP3   OH259272   3.813   5.015  12.064  0.3488  0.3532  0.2106
12594TIP3    H159273   3.751   4.996  11.995  0.2104 -0.2838  0.5047
12594TIP3    H259274   3.894   4.972  12.036 -0.0335 -0.9477  0.9930
12595TIP3   OH259275   4.714   2.222  13.792 -0.0271  0.0376 -0.3172
12595TIP3    H159276   4.625   2.256  13.782 -0.7299 -1.7253 -0.3111
12595TIP3    H259277   4.719   2.148  13.732  0.6712 -1.2720  1.2735
12596TIP3   OH259278   5.841   3.599   2.280  0.0589  0.1620  0.7214
12596TIP3    H159279   5.843   3.688   2.246  0.6930  0.5300  1.6592
12596TIP3    H259280   5.898   3.602   2.357 -0.7730 -0.7833  1.4064
12597TIP3   OH259281   4.556   1.037  14.194 -0.0496  0.4893 -0.1253
12597TIP3    H159282   4.473   1.016  14.152 -0.0115  0.3403 -0.1286
12597TIP3    H259283   4.623   1.008  14.132  0.0074  1.4991 -0.5528
12598TIP3   OH259284   4.765   5.500   0.012 -0.1452  0.0046 -0.0154
12598TIP3    H159285   4.741   5.582  -0.030 -1.2737 -1.1971 -1.8577
12598TIP3    H259286   4.688   5.476   0.063 -0.2798 -0.4815 -0.4385
12599TIP3   OH259287   1.254   0.763  10.642 -0.1539 -0.3616 -0.3571
12599TIP3    H159288   1.343   0.740  10.614  0.8150  1.7262  0.7423
12599TIP3    H259289   1.234   0.700  10.711  0.2906 -1.0871 -0.8680
12600TIP3   OH259290   4.414   2.144  14.425  0.0171 -0.0940 -0.6849
12600TIP3    H159291   4.337   2.200  14.437  0.3521 -0.1602  2.3350
12600TIP3    H259292   4.477   2.175  14.489  2.1649 -0.7570 -2.3571
12601TIP3   OH259293   3.162   3.687   1.007  0.0007  0.5659 -0.2272
12601TIP3    H159294   3.169   3.701   1.101 -0.7048  0.1197 -0.1054
12601TIP3    H259295   3.192   3.598   0.993  1.2578  1.0248 -0.5855
12602TIP3   OH259296   4.944   1.986  16.664  0.0955 -0.1734 -0.1130
12602TIP3    H159297   5.037   1.988  16.642  0.2139 -0.4716  0.3372
12602TIP3    H259298   4.943   1.976  16.759 -0.3998  0.3494 -0.0572
12603TIP3   OH259299   3.323   4.176   5.747 -0.2216  0.1912 -0.3317
12603TIP3    H159300   3.254   4.235   5.777 -0.7884 -0.5738 -0.0943
12603TIP3    H259301   3.388   4.177   5.818 -0.5655 -0.0084 -0.0106
12604TIP3   OH259302   3.423   3.134  11.555 -0.6144  0.1113  0.4351
12604TIP3    H159303   3.390   3.223  11.572  0.6343  0.4525  1.2000
12604TIP3    H259304   3.354   3.076  11.587 -1.5864  0.7858 -0.3514
12605TIP3   OH259305   6.162   4.247   0.747  0.0943  0.0994  0.0582
12605TIP3    H159306   6.224   4.304   0.701 -1.3875  1.5841 -0.2009
12605TIP3    H259307   6.134   4.298   0.823 -0.3524 -0.7898  0.4989
12606TIP3   OH259308   6.602   5.334   0.225  0.2044 -0.7862 -0.0428
12606TIP3    H159309   6.644   5.262   0.178 -1.0493 -0.7137 -1.3549
12606TIP3    H259310   6.555   5.382   0.157  0.2571  0.7263  0.9566
12607TIP3   OH259311   4.188   5.687   0.613 -0.3035 -0.0551 -0.7230
12607TIP3    H159312   4.218   5.618   0.672 -1.0984 -0.4081 -0.7239
12607TIP3    H259313   4.178   5.764   0.670  1.3316  0.2998 -0.8615
12608TIP3   OH259314   2.291   1.779   2.172 -0.2348 -0.4542 -0.1700
12608TIP3    H159315   2.341   1.812   2.098  0.3147 -0.6196  0.1210
12608TIP3    H259316   2.342   1.806   2.249 -1.1535  0.3295  0.1897
12609TIP3   OH259317   1.282   0.164   6.370 -0.3740  0.0278 -0.3281
12609TIP3    H159318   1.358   0.220   6.355  0.5637 -0.9059  0.6918
12609TIP3    H259319   1.238   0.203   6.445  1.5460 -1.7326  1.8701
12610TIP3   OH259320   4.218   0.225   4.475  0.1946  0.0921 -0.7073
12610TIP3    H159321   4.281   0.155   4.456  0.1735  0.0091 -0.4738
12610TIP3    H259322   4.137   0.197   4.433  0.4819  0.5079 -1.5651
12611TIP3   OH259323   0.323   3.528   5.719  0.4399  0.1727  0.8323
12611TIP3    H159324   0.255   3.473   5.757 -0.4849  0.2898 -0.5840
12611TIP3    H259325   0.386   3.466   5.682  0.6413  0.0718  1.3338
12612TIP3   OH259326   2.916   5.077  14.838 -0.4274  1.0019 -0.1227
12612TIP3    H159327   3.006   5.072  14.804 -0.1647 -0.6987  0.7005
12612TIP3    H259328   2.889   5.167  14.822  1.1008  1.3079 -1.2120
12613TIP3   OH259329   2.426   2.990  15.312 -0.3473  0.2096  0.2846
12613TIP3    H159330   2.332   2.975  15.326 -0.6277  0.3046 -1.2897
12613TIP3    H259331   2.452   2.919  15.252 -0.0313  1.6761 -1.3922
12614TIP3   OH259332   1.596   3.933  16.000 -0.6700 -0.2382  0.5068
12614TIP3    H159333   1.508   3.966  15.981  0.0973  1.3255 -0.4883
12614TIP3    H259334   1.634   3.998  16.060 -1.1374 -2.3585  3.3310
12615TIP3   OH259335   5.171   2.967  15.661  0.6141  0.3654  0.0598
12615TIP3    H159336   5.257   2.949  15.623 -0.0507 -1.9087 -0.5484
12615TIP3    H259337   5.180   2.944  15.753  0.7630  0.5355  0.0885
12616TIP3   OH259338   3.986   2.467   3.759  0.6367  0.1554  0.2144
12616TIP3    H159339   3.912   2.493   3.814  0.0133 -0.2920 -0.3890
12616TIP3    H259340   4.040   2.545   3.752 -0.4006  0.8508 -0.3158
12617TIP3   OH259341   3.163   0.391   2.558 -0.5945  0.1751 -0.4707
12617TIP3    H159342   3.198   0.475   2.586 -0.1686 -0.0355 -0.3539
12617TIP3    H259343   3.195   0.329   2.623 -1.1509 -0.0340 -0.3898
12618TIP3   OH259344   3.127   4.512   1.449  0.0508 -0.0188  0.2792
12618TIP3    H159345   3.038   4.482   1.467 -0.7315  1.0731 -1.5052
12618TIP3    H259346   3.123   4.606   1.461  1.5305 -0.1308  2.1412
12619TIP3   OH259347   2.550   4.273   2.882  0.2809  0.1733 -0.0431
12619TIP3    H159348   2.590   4.211   2.820 -1.4204 -1.1308  0.0986
12619TIP3    H259349   2.610   4.274   2.956  0.6714 -0.8336 -0.3202
12620TIP3   OH259350   3.082   5.580   4.594  0.0569  0.2851  0.1527
12620TIP3    H159351   3.065   5.566   4.501  0.3264  0.2461  0.1062
12620TIP3    H259352   3.134   5.504   4.621  0.3176  0.4873  0.2369
12621TIP3   OH259353   3.713   6.249  15.256 -0.1793  0.4554  0.2152
12621TIP3    H159354   3.638   6.203  15.294 -0.5359  2.0144  1.5373
12621TIP3    H259355   3.675   6.326  15.214  0.5609  0.5556 -0.2851
12622TIP3   OH259356   0.472   3.328   1.277 -0.5104 -0.2595  0.4067
12622TIP3    H159357   0.520   3.251   1.248 -0.2840  0.2420 -0.5881
12622TIP3    H259358   0.534   3.378   1.330 -0.3080 -0.2101  0.1226
12623TIP3   OH259359   0.463   0.902   1.906 -0.1175 -0.7568  0.1732
12623TIP3    H159360   0.520   0.947   1.969 -0.6967  0.5422 -0.1942
12623TIP3    H259361   0.417   0.836   1.958 -2.0010  1.5012  1.6317
12624TIP3   OH259362   1.580   1.262   1.486  0.1186  0.1525  0.1718
12624TIP3    H159363   1.505   1.232   1.537  0.9645 -2.0816  0.2053
12624TIP3    H259364   1.541   1.312   1.413 -1.2423  0.8146  1.3018
12625TIP3   OH259365   6.859   5.679   1.722  0.1522 -0.3926  0.1065
12625TIP3    H159366   6.804   5.717   1.653 -0.4109  0.6092  1.0641
12625TIP3    H259367   6.805   5.611   1.762  1.1472 -2.2806 -1.5823
12626TIP3   OH259368   4.781   1.992  13.623 -0.5189  0.1948 -0.4088
12626TIP3    H159369   4.754   2.050  13.552 -0.9278 -0.5994 -0.9189
12626TIP3    H259370   4.876   1.985  13.613 -0.5585  0.1919 -0.7957
12627TIP3   OH259371   2.075   4.828   0.697 -0.1268  0.1573 -1.7403
12627TIP3    H159372   2.054   4.874   0.615  0.6835  0.3883 -1.8297
12627TIP3    H259373   2.143   4.882   0.738 -2.9317  1.9874  0.8493
12628TIP3   OH259374   2.731   6.099   1.782 -0.8781 -0.1182 -0.1190
12628TIP3    H159375   2.813   6.127   1.823  0.8866 -1.0456 -2.8033
12628TIP3    H259376   2.745   6.112   1.688 -3.8781 -0.1991 -0.6594
12629TIP3   OH259377   5.079   6.006  16.275 -0.5655  0.4768 -0.6642
12629TIP3    H159378   5.022   5.986  16.201 -0.4976  1.2414 -0.9259
12629TIP3    H259379   5.123   6.087  16.251 -1.4274  1.3870  0.7220
12630TIP3   OH259380   5.069   3.811   3.754  0.4308 -0.4033 -0.0900
12630TIP3    H159381   4.973   3.807   3.752  0.1095  1.4706  3.1375
12630TIP3    H259382   5.092   3.872   3.684 -1.0556  1.1140  0.6442
12631TIP3   OH259383   0.588   1.777  11.193  0.3532  0.1563 -0.1098
12631TIP3    H159384   0.501   1.737  11.197  0.6615 -0.6407 -1.0163
12631TIP3    H259385   0.587   1.844  11.262 -0.8991  0.0160  0.0295
12632TIP3   OH259386   0.719   3.950  10.596 -0.4276 -0.0017 -0.1202
12632TIP3    H159387   0.760   3.934  10.511 -0.7904 -0.1274 -0.2722
12632TIP3    H259388   0.641   4.001  10.576 -1.5668 -1.6620 -0.0713
12633TIP3   OH259389   4.810   1.169  13.155  0.4089  0.1065  0.1754
12633TIP3    H159390   4.821   1.260  13.183  0.6965  0.5835 -1.4132
12633TIP3    H259391   4.800   1.173  13.060 -2.0616 -1.3148  0.2709
12634TIP3   OH259392   6.091   1.598  11.128 -0.6821  0.5210  0.3820
12634TIP3    H159393   6.024   1.588  11.195 -1.1884 -0.8055 -0.2839
12634TIP3    H259394   6.044   1.630  11.051 -0.2986  0.9523  0.3192
12635TIP3   OH259395   1.284   4.813   5.013  0.2254  0.1205  0.2669
12635TIP3    H159396   1.328   4.731   5.035  0.0593  0.3864  1.6278
12635TIP3    H259397   1.210   4.819   5.073 -0.1436  0.9688 -0.2398
12636TIP3   OH259398   1.207   1.959  16.530  0.5320  0.0683  0.0973
12636TIP3    H159399   1.180   1.868  16.522 -0.1158  0.2167  0.4622
12636TIP3    H259400   1.125   2.007  16.545  0.9462  0.6145  0.6906
12637TIP3   OH259401   6.356   5.204  14.785  0.1943 -0.5146  0.5929
12637TIP3    H159402   6.356   5.166  14.697 -2.1847 -1.8456  1.1137
12637TIP3    H259403   6.425   5.156  14.832  0.8137 -0.4656 -0.2444
12638TIP3   OH259404   6.700   1.475  16.835 -0.1795 -0.0552 -0.0308
12638TIP3    H159405   6.633   1.543  16.840 -0.6450 -0.4094 -1.2333
12638TIP3    H259406   6.753   1.489  16.914 -1.5358  0.3406  0.8487
12639TIP3   OH259407   1.587   4.056   4.612 -0.5655  1.3843  0.2394
12639TIP3    H159408   1.610   4.141   4.651 -0.5080  1.4627  0.0346
12639TIP3    H259409   1.591   4.071   4.518 -0.1437  1.0402  0.2043
12640TIP3   OH259410   3.259   4.988  15.849 -0.4931  0.5736  0.3037
12640TIP3    H159411   3.181   5.038  15.826 -2.2928 -1.5672  1.3323
12640TIP3    H259412   3.255   4.979  15.944  0.2550 -0.7044  0.2483
12641TIP3   OH259413   6.079   6.745  14.402  0.4923  0.5789 -0.1565
12641TIP3    H159414   6.036   6.667  14.369  0.2365  0.4359  0.4971
12641TIP3    H259415   6.022   6.776  14.472  0.4140  1.5504 -0.6379
12642TIP3   OH259416   5.607   1.961  13.572 -0.2203  0.5511 -0.7219
12642TIP3    H159417   5.630   1.991  13.659 -2.4317 -1.0811  0.5493
12642TIP3    H259418   5.611   2.039  13.517  0.0345  1.8760  1.1040
12643TIP3   OH259419   1.414   4.789   2.455 -0.1013 -0.0473  0.1270
12643TIP3    H159420   1.363   4.728   2.507  0.6184  0.3585  1.3514
12643TIP3    H259421   1.349   4.843   2.410 -0.7391 -1.4675 -0.7223
12644TIP3   OH259422   5.491   5.317  14.455  0.0753  0.1904 -0.0156
12644TIP3    H159423   5.421   5.261  14.488  0.6756 -1.9772 -2.1841
12644TIP3    H259424   5.570   5.282  14.494  0.5603 -1.1731 -2.0662
12645TIP3   OH259425   5.220   4.999   5.110  0.2660  0.4700  0.0204
12645TIP3    H159426   5.268   5.057   5.169  2.1064 -0.6562 -0.2648
12645TIP3    H259427   5.288   4.941   5.073 -1.1070 -0.1622 -1.6685
12646TIP3   OH259428   1.230   5.480   3.270  0.0115  0.1045  0.1917
12646TIP3    H159429   1.273   5.459   3.353  0.5216  0.8175  0.1190
12646TIP3    H259430   1.279   5.555   3.236  0.1546 -0.5139 -1.0213
12647TIP3   OH259431   1.051   2.518   5.696 -0.1776 -0.1816  0.4211
12647TIP3    H159432   1.119   2.575   5.733  1.7017  0.1906 -3.1693
12647TIP3    H259433   1.025   2.562   5.615 -2.5267 -1.9015  0.1552
12648TIP3   OH259434   4.021   0.116   2.032  0.1506 -0.1889 -0.4637
12648TIP3    H159435   4.088   0.109   1.964 -0.9810  0.2393 -1.6583
12648TIP3    H259436   4.061   0.170   2.100  2.1367 -2.4435  0.2929
12649TIP3   OH259437   4.340   4.946   5.070  0.0659 -0.6247 -0.2227
12649TIP3    H159438   4.292   4.999   5.133 -0.7662  0.1451 -1.4522
12649TIP3    H259439   4.418   4.998   5.049  0.4596 -0.9861  0.3364
12650TIP3   OH259440   4.582   2.189  15.306 -0.3756 -0.0705 -0.2623
12650TIP3    H159441   4.582   2.214  15.213  1.4334  1.3611  0.0508
12650TIP3    H259442   4.552   2.268  15.351  2.3735  0.6073  0.5637
12651TIP3   OH259443   0.036   5.316   5.062 -0.1287  0.2254 -0.1692
12651TIP3    H159444   0.064   5.405   5.080 -0.0319  0.3133 -0.7134
12651TIP3    H259445  -0.050   5.308   5.103  0.3142  0.2280  0.7813
12652TIP3   OH259446   3.965   2.857  11.685  0.4330  0.2537  0.0814
12652TIP3    H159447   4.002   2.945  11.689 -1.1429  0.9151  1.4533
12652TIP3    H259448   3.923   2.853  11.599  1.9326  0.1964 -0.6750
12653TIP3   OH259449   6.548   5.378  11.545 -0.3536 -0.6761 -0.2742
12653TIP3    H159450   6.553   5.369  11.450  1.9855  0.2473 -0.2946
12653TIP3    H259451   6.623   5.432  11.568  0.2171 -2.4117  2.2952
12654TIP3   OH259452   1.676   1.358   0.612  0.2990 -0.7150  0.1191
12654TIP3    H159453   1.604   1.334   0.553  1.9334  1.1632 -2.9221
12654TIP3    H259454   1.735   1.283   0.610  1.1087 -0.0921 -2.0887
12655TIP3   OH259455   1.770   1.966   2.188 -0.6567 -0.2309  0.5823
12655TIP3    H159456   1.720   1.986   2.109 -0.3183  0.2838  0.4959
12655TIP3    H259457   1.746   1.875   2.209 -1.3626 -0.1041  0.3524
12656TIP3   OH259458   3.009   6.304  15.729  0.2921  0.4241 -0.2487
12656TIP3    H159459   3.061   6.233  15.766  1.7098  2.4657  2.0762
12656TIP3    H259460   3.070   6.352  15.673  0.7716  2.2121  1.6439
12657TIP3   OH259461   0.628   1.288  13.784 -0.2504 -0.1112 -0.4079
12657TIP3    H159462   0.593   1.364  13.830  1.1290 -0.0746  0.6438
12657TIP3    H259463   0.576   1.283  13.703 -2.2771  0.2388  0.7892
12658TIP3   OH259464   0.200   1.225  16.921 -0.2416 -0.3010  0.2400
12658TIP3    H159465   0.138   1.188  16.983 -0.1876 -0.9039 -0.0561
12658TIP3    H259466   0.161   1.209  16.835 -0.1341  0.1845  0.0955
12659TIP3   OH259467   1.116   0.922  16.229 -0.0880  0.1895 -0.6713
12659TIP3    H159468   1.049   0.861  16.198  0.0333  0.3824 -1.3182
12659TIP3    H259469   1.199   0.878  16.213 -0.0278  0.2482 -0.5252
12660TIP3   OH259470   2.868   4.777  16.969  0.0324 -0.6696  0.2625
12660TIP3    H159471   2.885   4.865  16.936 -0.0563 -0.9370 -0.5109
12660TIP3    H259472   2.798   4.788  17.033 -0.6655 -0.3129 -0.5493
12661TIP3   OH259473   4.620   4.412  11.805  0.4164 -0.6249 -0.5078
12661TIP3    H159474   4.693   4.472  11.822 -0.4425 -0.0538  1.5501
12661TIP3    H259475   4.603   4.421  11.711  0.5125  2.2121 -0.3623
12662TIP3   OH259476   1.736   4.035  16.850  0.1983 -0.1179  0.7211
12662TIP3    H159477   1.671   4.105  16.839 -0.2835 -0.8748 -1.8750
12662TIP3    H259478   1.808   4.077  16.896  0.0154  2.1921 -0.9154
12663TIP3   OH259479   3.089   5.108  15.642  0.1376 -0.2521 -0.4188
12663TIP3    H159480   3.008   5.117  15.591 -0.8170 -0.1446  1.0657
12663TIP3    H259481   3.103   5.194  15.680  0.7634 -0.3674 -0.3823
12664TIP3   OH259482   1.560   4.471   2.729 -0.2152  0.4099 -0.2482
12664TIP3    H159483   1.594   4.542   2.675  1.1029 -0.2657 -0.3309
12664TIP3    H259484   1.501   4.515   2.791 -1.0274  1.3010 -1.5956
12665TIP3   OH259485   3.686   3.214  15.913 -0.3623 -0.2064 -0.3086
12665TIP3    H159486   3.723   3.174  15.835 -0.5089  1.5474 -1.3295
12665TIP3    H259487   3.700   3.149  15.982  1.6314 -0.9607 -1.3339
12666TIP3   OH259488   2.913   2.837   2.815  0.1801 -0.1393  0.3176
12666TIP3    H159489   2.906   2.844   2.720  1.3439 -1.7435  0.0827
12666TIP3    H259490   2.949   2.750   2.831  0.2390  0.1829  2.2248
12667TIP3   OH259491   1.090   2.122   4.789 -0.0429 -0.1619 -0.0747
12667TIP3    H159492   1.172   2.169   4.774 -0.2278  0.4548  0.7674
12667TIP3    H259493   1.094   2.094   4.880 -0.3303 -1.0218 -0.3185
12668TIP3   OH259494   4.707   2.978   5.179  0.0911  0.3880 -0.2214
12668TIP3    H159495   4.756   3.008   5.255  1.2147 -0.9608 -0.3631
12668TIP3    H259496   4.662   3.056   5.146  1.7830  1.5852  0.2059
12669TIP3   OH259497   5.014   4.515   5.319 -0.4564  0.1683 -0.2479
12669TIP3    H159498   5.032   4.473   5.235  1.1478 -0.0591  0.1866
12669TIP3    H259499   4.919   4.526   5.320 -0.7081 -1.6460 -1.2135
12670TIP3   OH259500   6.166   2.687   1.818 -0.1631 -0.6944  0.1888
12670TIP3    H159501   6.181   2.781   1.822 -0.0547 -0.6734 -0.5631
12670TIP3    H259502   6.104   2.670   1.889  0.1498 -0.1266  0.6037
12671TIP3   OH259503   1.316   6.345  13.076  0.4595  0.3297  0.1965
12671TIP3    H159504   1.226   6.317  13.059  0.6206 -0.9222  1.2670
12671TIP3    H259505   1.321   6.432  13.037 -1.2600  0.5047  0.2719
12672TIP3   OH259506   4.790   0.400   4.496  0.1123  0.4801 -0.5578
12672TIP3    H159507   4.843   0.425   4.420  1.0543  2.2080  0.6238
12672TIP3    H259508   4.703   0.383   4.459  0.2220  2.4949 -1.8951
12673TIP3   OH259509   3.779   2.964  12.427  0.1952 -0.0137  0.1802
12673TIP3    H159510   3.688   2.943  12.449  0.3061 -0.8717 -0.1171
12673TIP3    H259511   3.773   3.020  12.349 -0.1070  0.8193  0.7966
12674TIP3   OH259512   4.612   4.991   2.415 -0.4696  0.4343  0.3512
12674TIP3    H159513   4.544   5.057   2.399 -0.0198  0.8828  0.2671
12674TIP3    H259514   4.564   4.915   2.449 -1.2053  0.2269 -1.0652
12675TIP3   OH259515   3.646   5.596  14.272  0.1664 -0.2963 -0.4452
12675TIP3    H159516   3.685   5.601  14.185 -1.2733 -0.0134 -1.0958
12675TIP3    H259517   3.685   5.669  14.320  1.5113 -0.8850 -0.6054
12676TIP3   OH259518   2.167   1.755   0.458  0.9275 -0.0759 -0.0014
12676TIP3    H159519   2.231   1.825   0.450 -2.4862  3.1370 -2.3371
12676TIP3    H259520   2.087   1.790   0.419 -1.9192 -4.3015  1.2900
12677TIP3   OH259521   6.566   2.450  12.658  0.3822 -0.1145 -0.6693
12677TIP3    H159522   6.626   2.442  12.584  2.4088 -1.9225  1.0082
12677TIP3    H259523   6.589   2.534  12.698 -0.1330  0.4684 -1.5658
12678TIP3   OH259524   1.692   3.935  12.091 -0.0434  0.7885  0.3731
12678TIP3    H159525   1.754   3.968  12.155  1.5039  0.5623 -0.9271
12678TIP3    H259526   1.678   3.844  12.116 -1.2011  1.2730  1.6328
12679TIP3   OH259527   4.383   3.907   4.498 -0.0145  0.4803  0.2740
12679TIP3    H159528   4.336   3.882   4.419  1.2273 -1.8907  0.2105
12679TIP3    H259529   4.322   3.966   4.544 -2.0195 -0.5239 -0.9450
12680TIP3   OH259530   1.118   1.781  16.978 -0.1126  0.2537 -0.0674
12680TIP3    H159531   1.135   1.776  17.072  1.0090  0.2483 -0.2505
12680TIP3    H259532   1.036   1.829  16.971  0.7527  1.9823  0.8672
12681TIP3   OH259533   2.337   1.852  12.135 -0.4359 -0.0246 -0.5001
12681TIP3    H159534   2.277   1.897  12.075 -1.9974 -1.5803 -0.1769
12681TIP3    H259535   2.360   1.919  12.200 -0.2596  1.1370 -1.7240
12682TIP3   OH259536   0.177   1.150  12.648 -1.0864 -0.1406  0.3670
12682TIP3    H159537   0.154   1.179  12.560  0.7366  1.6864  0.4184
12682TIP3    H259538   0.250   1.206  12.674  1.8386 -3.8506  1.0704
12683TIP3   OH259539   6.727   0.309  14.377  0.0571  0.0543 -0.5104
12683TIP3    H159540   6.665   0.335  14.309 -1.2343  0.5011  0.7705
12683TIP3    H259541   6.789   0.381  14.383 -2.4260  2.2275  1.7514
12684TIP3   OH259542   1.520   3.183  13.447  0.2478 -0.2607  0.1907
12684TIP3    H159543   1.563   3.266  13.429  0.5769 -0.1912  1.2899
12684TIP3    H259544   1.427   3.201  13.431  0.3034  0.3432  0.5341
12685TIP3   OH259545   0.395   4.428   0.470  0.2925  0.3363 -0.0148
12685TIP3    H159546   0.443   4.366   0.416  0.0572 -0.0686  0.2364
12685TIP3    H259547   0.305   4.423   0.437  0.2966  0.6390 -0.0764
12686TIP3   OH259548   2.767   0.271  16.834  0.4071  0.1654 -0.5274
12686TIP3    H159549   2.674   0.292  16.847  0.3651  0.0300 -0.6072
12686TIP3    H259550   2.801   0.345  16.785  0.6793  0.9215  0.7533
12687TIP3   OH259551   5.641   1.940  16.327  0.1989 -0.3283 -0.1229
12687TIP3    H159552   5.687   1.872  16.377 -0.4900  0.2735  1.3869
12687TIP3    H259553   5.549   1.930  16.354 -0.2524 -0.1916 -1.5450
12688TIP3   OH259554   0.481   0.591   4.458 -0.0050 -0.0961  0.1644
12688TIP3    H159555   0.483   0.650   4.533 -1.2965  0.9311 -0.5538
12688TIP3    H259556   0.424   0.519   4.485  0.4174 -0.2850  0.5472
12689TIP3   OH259557   6.766   0.965   5.706 -0.3232  0.3119  0.2107
12689TIP3    H159558   6.693   0.973   5.645 -1.9687 -1.2931  1.8440
12689TIP3    H259559   6.768   1.048   5.754  1.3710  1.8356 -2.2826
12690TIP3   OH259560   3.170   6.267  11.788 -0.1510 -0.2837 -0.0513
12690TIP3    H159561   3.109   6.231  11.852  1.2182 -1.8167  0.4520
12690TIP3    H259562   3.162   6.362  11.797 -1.8552 -0.4526  0.5414
12691TIP3   OH259563   5.690   5.619  14.768 -0.5396 -0.0956  0.3412
12691TIP3    H159564   5.740   5.555  14.817 -1.1615  0.4150  1.7080
12691TIP3    H259565   5.599   5.593  14.780 -0.7250  0.2558 -0.2468
12692TIP3   OH259566   3.117   4.080   2.376  0.3341 -0.3618 -0.1261
12692TIP3    H159567   3.146   4.166   2.407  1.3314  0.0319 -2.0070
12692TIP3    H259568   3.132   4.082   2.282 -0.2170 -2.3855 -0.3061
12693TIP3   OH259569   0.965   6.185   0.337  0.4117 -0.3117  0.0781
12693TIP3    H159570   1.040   6.241   0.356  0.9749 -1.3273  0.9397
12693TIP3    H259571   0.966   6.176   0.241 -0.0961  1.6495 -0.1527
12694TIP3   OH259572   5.704   0.639   0.029 -0.0533 -0.0803 -0.7115
12694TIP3    H159573   5.669   0.588  -0.044  0.1223  0.4476 -1.1720
12694TIP3    H259574   5.730   0.723  -0.010  0.2678  0.1198 -0.0877
12695TIP3   OH259575   5.807   4.432   6.358  0.0723  0.0013  0.4060
12695TIP3    H159576   5.714   4.435   6.337 -0.6395  0.8221  3.2728
12695TIP3    H259577   5.850   4.474   6.283 -1.8014 -0.4784 -1.0185
12696TIP3   OH259578   5.889   4.586  12.735  1.0682 -0.4792 -0.4188
12696TIP3    H159579   5.953   4.656  12.727  1.5962 -1.0625 -1.5267
12696TIP3    H259580   5.908   4.528  12.662 -2.3629  0.6650 -2.4632
12697TIP3   OH259581   6.789   2.771   2.358  0.1561  0.8758 -0.5805
12697TIP3    H159582   6.728   2.828   2.405 -0.4194 -0.2899  0.1266
12697TIP3    H259583   6.733   2.709   2.311  0.7638  1.0989 -1.6504
12698TIP3   OH259584   0.580   5.793  16.982 -0.4595  0.1182  0.8491
12698TIP3    H159585   0.630   5.752  16.911  1.5422  1.8180  1.1674
12698TIP3    H259586   0.553   5.719  17.037  1.1590 -0.9776  0.2862
12699TIP3   OH259587   4.185   3.733  16.045  0.2011  0.0767  0.1761
12699TIP3    H159588   4.236   3.697  16.118 -0.9264  2.8039  2.5184
12699TIP3    H259589   4.188   3.828  16.058 -1.0395  0.6306 -2.7274
12700TIP3   OH259590   1.466   0.669  15.946 -0.2535 -0.0181 -0.2498
12700TIP3    H159591   1.396   0.607  15.966 -0.1488  0.3021  1.2890
12700TIP3    H259592   1.435   0.718  15.870 -1.3007 -0.4813 -0.1338
12701TIP3   OH259593   5.417   2.842  15.633 -0.2885 -0.1125 -0.7211
12701TIP3    H159594   5.444   2.929  15.604 -0.2675 -0.3429 -1.4027
12701TIP3    H259595   5.451   2.782  15.566 -0.6043 -0.6137 -0.4431
12702TIP3   OH259596   0.960   4.867   3.122 -0.4145  0.4179 -0.0922
12702TIP3    H159597   0.887   4.848   3.064  0.2737 -0.1720 -0.7842
12702TIP3    H259598   1.010   4.786   3.125  1.0058  1.2335 -0.8032
12703TIP3   OH259599   4.458   5.052  12.613 -0.1132  0.1646 -0.5193
12703TIP3    H159600   4.513   5.059  12.691 -1.8366 -0.5324  0.8142
12703TIP3    H259601   4.417   5.138  12.604 -2.0492 -0.5126  1.0639
12704TIP3   OH259602   2.377   5.246  16.209  0.7692  0.0788  0.7329
12704TIP3    H159603   2.411   5.334  16.196  0.4532 -0.1468 -2.5893
12704TIP3    H259604   2.373   5.209  16.121 -0.4246 -2.7773  1.8621
12705TIP3   OH259605   3.853   3.728   1.273 -0.0502 -0.2551 -0.1306
12705TIP3    H159606   3.801   3.784   1.331 -1.4689 -1.4747 -0.1618
12705TIP3    H259607   3.795   3.708   1.200  1.3275  0.3228 -1.4236
12706TIP3   OH259608   5.277   0.558   4.504 -0.1069  0.4605 -0.2034
12706TIP3    H159609   5.195   0.568   4.553 -0.3476  1.1444 -0.7197
12706TIP3    H259610   5.283   0.638   4.451  1.0423  0.5667  0.0431
12707TIP3   OH259611   4.530   0.927  12.533  0.3515  0.0616 -0.3801
12707TIP3    H159612   4.527   0.982  12.455  0.6724 -1.9902 -1.9125
12707TIP3    H259613   4.479   0.849  12.510  2.4638 -1.6962  0.5225
12708TIP3   OH259614   5.994   6.368   3.368  0.4219  0.2708  0.1907
12708TIP3    H159615   6.039   6.289   3.398 -1.2313  0.0026  2.2320
12708TIP3    H259616   6.049   6.440   3.398  1.5791 -0.0535 -1.0665
12709TIP3   OH259617   2.910   5.817   1.018  0.5691  0.2269  0.0342
12709TIP3    H159618   2.984   5.867   0.983  1.2206 -1.9673 -2.0129
12709TIP3    H259619   2.836   5.842   0.962  1.1656 -1.8322 -1.7980
12710TIP3   OH259620   5.832   1.850  15.966 -0.2967  0.2359 -0.5686
12710TIP3    H159621   5.781   1.904  16.026 -0.4613 -0.7787  0.2529
12710TIP3    H259622   5.920   1.887  15.969 -0.5486  0.8273 -0.4979
12711TIP3   OH259623   1.445   4.673   2.918 -0.4096 -0.0565 -0.2923
12711TIP3    H159624   1.483   4.738   2.858  0.1414 -1.3336 -1.3805
12711TIP3    H259625   1.452   4.714   3.004  2.6310  0.2163 -0.5328
12712TIP3   OH259626   0.023   4.774   0.891  0.2067  1.0897  0.6623
12712TIP3    H159627  -0.013   4.832   0.959 -3.3245  1.2420 -1.1071
12712TIP3    H259628  -0.024   4.691   0.904  1.0276  0.4552 -0.3142
12713TIP3   OH259629   3.305   4.161   4.635  0.0498  0.2008 -0.1465
12713TIP3    H159630   3.223   4.209   4.647  0.2070  0.1373  1.4588
12713TIP3    H259631   3.338   4.149   4.724 -0.0835 -3.0921 -0.4416
12714TIP3   OH259632   0.571   6.592   3.175 -0.1871 -0.2479 -0.0922
12714TIP3    H159633   0.519   6.625   3.103  0.1542 -0.9985 -0.6947
12714TIP3    H259634   0.507   6.556   3.237 -0.4624  0.1603 -0.1396
12715TIP3   OH259635   5.904   0.820   5.509  0.3816 -0.4754  0.1930
12715TIP3    H159636   5.935   0.730   5.524  2.3128  0.3555  1.6069
12715TIP3    H259637   5.873   0.849   5.594 -1.1218 -0.0841 -0.4662
12716TIP3   OH259638   5.285   0.010  15.885  0.7892 -0.4580  0.2108
12716TIP3    H159639   5.326   0.046  15.806 -1.4013  2.2000  0.1435
12716TIP3    H259640   5.352   0.016  15.952  1.4725  0.9536 -0.5566
12717TIP3   OH259641   5.990   1.747  15.215 -0.2972  0.0913  0.7704
12717TIP3    H159642   6.068   1.793  15.248  1.9706 -2.5422 -0.5113
12717TIP3    H259643   5.977   1.676  15.277 -0.6432 -0.4775  0.0513
12718TIP3   OH259644   1.406   0.223   5.261  0.9196  0.3921  0.0551
12718TIP3    H159645   1.464   0.276   5.316  1.0845 -0.2821  0.5439
12718TIP3    H259646   1.335   0.282   5.237  0.3173  0.4405  1.8235
12719TIP3   OH259647   5.433   4.935  14.733  0.1251  0.2622 -0.7152
12719TIP3    H159648   5.511   4.974  14.693  0.5937 -0.6026 -0.6691
12719TIP3    H259649   5.459   4.845  14.753 -0.9287 -0.0798 -0.8281
12720TIP3   OH259650   3.390   1.327   1.949 -0.3608 -0.3253  0.5430
12720TIP3    H159651   3.421   1.331   2.039  0.1438 -0.7487  0.3870
12720TIP3    H259652   3.299   1.297   1.956 -1.7063  3.2895  1.2041
12721TIP3   OH259653   4.924   5.617  14.731  0.0706  0.1613 -0.3793
12721TIP3    H159654   4.954   5.545  14.676  1.6261 -0.4814  1.2277
12721TIP3    H259655   4.836   5.592  14.757 -0.7593  0.5459 -2.6306
12722TIP3   OH259656   6.254   4.777   6.397  0.5051 -0.4650  0.1287
12722TIP3    H159657   6.230   4.862   6.360  2.1844  0.0687  0.1841
12722TIP3    H259658   6.339   4.791   6.437  0.1042 -1.7901  1.5776
12723TIP3   OH259659   2.206   6.297  12.985  0.1876  0.1148  0.1980
12723TIP3    H159660   2.160   6.264  13.062 -1.7409 -0.3961 -1.1059
12723TIP3    H259661   2.246   6.378  13.014  0.5896 -0.7131  2.0714
12724TIP3   OH259662   2.667   6.648  14.733 -0.4985  0.8304  0.2716
12724TIP3    H159663   2.625   6.660  14.818 -2.3427 -0.7977 -0.3221
12724TIP3    H259664   2.760   6.639  14.754 -0.9859 -0.4286  2.2585
12725TIP3   OH259665   1.503   1.801   3.841 -0.2241 -0.0131  0.0149
12725TIP3    H159666   1.567   1.844   3.784  0.2942  1.3598  1.5215
12725TIP3    H259667   1.419   1.815   3.798  0.2782 -0.0843 -1.0095
12726TIP3   OH259668   0.890   0.809   5.088  0.6763  0.3594  0.5884
12726TIP3    H159669   0.846   0.724   5.089 -1.3213  1.3359  1.5856
12726TIP3    H259670   0.864   0.847   5.004  0.7997  0.3569  0.5495
12727TIP3   OH259671   6.364   0.826   4.955  0.7681 -0.0721  0.3836
12727TIP3    H159672   6.359   0.761   4.885 -0.4164  0.2689  0.1260
12727TIP3    H259673   6.368   0.910   4.909  1.7371  0.0680  0.7163
12728TIP3   OH259674   4.231   0.745   0.011  0.0096 -0.4021  0.5960
12728TIP3    H159675   4.244   0.651   0.002 -2.4307 -0.6457 -1.4632
12728TIP3    H259676   4.208   0.775  -0.077 -1.3338  1.7531  1.5769
12729TIP3   OH259677   0.521   4.158  16.900 -0.3431  0.2639  0.1036
12729TIP3    H159678   0.456   4.110  16.951  0.3022 -0.9951 -0.2145
12729TIP3    H259679   0.574   4.203  16.966  0.1076 -0.8628  0.5499
12730TIP3   OH259680   4.726   6.156   3.508 -0.0809  0.2177  0.3960
12730TIP3    H159681   4.726   6.250   3.527 -1.1503  0.0661  1.2146
12730TIP3    H259682   4.647   6.123   3.551  0.2501 -1.0465  0.0585
12731TIP3   OH259683   4.470   4.259  16.701  0.4874  0.3153 -0.1503
12731TIP3    H159684   4.381   4.291  16.715 -0.1521 -1.1688 -0.6615
12731TIP3    H259685   4.526   4.333  16.725 -0.8880  1.4500 -0.3199
12732TIP3   OH259686   2.896   2.001  14.788 -0.0078  0.3389 -0.4227
12732TIP3    H159687   2.857   1.940  14.851 -0.3390 -0.0244 -0.9714
12732TIP3    H259688   2.824   2.023  14.728  0.8414 -1.1637 -2.0831
12733TIP3   OH259689   1.478   0.071   4.183  0.3208  0.1137 -0.7712
12733TIP3    H159690   1.540   0.025   4.127 -0.7792 -0.9129 -1.1835
12733TIP3    H259691   1.458   0.008   4.253 -1.8349 -0.4013 -1.7978
12734TIP3   OH259692   5.841   4.619   0.431 -0.4898 -0.0371  0.0666
12734TIP3    H159693   5.817   4.696   0.481 -0.0009 -0.3384  0.7794
12734TIP3    H259694   5.788   4.625   0.351  0.1023  1.4324 -0.2442
12735TIP3   OH259695   4.652   1.080   4.370  0.1253 -0.3645  0.0708
12735TIP3    H159696   4.677   1.086   4.463  0.2706  4.2246 -0.0644
12735TIP3    H259697   4.556   1.082   4.371  0.1366  1.6103  0.1511
12736TIP3   OH259698   5.946   2.918  11.724  0.0867  0.1789  0.1331
12736TIP3    H159699   5.865   2.941  11.678 -0.9675 -3.7435 -0.3584
12736TIP3    H259700   6.012   2.915  11.655 -0.2960 -0.5099 -0.2184
12737TIP3   OH259701   6.363   1.093   0.754 -0.1105  0.7806 -0.2008
12737TIP3    H159702   6.453   1.059   0.758 -0.1238  0.8332  0.7905
12737TIP3    H259703   6.371   1.186   0.776 -0.3161  0.9593 -0.8821
12738TIP3   OH259704   4.527   1.731  15.873  0.2173 -0.0694  0.3349
12738TIP3    H159705   4.432   1.742  15.882 -0.4002 -2.1638 -2.2343
12738TIP3    H259706   4.555   1.806  15.820 -0.7218 -1.2537 -1.9542
12739TIP3   OH259707   3.209   1.092   2.935  0.0328 -0.1370  0.0539
12739TIP3    H159708   3.167   1.110   3.018  0.0144 -1.8991  0.4663
12739TIP3    H259709   3.283   1.152   2.932  0.7991 -0.9104  1.9552
12740TIP3   OH259710   1.844   4.418  14.435  0.0588  0.0424  0.1255
12740TIP3    H159711   1.780   4.477  14.474  0.3219  0.5765 -0.2543
12740TIP3    H259712   1.889   4.379  14.510  0.1567  0.6245  0.3746
12741TIP3   OH259713   5.097   3.183  13.774 -0.6738  0.3675  0.3190
12741TIP3    H159714   5.025   3.205  13.833  0.1337 -1.3693  2.0529
12741TIP3    H259715   5.055   3.170  13.689 -1.7173  4.1903  0.0485
12742TIP3   OH259716   3.131   4.712   4.471  0.0151 -0.0617 -0.7431
12742TIP3    H159717   3.036   4.704   4.464 -0.0459  0.9632 -1.3885
12742TIP3    H259718   3.144   4.790   4.525  0.4683  0.1107 -1.0882
12743TIP3   OH259719   3.412   3.522  13.501  0.3099 -0.6045 -0.0947
12743TIP3    H159720   3.461   3.597  13.469  1.2047 -0.0478  2.3693
12743TIP3    H259721   3.476   3.469  13.548 -1.2314 -0.1028  2.8173
12744TIP3   OH259722   1.373   5.022   4.605  0.0318  0.4194 -0.1338
12744TIP3    H159723   1.309   5.085   4.637 -3.2764 -2.1183 -1.2119
12744TIP3    H259724   1.366   4.947   4.665 -0.0731 -0.9884 -1.8045
12745TIP3   OH259725   5.721   0.513  13.007  0.1200  0.0702  0.1327
12745TIP3    H159726   5.677   0.434  12.975  0.4594 -0.2869  0.5451
12745TIP3    H259727   5.807   0.482  13.036  0.5250  0.7069 -0.3662
12746TIP3   OH259728   1.920   0.339  15.627  0.0200 -0.2279  0.6358
12746TIP3    H159729   1.891   0.431  15.623  1.2409  0.1450 -1.0953
12746TIP3    H259730   1.891   0.308  15.712 -5.0020  0.1865 -0.6154
12747TIP3   OH259731   6.626   5.078  15.879  0.2352  0.1056 -0.6420
12747TIP3    H159732   6.670   5.116  15.803  2.3550  1.4483  1.1238
12747TIP3    H259733   6.651   4.986  15.878  1.5383  0.4436 -0.7461
12748TIP3   OH259734   2.906   0.734   4.034  0.0062  0.1631 -0.0953
12748TIP3    H159735   2.811   0.729   4.032  0.0691 -2.0548  0.5123
12748TIP3    H259736   2.926   0.781   4.115 -0.5533  1.2706 -0.5767
12749TIP3   OH259737   0.687   3.055   5.173 -0.9485 -0.4754 -0.2570
12749TIP3    H159738   0.593   3.070   5.184 -0.9269  0.6264 -1.4166
12749TIP3    H259739   0.728   3.136   5.204 -0.5392  0.0641 -2.1219
12750TIP3   OH259740   3.211   3.277  16.970 -0.0351  0.0692 -0.4853
12750TIP3    H159741   3.291   3.329  16.975  1.0861 -1.6200  0.1026
12750TIP3    H259742   3.208   3.247  16.879 -0.7274  1.1857 -0.8460
12751TIP3   OH259743   0.872   1.484  11.168  0.2179  0.3654  0.2892
12751TIP3    H159744   0.926   1.472  11.090 -0.9486  0.0917 -0.4997
12751TIP3    H259745   0.793   1.433  11.151 -0.5335  1.1893  1.1771
12752TIP3   OH259746   4.445   5.995  12.739 -0.1870  0.6154  0.5908
12752TIP3    H159747   4.421   6.077  12.696 -0.5273  0.8303  1.1815
12752TIP3    H259748   4.500   6.022  12.813  0.0340  0.2833  0.5488
12753TIP3   OH259749   5.735   1.873  12.855 -0.2032 -0.5777 -0.1108
12753TIP3    H159750   5.737   1.966  12.833  1.8240 -0.4635  0.3532
12753TIP3    H259751   5.658   1.863  12.910 -0.0296  0.9883  0.4733
12754TIP3   OH259752   1.456   6.440  12.228  0.0067  0.0685 -0.6064
12754TIP3    H159753   1.388   6.459  12.163  1.4357 -0.2973 -2.2979
12754TIP3    H259754   1.419   6.470  12.311 -1.4134  1.7691 -1.7638
12755TIP3   OH259755   6.316   2.682  13.401 -0.4312  0.2064 -0.1505
12755TIP3    H159756   6.288   2.596  13.432 -1.7326  1.0196  1.1045
12755TIP3    H259757   6.411   2.683  13.414 -0.3736 -1.1050 -0.3854
12756TIP3   OH259758   5.862   2.520   5.942 -0.5726 -0.4839 -0.9146
12756TIP3    H159759   5.937   2.469   5.971 -0.0811 -1.4232 -3.5465
12756TIP3    H259760   5.858   2.594   6.003  1.0800 -1.6051  0.6464
12757TIP3   OH259761   5.796   4.522  13.514  0.3952  0.0459 -0.2582
12757TIP3    H159762   5.794   4.480  13.600  1.6644 -0.7741 -0.6114
12757TIP3    H259763   5.833   4.609  13.531 -1.2898  0.6961  0.3148
12758TIP3   OH259764   1.373   3.332   2.494 -0.2165  0.1544 -0.3383
12758TIP3    H159765   1.439   3.354   2.429  1.4662  0.4799  1.4033
12758TIP3    H259766   1.291   3.332   2.445  0.8301  1.4220 -2.2343
12759TIP3   OH259767   1.070   2.801  16.866 -0.7972  0.6404  0.4430
12759TIP3    H159768   1.061   2.865  16.794  2.2093  0.3747 -0.3154
12759TIP3    H259769   1.070   2.716  16.822 -1.9992  0.2730  1.1365
12760TIP3   OH259770   5.584   1.495   6.094 -0.0401  0.6641 -1.0140
12760TIP3    H159771   5.603   1.569   6.151 -0.4273  0.4910 -0.6528
12760TIP3    H259772   5.490   1.502   6.076  0.2620  1.2749 -2.4336
12761TIP3   OH259773   5.091   5.293  11.908 -0.0709  0.1053 -0.1028
12761TIP3    H159774   5.116   5.204  11.884 -1.8997 -0.7665  1.0047
12761TIP3    H259775   5.063   5.333  11.825  2.3380  0.2921 -0.9183
12762TIP3   OH259776   1.397   3.840   6.004 -0.9486 -0.4354 -0.5826
12762TIP3    H159777   1.425   3.930   5.991  0.0976 -0.9191 -1.8888
12762TIP3    H259778   1.365   3.838   6.094  0.5547  0.8552  0.0336
12763TIP3   OH259779   2.290   3.813   5.645  0.1540 -0.1609 -0.0594
12763TIP3    H159780   2.354   3.883   5.642 -0.1344  0.1082  0.0711
12763TIP3    H259781   2.342   3.733   5.633  0.7557 -0.1057  1.8097
12764TIP3   OH259782   6.855   4.687   4.150  0.3114  0.5261 -0.3909
12764TIP3    H159783   6.884   4.705   4.240  2.0537  1.7426 -1.1391
12764TIP3    H259784   6.762   4.712   4.150 -0.6719 -2.4365  1.8099
12765TIP3   OH259785   0.626   3.992  15.524  0.3243  0.2490  0.3623
12765TIP3    H159786   0.555   3.930  15.538  1.2595 -0.7682  0.7114
12765TIP3    H259787   0.614   4.023  15.434 -1.0474  0.7554  0.6886
12766TIP3   OH259788   1.112   3.512  15.410  0.8010  0.4158 -0.6123
12766TIP3    H159789   1.062   3.432  15.397  1.3809  0.1627 -1.3182
12766TIP3    H259790   1.055   3.581  15.375 -0.5652  0.6108  1.7660
12767TIP3   OH259791   0.468   5.942   1.821  0.2550  0.3420  0.6935
12767TIP3    H159792   0.385   5.896   1.810  0.1357  0.3736  1.3853
12767TIP3    H259793   0.469   5.966   1.914  0.4482  1.4790  0.4074
12768TIP3   OH259794   3.314   3.070   5.481 -0.1658 -0.0158  0.2148
12768TIP3    H159795   3.265   3.074   5.398 -0.8332 -3.2650  0.3252
12768TIP3    H259796   3.384   3.008   5.464 -0.2308 -0.6362  2.0295
12769TIP3   OH259797   1.076   0.703   2.603 -0.1946  0.2784  0.3641
12769TIP3    H159798   1.128   0.646   2.546 -1.3626  1.7410 -2.3596
12769TIP3    H259799   1.106   0.792   2.581 -0.3810  0.9008  2.4446
12770TIP3   OH259800   6.317   3.093  11.687 -0.1592  0.0690  0.1679
12770TIP3    H159801   6.261   3.124  11.757 -0.0249  0.8062 -0.0481
12770TIP3    H259802   6.298   2.999  11.681 -1.3595  0.3026  0.0972
12771TIP3   OH259803   6.030   3.492  13.243 -0.3245  0.2047 -0.1480
12771TIP3    H159804   6.086   3.418  13.269 -1.1587  0.0794  1.3834
12771TIP3    H259805   6.065   3.519  13.158  1.3365 -0.6033  0.2301
12772TIP3   OH259806   1.498   1.525   0.088 -0.1716  0.0177  0.1336
12772TIP3    H159807   1.405   1.514   0.109 -0.3311 -0.2336 -0.6879
12772TIP3    H259808   1.533   1.436   0.086 -0.1684  0.0294 -0.6718
12773TIP3   OH259809   2.099   3.356  11.403 -0.5437  0.6043  0.0704
12773TIP3    H159810   2.163   3.302  11.449  0.5521  0.5366 -1.4804
12773TIP3    H259811   2.039   3.292  11.363 -1.3149  0.6584  1.0787
12774TIP3   OH259812   3.408   0.231  16.783  0.0080  0.0090 -0.3700
12774TIP3    H159813   3.416   0.138  16.760  1.7421 -0.3682  1.4901
12774TIP3    H259814   3.347   0.232  16.857  1.7690  0.0073  1.1491
12775TIP3   OH259815   6.042   1.391   1.948  0.0110  0.2437  0.2395
12775TIP3    H159816   6.130   1.364   1.920 -0.5768 -0.2209 -1.2602
12775TIP3    H259817   6.041   1.377   2.042  1.4137 -0.1254  0.2176
12776TIP3   OH259818   4.118   0.579  12.980 -0.5746 -0.3355  0.4971
12776TIP3    H159819   4.086   0.647  12.921 -0.8069 -0.7888  0.0896
12776TIP3    H259820   4.129   0.623  13.064  1.1124  0.6781 -0.1939
12777TIP3   OH259821   1.227   3.839  15.312 -0.4816  0.0865 -0.3252
12777TIP3    H159822   1.144   3.816  15.354 -0.2055  0.6997  0.5718
12777TIP3    H259823   1.293   3.786  15.357 -0.4809 -1.1483 -1.6969
12778TIP3   OH259824   4.631   2.663  12.531  0.4813 -0.5552 -1.0151
12778TIP3    H159825   4.603   2.593  12.471 -2.3043  0.1652 -0.6985
12778TIP3    H259826   4.591   2.640  12.615 -1.0485  1.6634 -1.0515
12779TIP3   OH259827   5.964   2.731   1.999 -0.2210  0.0595  0.3957
12779TIP3    H159828   5.922   2.814   1.978 -1.2695 -0.2066  1.3335
12779TIP3    H259829   5.909   2.665   1.956  0.0484 -0.2119  0.4616
12780TIP3   OH259830   1.484   0.550  10.267 -0.1010 -0.2520 -1.0259
12780TIP3    H159831   1.441   0.556  10.182 -1.0817 -0.2635 -0.5468
12780TIP3    H259832   1.412   0.538  10.329  0.5744  0.0844 -0.1593
12781TIP3   OH259833   5.532   3.707   1.058 -0.3673  0.4790 -0.3628
12781TIP3    H159834   5.581   3.746   0.986 -3.2272  2.5392 -1.3311
12781TIP3    H259835   5.501   3.623   1.024  0.4858  0.2360 -0.5598
12782TIP3   OH259836   3.246   0.995  11.619  0.3109  0.2003 -0.0707
12782TIP3    H159837   3.332   1.037  11.627  1.2899 -1.8873  1.5563
12782TIP3    H259838   3.266   0.901  11.614 -1.8968 -0.3726  0.6376
12783TIP3   OH259839   6.537   5.887  14.071  0.4188 -0.0033 -0.4020
12783TIP3    H159840   6.443   5.873  14.064  0.2204 -0.4279  2.1614
12783TIP3    H259841   6.547   5.979  14.095  0.6315 -0.0321 -0.3723
12784TIP3   OH259842   3.635   5.953  12.923  0.2880  0.4747  0.1337
12784TIP3    H159843   3.652   5.862  12.900 -0.7517  1.4786 -6.8693
12784TIP3    H259844   3.722   5.989  12.943  1.5053 -1.2207 -1.6838
12785TIP3   OH259845   2.420   5.011  11.535 -0.2378  0.8563  0.3221
12785TIP3    H159846   2.444   4.979  11.622  0.9010 -1.5729 -0.7913
12785TIP3    H259847   2.502   5.012  11.486 -1.3451 -1.8851 -1.8715
12786TIP3   OH259848   1.871   4.797   2.924 -0.2782  0.0121 -0.6540
12786TIP3    H159849   1.898   4.839   2.842 -1.8818  0.4560 -0.9919
12786TIP3    H259850   1.888   4.704   2.910  0.2210  0.1776 -1.1790
12787TIP3   OH259851   5.121   6.017   0.895 -0.1187 -0.4259  0.9530
12787TIP3    H159852   5.044   5.964   0.875 -0.5788  0.3538  0.6352
12787TIP3    H259853   5.093   6.074   0.967 -0.5275  1.3438 -0.5552
12788TIP3   OH259854   5.674   2.354   4.290 -0.0312  0.3150  0.3359
12788TIP3    H159855   5.737   2.338   4.219 -0.6059  3.1225 -0.9258
12788TIP3    H259856   5.727   2.388   4.362  0.2452 -0.3046  0.4396
12789TIP3   OH259857   0.489   5.824   2.695 -0.0288 -0.1217  0.2474
12789TIP3    H159858   0.435   5.758   2.652  0.4500  0.1026 -0.7192
12789TIP3    H259859   0.576   5.813   2.656  0.2718  0.4840  0.7338
12790TIP3   OH259860   3.645   5.037   2.131 -0.0744 -0.4357  0.3877
12790TIP3    H159861   3.575   4.972   2.133 -0.7377  0.2538 -0.0337
12790TIP3    H259862   3.647   5.073   2.219  1.3024 -2.0465  1.0708
12791TIP3   OH259863   3.627   0.073  12.613 -0.1820  0.4119  0.2662
12791TIP3    H159864   3.639  -0.015  12.578 -0.1167 -0.0252  1.3242
12791TIP3    H259865   3.536   0.094  12.594 -0.2232  0.0733  0.0817
12792TIP3   OH259866   5.243   6.839   5.398 -0.2388  0.4771  0.4584
12792TIP3    H159867   5.251   6.866   5.307  1.4722 -0.6640  0.2338
12792TIP3    H259868   5.161   6.789   5.402  1.1794 -2.2379 -1.2591
12793TIP3   OH259869   2.802   5.698  15.731 -0.4742  0.5858  0.2638
12793TIP3    H159870   2.751   5.740  15.800 -1.8715 -0.7924  0.1051
12793TIP3    H259871   2.795   5.605  15.749 -1.3291  0.1493 -2.0319
12794TIP3   OH259872   4.802   5.642  15.427  0.0847  0.1082  0.1304
12794TIP3    H159873   4.733   5.707  15.442  1.5972  2.5915 -2.5395
12794TIP3    H259874   4.848   5.637  15.511 -1.2926  0.9550  0.9820
12795TIP3   OH259875   0.363   1.673  10.546  0.0860 -0.5966 -0.1607
12795TIP3    H159876   0.426   1.613  10.506  1.5528  0.5801  0.3073
12795TIP3    H259877   0.417   1.737  10.592 -1.4323  1.0743 -0.6273
12796TIP3   OH259878   2.128   1.689  15.620  0.0389  0.1275 -0.3374
12796TIP3    H159879   2.089   1.634  15.552  0.0488 -0.6774  0.2890
12796TIP3    H259880   2.102   1.778  15.596 -1.8293 -0.3324 -0.1853
12797TIP3   OH259881   4.511   4.834   4.832  0.1146 -0.4790  0.1091
12797TIP3    H159882   4.430   4.789   4.856 -0.2439  0.5636  0.9375
12797TIP3    H259883   4.509   4.837   4.737 -0.1261 -1.7030  0.0657
12798TIP3   OH259884   5.916   2.269  12.029  0.2322 -0.3317  0.1894
12798TIP3    H159885   6.011   2.265  12.026  0.2107 -0.3853 -0.6622
12798TIP3    H259886   5.889   2.271  11.937 -0.5019  1.7837  0.3987
12799TIP3   OH259887   0.136   0.505   1.166 -0.0050 -0.2931 -0.1972
12799TIP3    H159888   0.146   0.420   1.211 -2.2500 -0.3720  0.2445
12799TIP3    H259889   0.042   0.520   1.164  0.2199  1.1360 -2.3138
12800TIP3   OH259890   4.183   3.267   2.014  0.2679  0.1244 -0.1459
12800TIP3    H159891   4.169   3.191   1.957  0.0157  0.3952 -0.4569
12800TIP3    H259892   4.102   3.318   2.005  0.1816  0.1173  0.5462
12801TIP3   OH259893   5.764   2.240  16.611  0.3186 -0.6282  0.3445
12801TIP3    H159894   5.691   2.183  16.633 -0.8378  1.4427  2.1997
12801TIP3    H259895   5.759   2.250  16.516 -1.0618 -1.4984  0.3064
12802TIP3   OH259896   4.230   4.964  15.552 -0.0744 -0.4454  0.1904
12802TIP3    H159897   4.215   4.884  15.502 -0.4207  1.1304 -2.3808
12802TIP3    H259898   4.170   5.028  15.514  0.7225  1.2593  1.6547
12803TIP3   OH259899   0.978   0.728   4.499  0.3041  0.0645 -0.1450
12803TIP3    H159900   0.891   0.768   4.504  0.5841  0.5273  1.8309
12803TIP3    H259901   0.978   0.663   4.569  1.2504 -0.5693 -0.7224
12804TIP3   OH259902   1.287   5.407  16.452  0.1109  0.9004 -0.1531
12804TIP3    H159903   1.206   5.405  16.504  0.8719  2.2918  1.1519
12804TIP3    H259904   1.257   5.412  16.362 -1.2534 -0.2836  0.1924
12805TIP3   OH259905   4.620   5.760  15.982 -0.4762  0.5352  0.2934
12805TIP3    H159906   4.540   5.710  15.995  0.0077 -0.2139  0.4246
12805TIP3    H259907   4.593   5.852  15.992 -0.9319  0.2146  2.4061
12806TIP3   OH259908   1.836   2.459   4.452 -0.2986 -0.1299  0.3462
12806TIP3    H159909   1.922   2.501   4.450 -0.7798  0.9592  1.3722
12806TIP3    H259910   1.776   2.527   4.484 -1.5563 -0.8526 -0.3752
12807TIP3   OH259911   5.271   3.901  14.893  0.1286 -0.3353  0.4663
12807TIP3    H159912   5.347   3.895  14.952  1.8185  1.1330 -1.4539
12807TIP3    H259913   5.237   3.989  14.906  0.1063 -0.2329 -0.2390
12808TIP3   OH259914   1.988   1.761  13.383 -0.3593 -0.5027 -0.0791
12808TIP3    H159915   2.008   1.842  13.429 -1.0776 -0.9263  1.0318
12808TIP3    H259916   2.060   1.702  13.404 -0.3048 -0.4507 -0.1207
12809TIP3   OH259917   6.461   3.405  15.943  0.4129  0.0558  0.3404
12809TIP3    H159918   6.425   3.415  16.031 -1.7762  0.3339 -0.5054
12809TIP3    H259919   6.388   3.369  15.892  1.0125  1.6399 -1.7572
12810TIP3   OH259920   0.627   5.905  11.299 -0.0441 -0.4893 -0.5993
12810TIP3    H159921   0.587   5.991  11.306  1.6297  0.2433  0.9723
12810TIP3    H259922   0.697   5.916  11.235  1.1494 -0.2147  0.6999
12811TIP3   OH259923   2.654   1.145   2.966  0.9959  0.4306  0.4943
12811TIP3    H159924   2.747   1.156   2.986  1.4416  0.1069 -1.2520
12811TIP3    H259925   2.636   1.052   2.982  1.5696 -0.0291 -1.2833
12812TIP3   OH259926   3.465   1.459   5.481 -0.2426  0.1538  0.0265
12812TIP3    H159927   3.413   1.404   5.423 -1.8156  1.0454  0.5055
12812TIP3    H259928   3.542   1.407   5.503 -1.7379 -1.9211  0.6043
12813TIP3   OH259929   5.454   4.426  13.703 -0.0962 -0.4330 -0.1017
12813TIP3    H159930   5.460   4.362  13.632 -1.3010 -0.7568  0.0667
12813TIP3    H259931   5.360   4.433  13.722 -0.0262  1.5130 -0.2294
12814TIP3   OH259932   2.258   1.372  12.410 -0.6608 -0.2288  0.3084
12814TIP3    H159933   2.314   1.429  12.358 -2.0240  1.1021  0.2357
12814TIP3    H259934   2.247   1.418  12.493 -2.5915  0.1778 -0.1082
12815TIP3   OH259935   5.930   4.601   1.311 -0.8252 -0.0735  0.0180
12815TIP3    H159936   5.911   4.693   1.331  1.7577  0.5851 -0.2748
12815TIP3    H259937   5.966   4.566   1.392 -1.3979 -0.7221 -0.0032
12816TIP3   OH259938   1.782   6.757   1.223 -0.2042 -0.7804  0.3381
12816TIP3    H159939   1.730   6.678   1.238  1.5241 -1.7609  1.4287
12816TIP3    H259940   1.872   6.730   1.240  0.5441  1.1864 -0.2651
12817TIP3   OH259941   5.717   6.661   1.340 -0.1373  0.0187 -0.0676
12817TIP3    H159942   5.783   6.711   1.388  0.1689  0.5198 -0.9828
12817TIP3    H259943   5.635   6.709   1.354  0.0391  0.4331 -0.4281
12818TIP3   OH259944   1.990   3.027  12.733 -0.5562  0.7005 -0.9341
12818TIP3    H159945   2.059   3.088  12.759  1.0636 -0.9142 -1.2480
12818TIP3    H259946   1.963   2.986  12.815  1.0332 -0.8110 -1.1114
12819TIP3   OH259947   3.027   1.780  11.669 -0.0748  0.0264  0.3639
12819TIP3    H159948   3.006   1.823  11.586  1.1515  0.7943  0.4350
12819TIP3    H259949   3.007   1.688  11.653 -1.5879  0.4100 -0.1768
12820TIP3   OH259950   0.405   3.647  15.745 -0.7199 -0.3182 -0.1492
12820TIP3    H159951   0.480   3.599  15.709 -1.3499 -0.8092 -0.8446
12820TIP3    H259952   0.337   3.580  15.755 -0.6722 -0.1300  1.6834
12821TIP3   OH259953   1.271   3.670  16.525 -0.3256 -0.2844  0.7500
12821TIP3    H159954   1.229   3.599  16.575 -1.4435 -0.0990  0.1058
12821TIP3    H259955   1.265   3.642  16.434 -1.6744  1.0732  0.3868
12822TIP3   OH259956   1.857   1.791   2.482 -0.7205  0.5271  0.7425
12822TIP3    H159957   1.946   1.758   2.473 -0.2937  0.9597  2.7539
12822TIP3    H259958   1.812   1.765   2.401  1.3588  0.7842 -0.5540
12823TIP3   OH259959   0.529   4.109  10.950 -0.2743 -0.2309 -0.3527
12823TIP3    H159960   0.459   4.122  10.886 -1.4477 -1.8728  0.5072
12823TIP3    H259961   0.587   4.044  10.910  0.5070  0.7414 -0.8442
12824TIP3   OH259962   0.442   0.064   0.482 -0.2103  0.4327 -0.6878
12824TIP3    H159963   0.525   0.021   0.501 -0.8976 -1.1657 -1.1831
12824TIP3    H259964   0.382   0.032   0.549 -0.4225  1.6977 -0.2396
12825TIP3   OH259965   6.509   4.120  13.713 -0.0862 -1.0027  0.2233
12825TIP3    H159966   6.560   4.095  13.790  0.6457 -1.3434 -0.3581
12825TIP3    H259967   6.574   4.133  13.644 -0.7716 -1.2706 -0.4907
12826TIP3   OH259968   1.734   3.431  12.164  0.1602  0.5840  0.7875
12826TIP3    H159969   1.672   3.459  12.232 -0.7863  0.1116  0.1500
12826TIP3    H259970   1.723   3.495  12.094 -0.6122 -0.2579  0.1145
12827TIP3   OH259971   3.880   2.351   2.118 -0.1002 -0.0945 -0.7129
12827TIP3    H159972   3.902   2.380   2.029 -0.5668 -2.1507 -1.5618
12827TIP3    H259973   3.953   2.294   2.143 -0.8344 -0.9838 -0.5326
12828TIP3   OH259974   2.551   5.418   3.347 -0.1546  0.2285  0.2461
12828TIP3    H159975   2.541   5.323   3.339  1.3565 -0.2924  3.1432
12828TIP3    H259976   2.599   5.445   3.269  1.3828 -1.7829  0.4334
12829TIP3   OH259977   4.092   5.530   5.094  0.4096  0.0756  0.3441
12829TIP3    H159978   4.162   5.552   5.155  0.5674  0.6383 -0.0328
12829TIP3    H259979   4.012   5.561   5.136  0.4015 -0.4167  0.7000
12830TIP3   OH259980   3.492   5.560   4.102 -0.2395 -0.6882 -0.2262
12830TIP3    H159981   3.488   5.513   4.185  0.7284 -1.2587 -0.4774
12830TIP3    H259982   3.586   5.571   4.086 -0.2427 -3.1684 -2.6316
12831TIP3   OH259983   3.000   1.529  13.177  0.1555  0.3477  0.1426
12831TIP3    H159984   3.091   1.511  13.153  0.1195 -0.1836  0.3843
12831TIP3    H259985   2.952   1.451  13.149 -0.3091  0.8261 -0.4203
12832TIP3   OH259986   0.276   6.820   3.382 -0.6594 -0.1297  0.8116
12832TIP3    H159987   0.213   6.879   3.342  0.2960 -1.0229 -2.2614
12832TIP3    H259988   0.229   6.737   3.391 -0.6044 -0.1718  0.7077
12833TIP3   OH259989   3.025   4.440  12.367  0.3166 -0.5399  0.5552
12833TIP3    H159990   3.040   4.527  12.331  0.3559 -1.0129 -0.6468
12833TIP3    H259991   2.984   4.455  12.452 -3.0232  0.6582 -1.0844
12834TIP3   OH259992   4.250   1.221   5.435  0.2625  0.4243  0.3364
12834TIP3    H159993   4.206   1.136   5.428  0.1490  0.3008  2.0998
12834TIP3    H259994   4.306   1.225   5.357 -2.2038  0.2379 -1.5666
12835TIP3   OH259995   5.529   0.638  15.510  0.0758  0.1217  0.3322
12835TIP3    H159996   5.554   0.639  15.417 -1.4944  2.6195 -0.1656
12835TIP3    H259997   5.476   0.559  15.520 -2.3811  1.3439 -1.7755
12836TIP3   OH259998   5.107   1.559   2.485  0.1634  0.6400 -0.6425
12836TIP3    H159999   5.105   1.592   2.575 -0.9603 -3.5681  1.1156
12836TIP3    H260000   5.022   1.517   2.473  1.9630 -3.1597 -1.7193
12837TIP3   OH260001   0.369   2.935  12.084  0.0762  0.4476  0.4075
12837TIP3    H160002   0.373   3.022  12.045 -0.4617  0.1567 -0.3214
12837TIP3    H260003   0.276   2.911  12.081  0.1168  0.1366  1.2522
12838TIP3   OH260004   5.345   6.056  16.791 -0.2431 -0.5974  0.3086
12838TIP3    H160005   5.433   6.094  16.789 -0.8472  0.9442  1.1625
12838TIP3    H260006   5.359   5.962  16.781  1.3107 -0.1917 -2.1755
12839TIP3   OH260007   5.273   4.944   3.484  0.6473  0.7386  0.0135
12839TIP3    H160008   5.362   4.929   3.453  1.3327  1.8134  1.3458
12839TIP3    H260009   5.283   4.968   3.576 -1.0736  0.3472  0.3497
12840TIP3   OH260010   5.509   6.846   2.645 -0.3866  0.2298 -0.3839
12840TIP3    H160011   5.512   6.765   2.697  2.9300  0.4909  0.0606
12840TIP3    H260012   5.464   6.909   2.702 -2.2627 -1.0361 -0.3950
12841TIP3   OH260013   0.558   2.408  13.343 -0.2014 -0.0263 -0.3873
12841TIP3    H160014   0.562   2.481  13.281 -0.9607  1.0502  0.7984
12841TIP3    H260015   0.465   2.400  13.364 -0.2017 -1.6892 -0.8746
12842TIP3   OH260016   6.009   3.475   4.045 -0.1868  0.4356  0.3701
12842TIP3    H160017   6.099   3.468   4.016  0.1583 -0.8592  1.6515
12842TIP3    H260018   5.999   3.406   4.111 -2.1756  0.3818  0.0777
12843TIP3   OH260019   5.086   4.646  11.708  0.1627  0.1366 -0.0013
12843TIP3    H160020   5.075   4.708  11.780  0.6699  0.6132 -0.3272
12843TIP3    H260021   5.119   4.699  11.636 -2.4178  0.1325 -1.3096
12844TIP3   OH260022   0.964   6.779  14.162  0.1644  0.1068 -0.8261
12844TIP3    H160023   0.916   6.804  14.241  0.7294 -1.6262  0.1056
12844TIP3    H260024   1.050   6.819  14.173  0.1655  0.0658 -0.6815
12845TIP3   OH260025   1.599   5.395  13.146  0.1692 -0.2020  0.3486
12845TIP3    H160026   1.622   5.333  13.077 -0.9222 -0.8499  0.5435
12845TIP3    H260027   1.663   5.465  13.138  0.3328 -0.4866 -1.0306
12846TIP3   OH260028   6.859   5.425  14.054  0.6435  0.0188 -0.4631
12846TIP3    H160029   6.813   5.508  14.065 -1.3582 -1.0714 -0.0029
12846TIP3    H260030   6.821   5.368  14.121  1.1447 -1.5954 -1.4914
12847TIP3   OH260031   3.838   4.217   3.349  0.0662  0.3970 -1.4805
12847TIP3    H160032   3.852   4.122   3.349  0.6811  0.4204  0.7193
12847TIP3    H260033   3.755   4.229   3.303 -1.6446 -1.5598  0.8081
12848TIP3   OH260034   6.340   2.166  15.906  0.2198  0.0156 -0.0361
12848TIP3    H160035   6.245   2.178  15.913  0.3379  0.1314  2.2308
12848TIP3    H260036   6.376   2.220  15.977  1.8985 -1.0634 -0.0107
12849TIP3   OH260037   6.311   6.188  13.238  0.7793  0.4033 -0.3557
12849TIP3    H160038   6.226   6.213  13.201 -0.3597 -0.2520  1.6679
12849TIP3    H260039   6.291   6.117  13.298  3.0028 -0.7761 -0.8966
12850TIP3   OH260040   6.854   0.970   2.298 -0.4954 -0.0962 -0.0344
12850TIP3    H160041   6.897   1.033   2.356  0.9576 -0.6642 -0.4466
12850TIP3    H260042   6.868   1.005   2.210  0.9088 -1.2598 -0.3246
12851TIP3   OH260043   3.518   1.644   4.042 -0.0882  0.0607 -0.5140
12851TIP3    H160044   3.455   1.613   4.107 -0.1045 -1.0707 -1.0383
12851TIP3    H260045   3.464   1.688   3.976 -0.2441 -0.2092 -0.5675
12852TIP3   OH260046   6.009   3.196   3.957 -0.2494  0.3009  0.1555
12852TIP3    H160047   5.923   3.237   3.943 -0.0314  1.0923  0.9934
12852TIP3    H260048   5.991   3.102   3.959 -1.5644  0.5208  3.0805
12853TIP3   OH260049   3.110   6.672  15.008 -0.1333  0.0293  0.1081
12853TIP3    H160050   3.098   6.586  15.048 -3.4294  0.4364  0.2367
12853TIP3    H260051   3.161   6.722  15.073 -1.0653 -0.8370  1.5633
12854TIP3   OH260052   0.919   5.507   1.238  0.2679 -0.3270 -0.2374
12854TIP3    H160053   1.007   5.469   1.245  0.5586 -0.6949 -3.9523
12854TIP3    H260054   0.860   5.436   1.262  0.9305 -2.0714 -3.2714
12855TIP3   OH260055   2.547   0.518   4.146 -0.5828  0.5603  0.4631
12855TIP3    H160056   2.486   0.505   4.219 -0.9484 -0.3861  0.0090
12855TIP3    H260057   2.545   0.434   4.099  2.1528 -0.0694  1.2685
12856TIP3   OH260058   3.982   1.085   5.219  0.0977 -0.4016 -0.6059
12856TIP3    H160059   3.926   1.154   5.182 -1.8351 -0.8044  1.3424
12856TIP3    H260060   4.055   1.078   5.158 -0.8568  1.7141 -2.1200
12857TIP3   OH260061   1.586   5.592   4.791 -0.0918  0.6139 -0.2364
12857TIP3    H160062   1.503   5.557   4.760 -0.1030 -0.4196  0.9036
12857TIP3    H260063   1.569   5.620   4.880  0.9281 -0.2142  0.2418
12858TIP3   OH260064   1.548   4.896  14.178 -0.0945 -0.1225  0.6963
12858TIP3    H160065   1.506   4.861  14.256  3.3922 -1.8796  2.0051
12858TIP3    H260066   1.569   4.819  14.125  0.2610  0.7911 -0.5470
12859TIP3   OH260067   5.153   5.814   4.633  0.2291 -0.2760  0.3873
12859TIP3    H160068   5.179   5.852   4.717 -0.9203  0.6308  0.3616
12859TIP3    H260069   5.060   5.838   4.623 -0.2226 -2.0799 -0.2117
12860TIP3   OH260070   6.315   1.357   1.892 -0.3382 -0.6773  0.4292
12860TIP3    H160071   6.389   1.366   1.831 -0.1082  1.7944  0.9551
12860TIP3    H260072   6.356   1.361   1.979 -0.9219 -1.4472  0.7494
12861TIP3   OH260073   2.183   4.119   5.547 -0.3194  0.2625 -0.0864
12861TIP3    H160074   2.153   4.088   5.633  2.2965  0.5523  1.0316
12861TIP3    H260075   2.249   4.186   5.567  1.7615 -0.9619 -2.2089
12862TIP3   OH260076   6.659   6.118   3.199 -0.6171  0.7420  0.4143
12862TIP3    H160077   6.602   6.168   3.140 -1.3411 -0.4606  0.0648
12862TIP3    H260078   6.745   6.122   3.157 -0.8859  0.8336 -0.1470
12863TIP3   OH260079   0.476   4.808   0.380 -0.1843  0.4040  0.0053
12863TIP3    H160080   0.453   4.852   0.462  0.5511  2.2579 -0.7216
12863TIP3    H260081   0.402   4.824   0.322  0.2617  1.0795 -0.3931
12864TIP3   OH260082   1.389   4.850  14.396  0.6959 -0.3818  0.0057
12864TIP3    H160083   1.338   4.927  14.419  1.1531 -0.7718  2.7137
12864TIP3    H260084   1.341   4.777  14.437 -0.2340 -1.7587 -3.2426
12865TIP3   OH260085   4.839   1.089  16.449 -0.3966  0.7480 -0.4392
12865TIP3    H160086   4.862   1.006  16.489 -0.9621  2.0600  3.0008
12865TIP3    H260087   4.920   1.121  16.410  0.6859  0.0140  1.1024
12866TIP3   OH260088   0.770   0.733   3.460 -0.3412 -0.4843 -0.3321
12866TIP3    H160089   0.832   0.671   3.498  1.3879  1.3024 -0.0274
12866TIP3    H260090   0.773   0.716   3.366  0.6175 -0.4630 -0.3151
12867TIP3   OH260091   6.115   1.224  15.008 -0.3831 -0.3789  0.2360
12867TIP3    H160092   6.068   1.301  14.978 -0.7540  0.0782  1.8740
12867TIP3    H260093   6.052   1.152  14.996 -0.6448 -0.1538  0.2385
12868TIP3   OH260094   5.408   6.371   1.262  0.0500 -0.2849  0.2849
12868TIP3    H160095   5.484   6.419   1.229  0.9680  0.0384  2.6711
12868TIP3    H260096   5.405   6.292   1.208  2.0466 -0.2694  0.0453
12869TIP3   OH260097   4.412   1.875   5.259  0.0178  0.2611 -0.2704
12869TIP3    H160098   4.495   1.834   5.232 -0.7189 -1.6460  0.2358
12869TIP3    H260099   4.427   1.901   5.350 -0.1792 -0.8054  0.0775
12870TIP3   OH260100   4.051   1.432  11.973 -0.0680 -0.2636 -0.2947
12870TIP3    H160101   4.053   1.519  12.013 -0.5113  0.0051 -0.8410
12870TIP3    H260102   4.121   1.384  12.017 -1.6204 -0.5431  2.0490
12871TIP3   OH260103   1.411   1.324  14.976  0.1062 -0.1601 -0.1512
12871TIP3    H160104   1.351   1.328  14.902  0.9571  0.2224 -0.8449
12871TIP3    H260105   1.445   1.235  14.976  1.0031  0.1591 -0.9827
12872TIP3   OH260106   5.241   3.446   4.831  0.0324 -0.2628 -0.2507
12872TIP3    H160107   5.171   3.409   4.884  0.1378  0.0267  0.0959
12872TIP3    H260108   5.212   3.535   4.810  0.9535  0.4158  1.1874
12873TIP3   OH260109   0.795   5.309   5.482 -0.1645 -0.7084  0.0095
12873TIP3    H160110   0.818   5.354   5.564 -2.0196 -0.6159  0.5056
12873TIP3    H260111   0.797   5.378   5.416 -1.0242 -0.2793  0.4169
12874TIP3   OH260112   0.052   5.421   1.815 -0.4380  0.3787 -0.5566
12874TIP3    H160113   0.024   5.403   1.725 -1.6893  1.1224 -0.3365
12874TIP3    H260114   0.132   5.472   1.805 -0.2036 -0.1017 -1.2373
12875TIP3   OH260115   6.696   4.929   2.394  0.0068 -0.5451 -0.0601
12875TIP3    H160116   6.672   4.964   2.480  0.3089 -1.1701  0.2829
12875TIP3    H260117   6.661   4.840   2.393 -1.9164  0.1448 -1.4395
12876TIP3   OH260118   1.417   3.745  13.585  0.4499  0.0303 -0.2266
12876TIP3    H160119   1.477   3.758  13.658 -1.1203  0.3901  1.0459
12876TIP3    H260120   1.381   3.832  13.567 -1.1372 -0.4739  0.3463
12877TIP3   OH260121   5.653   1.543  15.053 -0.0366 -0.0475 -0.6759
12877TIP3    H160122   5.671   1.637  15.049  0.8740 -0.1169  0.9496
12877TIP3    H260123   5.671   1.519  15.144  0.5538 -1.9623 -1.2486
12878TIP3   OH260124   1.106   0.038  13.845  0.2845 -0.2864  0.9257
12878TIP3    H160125   1.119   0.122  13.801  0.0826  0.1147  1.6039
12878TIP3    H260126   1.171   0.038  13.916  1.1778 -1.2887  0.1285
12879TIP3   OH260127   6.858   1.863  12.183  0.2135 -0.5812  0.0289
12879TIP3    H160128   6.813   1.838  12.263 -1.4682  0.5279 -0.5281
12879TIP3    H260129   6.864   1.958  12.187  1.5510 -0.6303 -0.4335
12880TIP3   OH260130   2.442   3.134   1.059 -0.6353  0.2145  0.3325
12880TIP3    H160131   2.370   3.191   1.032  0.2732  0.6518 -1.2983
12880TIP3    H260132   2.401   3.049   1.074 -1.2700 -0.1214 -2.6787
12881TIP3   OH260133   3.354   0.739   4.098  0.5493 -0.0766  0.3529
12881TIP3    H160134   3.291   0.674   4.130  0.5854  0.0194  0.6237
12881TIP3    H260135   3.380   0.706   4.012  0.7483 -0.5477  0.5886
12882TIP3   OH260136   5.605   2.656   2.209  0.4843  0.8654  0.1513
12882TIP3    H160137   5.613   2.743   2.170  1.6826  0.2029 -1.1820
12882TIP3    H260138   5.551   2.606   2.147 -0.0634  0.5944  0.8252
12883TIP3   OH260139   1.822   5.918   6.328  0.6163  0.3910 -0.1292
12883TIP3    H160140   1.846   5.994   6.274  2.7012  2.0187  2.8376
12883TIP3    H260141   1.900   5.862   6.327  0.4230  0.1015  0.5975
12884TIP3   OH260142   2.759   3.929  13.272  0.2169 -0.4415 -0.0810
12884TIP3    H160143   2.741   3.859  13.209  0.6858 -0.4661 -0.1863
12884TIP3    H260144   2.754   4.010  13.220 -0.4003 -0.3848  0.0556
12885TIP3   OH260145   2.516   5.860  12.163  0.3827 -0.4182  0.3116
12885TIP3    H160146   2.542   5.769  12.145 -0.2880 -0.4557 -0.5192
12885TIP3    H260147   2.421   5.855  12.175 -0.0645  0.5054 -2.2121
12886TIP3   OH260148   3.754   2.081  14.273  0.0731 -0.3891 -0.0514
12886TIP3    H160149   3.659   2.084  14.257  0.1040 -0.4733 -0.2510
12886TIP3    H260150   3.777   2.171  14.294  0.1037 -0.1974 -0.8861
12887TIP3   OH260151   4.159   6.466  14.004 -0.1635 -0.0156 -0.5002
12887TIP3    H160152   4.239   6.514  13.985 -0.6328  0.0562 -2.5267
12887TIP3    H260153   4.184   6.404  14.073  1.1342  1.2497  0.2047
12888TIP3   OH260154   3.632   0.854  11.937  0.0944 -0.2261  0.1792
12888TIP3    H160155   3.664   0.941  11.958  0.5752 -0.3400 -0.0632
12888TIP3    H260156   3.710   0.798  11.938 -0.2817 -0.7542  0.8380
12889TIP3   OH260157   4.255   0.438   3.168 -0.2392  0.1698 -0.3124
12889TIP3    H160158   4.170   0.420   3.208  0.6012  0.7236  1.8304
12889TIP3    H260159   4.302   0.355   3.174 -1.0009 -0.5442 -2.7333
12890TIP3   OH260160   2.408   4.786  12.165 -0.1253 -0.0288 -0.0494
12890TIP3    H160161   2.346   4.719  12.136  0.0495  0.1874 -0.9593
12890TIP3    H260162   2.356   4.866  12.168  0.1489  0.2063 -1.0751
12891TIP3   OH260163   5.312   0.850  14.651 -0.6484 -0.4824  0.1374
12891TIP3    H160164   5.296   0.847  14.745  0.6248  0.2974  0.4091
12891TIP3    H260165   5.388   0.793  14.637 -1.9032 -2.0242 -0.7104
12892TIP3   OH260166   2.669   5.965   3.688 -0.1365 -0.1882  0.1165
12892TIP3    H160167   2.751   6.015   3.683 -1.0518  1.3955  0.0711
12892TIP3    H260168   2.666   5.915   3.606  0.2421  0.6574 -0.4269
12893TIP3   OH260169   1.257   0.435  15.904  0.2920 -0.3514  0.0806
12893TIP3    H160170   1.288   0.389  15.982  1.5539 -0.7883 -0.6395
12893TIP3    H260171   1.167   0.404  15.892 -0.1372  0.1972  1.6939
12894TIP3   OH260172   3.081   6.443   0.192 -0.7228 -0.1866 -0.4440
12894TIP3    H160173   3.128   6.438   0.275 -0.6917  1.3822 -0.3405
12894TIP3    H260174   2.991   6.422   0.213 -0.7875  0.5862  0.0649
12895TIP3   OH260175   4.715   4.867  16.623 -0.1861 -0.6019 -0.1022
12895TIP3    H160176   4.721   4.961  16.640  0.5578 -0.2851 -1.8775
12895TIP3    H260177   4.710   4.860  16.527  2.3141 -2.4858 -0.1960
12896TIP3   OH260178   5.189   2.499  11.179  0.6918  0.2015  0.3151
12896TIP3    H160179   5.276   2.513  11.217  0.9292  0.5989 -0.3602
12896TIP3    H260180   5.153   2.587  11.169 -0.3699 -0.0126  1.8826
12897TIP3   OH260181   0.583   5.362  17.088  0.5022  0.1496  0.0267
12897TIP3    H160182   0.551   5.452  17.095  0.9013  0.2030  1.7984
12897TIP3    H260183   0.596   5.347  16.994 -1.1136  1.3685 -0.4185
12898TIP3   OH260184   3.215   4.716   6.079  0.2674  0.2588  0.0667
12898TIP3    H160185   3.122   4.738   6.083 -0.4802 -2.0846 -1.5917
12898TIP3    H260186   3.255   4.788   6.031 -1.2157  0.0929 -1.5123
12899TIP3   OH260187   3.732   5.853  13.815  0.3777  0.3489 -0.5230
12899TIP3    H160188   3.658   5.803  13.783  0.5083 -1.6995  2.0758
12899TIP3    H260189   3.701   5.895  13.895  1.9308 -0.5005  0.5849
12900TIP3   OH260190   6.265   4.032  13.340 -0.2108  0.0519  0.2207
12900TIP3    H160191   6.236   3.960  13.284 -0.4685  0.6450 -0.4147
12900TIP3    H260192   6.273   4.107  13.281 -2.5349  1.2505  1.2726
12901TIP3   OH260193   4.884   0.201  13.159 -0.1076  0.4829 -0.4138
12901TIP3    H160194   4.957   0.160  13.112 -0.3751  0.9787 -1.2710
12901TIP3    H260195   4.808   0.185  13.103 -0.7308 -0.3380  0.6439
12902TIP3   OH260196   6.229   2.872   4.007  0.3797  0.7271  0.1085
12902TIP3    H160197   6.228   2.928   4.084 -2.4470  0.3114  0.4872
12902TIP3    H260198   6.155   2.903   3.954  0.1933 -1.1237 -0.7944
12903TIP3   OH260199   4.702   3.614  16.694 -0.4360 -0.0501  0.0373
12903TIP3    H160200   4.734   3.704  16.690 -0.5963 -0.0401 -1.3472
12903TIP3    H260201   4.777   3.564  16.727 -0.4231  0.6138  1.0420
12904TIP3   OH260202   5.891   4.321  11.334 -0.3096 -0.0290 -0.3374
12904TIP3    H160203   5.941   4.396  11.366 -1.3460  1.7519 -2.6064
12904TIP3    H260204   5.800   4.350  11.337 -0.6956 -1.0132 -1.6920
12905TIP3   OH260205   4.659   0.166   0.678 -0.0343 -0.2004  0.8158
12905TIP3    H160206   4.630   0.228   0.612  0.8964 -1.6712 -1.0723
12905TIP3    H260207   4.724   0.214   0.729 -0.8782  1.0076  0.7825
12906TIP3   OH260208   3.737   3.025   5.522 -0.1109 -0.5645  0.1664
12906TIP3    H160209   3.800   3.063   5.461 -0.1419 -1.4206 -0.4172
12906TIP3    H260210   3.738   3.083   5.598  1.3396 -0.5432  0.1414
12907TIP3   OH260211   1.954   5.270  16.337  0.0657  0.1346 -0.0531
12907TIP3    H160212   1.888   5.205  16.312 -0.0338  0.5606 -0.9099
12907TIP3    H260213   2.035   5.220  16.347  0.1446 -0.0199 -1.3851
12908TIP3   OH260214   0.108   3.270   3.608  0.1771  0.7374  0.6302
12908TIP3    H160215   0.050   3.252   3.534 -0.9966 -2.1232  2.0907
12908TIP3    H260216   0.178   3.206   3.600 -0.9550 -0.9012  2.9097
12909TIP3   OH260217   4.647   5.970  14.225 -0.1693  0.0566  0.1400
12909TIP3    H160218   4.689   5.939  14.145  1.1017 -0.7096  1.0638
12909TIP3    H260219   4.662   5.900  14.289 -1.5267  0.4582  0.9498
12910TIP3   OH260220   5.098   4.217   0.330 -0.4042  0.4843 -0.1353
12910TIP3    H160221   5.074   4.137   0.375  0.0716 -0.3224 -1.2446
12910TIP3    H260222   5.135   4.187   0.246  2.0428  1.7230  0.4020
12911TIP3   OH260223   4.295   1.823   0.178  0.0891 -0.1353  0.4515
12911TIP3    H160224   4.276   1.872   0.098  1.0573  0.3001  0.4774
12911TIP3    H260225   4.309   1.733   0.148  1.0332  0.1384  0.0432
12912TIP3   OH260226   3.648   4.910   4.256 -0.7273 -0.1719  0.4621
12912TIP3    H160227   3.647   4.850   4.331 -0.3004  1.8437  2.2107
12912TIP3    H260228   3.565   4.958   4.264 -1.7927 -1.5097 -1.8185
12913TIP3   OH260229   5.042   0.589   3.673  0.1772 -0.4634  0.4290
12913TIP3    H160230   4.949   0.613   3.665  0.3427 -0.1491 -0.8478
12913TIP3    H260231   5.067   0.618   3.760 -0.3630  1.4982 -0.0134
12914TIP3   OH260232   3.009   4.066  15.189 -0.0342  0.1796 -0.1564
12914TIP3    H160233   3.024   3.996  15.253 -1.5563 -0.1643 -0.1511
12914TIP3    H260234   3.014   4.022  15.104  1.5882  0.5660 -0.3029
12915TIP3   OH260235   4.840   3.114   5.423  0.6554  0.2144 -0.2783
12915TIP3    H160236   4.865   3.177   5.491 -0.1695  0.0157  0.2326
12915TIP3    H260237   4.912   3.050   5.422  1.4686  1.1168 -0.7632
12916TIP3   OH260238   3.905   5.682  11.057  1.0416  0.4403  0.1404
12916TIP3    H160239   3.922   5.621  10.986 -1.3817  1.2907 -1.3030
12916TIP3    H260240   3.947   5.764  11.029 -0.0422  0.8190 -0.4549
12917TIP3   OH260241   3.699   0.868   1.645 -0.2127  0.6910 -0.0342
12917TIP3    H160242   3.794   0.857   1.650 -0.4034 -0.5196  1.6081
12917TIP3    H260243   3.686   0.928   1.571  1.8021  0.7460 -0.4048
12918TIP3   OH260244   0.300   1.134   2.604  0.1625  0.4617 -0.0556
12918TIP3    H160245   0.352   1.064   2.565  2.1356  2.4048 -1.0955
12918TIP3    H260246   0.293   1.110   2.696 -0.3229 -1.6905 -0.5785
12919TIP3   OH260247   5.827   5.892   1.646 -0.1571 -0.3100 -0.0253
12919TIP3    H160248   5.840   5.986   1.635 -1.5356 -0.3083 -1.9611
12919TIP3    H260249   5.904   5.853   1.605 -0.3784 -0.0594 -0.6883
12920TIP3   OH260250   0.771   2.528   4.476 -0.4296 -0.1649  0.2052
12920TIP3    H160251   0.844   2.534   4.538  0.0387 -1.8558 -0.1391
12920TIP3    H260252   0.696   2.565   4.524  0.6015  1.5100  0.5962
12921TIP3   OH260253   1.000   6.081   3.871  0.1662 -0.8004 -0.5665
12921TIP3    H160254   0.923   6.125   3.835  0.7400  0.5747 -0.1847
12921TIP3    H260255   0.988   6.087   3.966  0.9647 -0.1464 -0.4967
12922TIP3   OH260256   4.900   4.721   3.511  0.3261  0.0693  0.3805
12922TIP3    H160257   4.899   4.801   3.563  0.7800  0.4274 -0.1546
12922TIP3    H260258   4.827   4.669   3.545 -0.4687  1.0396  0.2097
12923TIP3   OH260259   0.350   4.473   4.270 -0.0959  0.7565  0.2832
12923TIP3    H160260   0.268   4.447   4.230 -0.1367  0.7751  0.3557
12923TIP3    H260261   0.391   4.530   4.205  0.3825 -0.1500 -0.2398
12924TIP3   OH260262   2.943   5.841   0.624  0.8182 -0.6844  0.0979
12924TIP3    H160263   2.961   5.876   0.537 -0.0429 -1.3559 -0.3819
12924TIP3    H260264   3.001   5.766   0.633  1.4430 -0.1657  0.4172
12925TIP3   OH260265   5.699   6.266  12.238 -0.2115  0.5702  0.1759
12925TIP3    H160266   5.792   6.254  12.221  0.5689  2.3042  2.6386
12925TIP3    H260267   5.696   6.330  12.309 -3.2481 -0.5997  1.2545
12926TIP3   OH260268   4.761   0.225   1.873 -0.5276  0.1080 -0.4928
12926TIP3    H160269   4.812   0.305   1.886 -0.4619 -0.2944  2.4299
12926TIP3    H260270   4.714   0.239   1.791  1.6966  1.8819 -1.5850
12927TIP3   OH260271   6.346   4.225  11.266 -0.3864 -0.3943 -0.1959
12927TIP3    H160272   6.317   4.205  11.355  0.4803  0.1609  0.2147
12927TIP3    H260273   6.264   4.233  11.216 -0.9019 -0.1396  0.6643
12928TIP3   OH260274   6.341   0.650  15.400  0.2481  0.2062  1.0051
12928TIP3    H160275   6.388   0.607  15.471  2.2616  0.7179  0.0553
12928TIP3    H260276   6.405   0.657  15.329 -1.2206  1.1275 -0.3072
12929TIP3   OH260277   6.103   6.193   4.888  0.4293 -0.1501 -0.0737
12929TIP3    H160278   6.196   6.200   4.911  0.3546  0.7498 -0.0031
12929TIP3    H260279   6.057   6.228   4.965  0.0275 -0.4906 -0.1519
12930TIP3   OH260280   1.826   4.830  12.527 -0.0265 -0.0914  0.0764
12930TIP3    H160281   1.743   4.872  12.505  0.3023  0.1029 -0.8407
12930TIP3    H260282   1.888   4.902  12.538 -0.1551 -0.1851  1.6322
12931TIP3   OH260283   2.833   1.536  15.285 -0.3473  0.5213  0.0673
12931TIP3    H160284   2.823   1.445  15.313  0.1802  0.8712  1.4365
12931TIP3    H260285   2.813   1.534  15.191 -2.0363 -0.6917  0.4196
12932TIP3   OH260286   4.900   1.441   4.289 -0.1784  0.0054  0.0212
12932TIP3    H160287   4.884   1.351   4.260 -1.8120  0.1280  0.4715
12932TIP3    H260288   4.905   1.492   4.208  0.8694 -0.4827 -0.2402
12933TIP3   OH260289   2.088   4.013  15.903  0.3046  0.2328 -0.5512
12933TIP3    H160290   2.126   4.027  15.816  0.3152 -0.0891 -0.5984
12933TIP3    H260291   2.105   3.921  15.922 -0.3845  0.0979 -0.5433
12934TIP3   OH260292   3.766   6.081  14.738  1.2340 -0.0963 -0.6747
12934TIP3    H160293   3.689   6.026  14.723  2.6932 -1.9477 -1.8783
12934TIP3    H260294   3.737   6.148  14.799 -0.8075 -1.8969  0.4433
12935TIP3   OH260295   0.757   6.017   2.150 -0.1547  0.2565  0.1778
12935TIP3    H160296   0.664   5.995   2.146  0.3510 -2.1334  0.0662
12935TIP3    H260297   0.760   6.112   2.138 -2.6661  0.5984  1.6612
12936TIP3   OH260298   1.095   1.556  10.975 -0.1066 -0.3513  0.2824
12936TIP3    H160299   1.179   1.598  10.957 -0.2131  1.1744  2.8668
12936TIP3    H260300   1.053   1.549  10.889  1.2119  2.0684 -0.6647
12937TIP3   OH260301   6.230   5.694   5.422 -0.3162 -0.1663 -0.0401
12937TIP3    H160302   6.210   5.773   5.372 -1.6760  1.2478  2.5438
12937TIP3    H260303   6.313   5.715   5.466 -0.7621 -0.0724  0.7748
12938TIP3   OH260304   5.085   6.004  11.937  0.4965 -0.0577 -0.7104
12938TIP3    H160305   5.121   6.017  11.850  1.2813 -2.0897 -0.7465
12938TIP3    H260306   4.993   6.028  11.930  0.7804  0.7330 -1.8374
12939TIP3   OH260307   5.347   1.882  16.201  0.5410 -0.7528 -0.3040
12939TIP3    H160308   5.339   1.973  16.229  4.7117  0.5520 -2.5494
12939TIP3    H260309   5.350   1.832  16.283 -0.5509  1.2167  1.0299
12940TIP3   OH260310   5.512   4.946  11.282  0.1557  0.0688  0.5868
12940TIP3    H160311   5.447   5.001  11.238  1.1203 -0.4474 -1.6424
12940TIP3    H260312   5.592   4.958  11.231  1.1301 -1.2625  1.7248
12941TIP3   OH260313   6.516   1.375   1.701 -0.3257 -0.7344 -0.3771
12941TIP3    H160314   6.498   1.329   1.619  0.2949  0.5912 -1.2890
12941TIP3    H260315   6.580   1.320   1.746  0.3823 -0.8097 -1.4394
12942TIP3   OH260316   2.842   6.153   0.487  0.1855  0.0967 -0.2388
12942TIP3    H160317   2.778   6.087   0.458  0.0177  0.1003  0.1147
12942TIP3    H260318   2.916   6.142   0.428  0.4464 -0.8926  0.2458
12943TIP3   OH260319   3.278   5.804   4.012  0.1202 -0.5072 -0.1473
12943TIP3    H160320   3.315   5.725   4.052 -0.3615 -0.8799 -0.4231
12943TIP3    H260321   3.287   5.872   4.079  1.0918 -0.6417 -0.1250
12944TIP3   OH260322   6.789   3.420   5.343  0.2443  0.2778  0.0308
12944TIP3    H160323   6.828   3.439   5.428 -0.1715 -2.3750  0.9215
12944TIP3    H260324   6.728   3.348   5.361 -1.5312  1.1288 -2.1445
12945TIP3   OH260325   3.521   3.265  10.533 -0.4021 -0.2992  0.4976
12945TIP3    H160326   3.461   3.279  10.460  1.1760 -0.3391 -0.8534
12945TIP3    H260327   3.546   3.172  10.527  1.4232  0.1997 -0.2968
12946TIP3   OH260328   5.243   3.147  14.044  0.5188  0.2932 -0.1577
12946TIP3    H160329   5.248   3.115  13.953 -0.7363  1.4884 -0.6851
12946TIP3    H260330   5.271   3.238  14.039  0.1400  0.4607  0.6007
12947TIP3   OH260331   1.713   0.916  15.902  0.2622 -0.3281 -0.5990
12947TIP3    H160332   1.731   0.855  15.974  1.8507  2.2281  1.3499
12947TIP3    H260333   1.619   0.909  15.888  0.1537 -1.9989  0.6693
12948TIP3   OH260334   1.489   5.917   4.752  0.2547  0.0627 -0.0583
12948TIP3    H160335   1.571   5.923   4.704  0.6291 -0.6270  0.4777
12948TIP3    H260336   1.506   5.961   4.836 -0.7939  2.4645 -1.0093
12949TIP3   OH260337   3.946   6.145   0.691 -0.1750 -0.0929 -0.1306
12949TIP3    H160338   3.884   6.215   0.712  1.4114  1.2314  0.3233
12949TIP3    H260339   3.974   6.112   0.777  3.3296  2.6357 -0.0278
12950TIP3   OH260340   1.150   2.531  12.002  0.2285  0.3723  0.9590
12950TIP3    H160341   1.156   2.626  11.993 -1.3462  0.4191  0.0906
12950TIP3    H260342   1.096   2.517  12.080  0.4606  0.1819  1.0877
12951TIP3   OH260343   6.746   4.446  11.262  0.0824  0.5181  0.4733
12951TIP3    H160344   6.720   4.355  11.246  0.0453  0.4084  1.1522
12951TIP3    H260345   6.663   4.493  11.271  0.0411  0.9936 -1.7822
12952TIP3   OH260346   1.325   3.820   5.567  0.5361 -0.3542 -0.1481
12952TIP3    H160347   1.390   3.889   5.557  1.2007 -0.7072  1.3876
12952TIP3    H260348   1.374   3.746   5.604 -0.6731 -0.7163  0.8026
12953TIP3   OH260349   1.513   4.113   2.324  0.6176  0.0126 -0.1255
12953TIP3    H160350   1.529   4.126   2.418 -2.9005 -0.2730  0.6525
12953TIP3    H260351   1.553   4.028   2.305 -1.5646 -1.6816  2.1077
12954TIP3   OH260352   4.068   2.190  14.094 -0.1580 -0.1545 -0.5694
12954TIP3    H160353   4.116   2.263  14.055  1.6721 -0.9016  0.1771
12954TIP3    H260354   4.059   2.214  14.186 -0.4630 -0.4135 -0.5311
12955TIP3   OH260355   3.833   0.622   1.861  0.1022  0.0636  0.4252
12955TIP3    H160356   3.896   0.641   1.930  1.6629 -0.3417 -0.8139
12955TIP3    H260357   3.849   0.689   1.795  0.3053 -0.9499 -0.5819
12956TIP3   OH260358   6.220   3.689  12.826 -0.5591 -0.5056 -0.2690
12956TIP3    H160359   6.249   3.625  12.890 -0.4294 -1.6993 -1.4740
12956TIP3    H260360   6.125   3.695  12.838 -0.5475 -0.7929 -0.0384
12957TIP3   OH260361   3.427   2.021  11.052 -0.2273  0.0794 -0.1972
12957TIP3    H160362   3.397   1.949  10.997 -0.6841  0.7174 -0.7955
12957TIP3    H260363   3.522   2.023  11.039 -0.3840  0.5841 -1.4330
12958TIP3   OH260364   0.949   6.434   2.794  0.5549 -0.2987 -0.3023
12958TIP3    H160365   1.012   6.363   2.776  0.4868 -0.4831  0.1852
12958TIP3    H260366   0.939   6.434   2.889  2.2051  1.7885 -0.0511
12959TIP3   OH260367   2.272   4.128   4.314  0.0879 -0.2315  0.7697
12959TIP3    H160368   2.303   4.199   4.370  1.5361 -1.2419  1.2923
12959TIP3    H260369   2.351   4.089   4.277 -0.7315 -0.8820 -0.3912
12960TIP3   OH260370   1.260   4.245   4.542 -0.0179 -0.3451  0.1315
12960TIP3    H160371   1.280   4.206   4.456 -1.7728 -1.1213  0.0369
12960TIP3    H260372   1.290   4.180   4.605  2.8512  0.9253  0.2833
12961TIP3   OH260373   6.537   2.267  12.883  0.2579  0.6382 -0.5857
12961TIP3    H160374   6.462   2.293  12.829 -0.4403  0.9381  0.4943
12961TIP3    H260375   6.553   2.343  12.939  0.5162  0.0899  0.1001
12962TIP3   OH260376   2.164   6.399   1.689  0.2587 -0.2964 -0.6107
12962TIP3    H160377   2.171   6.438   1.776 -1.1629  2.6617 -1.6891
12962TIP3    H260378   2.172   6.305   1.705  1.9852  0.2117  2.4413
12963TIP3   OH260379   1.133   1.267  10.898  0.2740 -0.3151  0.6757
12963TIP3    H160380   1.141   1.172  10.905 -0.3264 -0.4358 -0.0853
12963TIP3    H260381   1.038   1.282  10.894  0.3855  0.2160 -0.2548
12964TIP3   OH260382   4.290   3.635  15.520  0.1599  0.0357 -0.1801
12964TIP3    H160383   4.208   3.623  15.568 -0.0182  0.2490 -0.4243
12964TIP3    H260384   4.350   3.570  15.557 -0.6126 -1.2509 -1.1083
12965TIP3   OH260385   3.703   0.844  11.656  0.4434  0.6688  0.1693
12965TIP3    H160386   3.755   0.842  11.575  2.3310 -2.5707  1.2645
12965TIP3    H260387   3.746   0.910  11.710  0.5652  1.2665 -0.6423
12966TIP3   OH260388   5.616   5.961  13.537 -0.8399 -0.3938 -0.3626
12966TIP3    H160389   5.566   6.008  13.604 -0.2630 -1.1210  0.6043
12966TIP3    H260390   5.707   5.968  13.567 -0.3159  0.9330 -2.0995
12967TIP3   OH260391   5.929   1.264   3.242  0.2844 -0.1789 -0.5415
12967TIP3    H160392   5.883   1.180   3.252 -1.2368  0.5287 -1.1922
12967TIP3    H260393   5.882   1.309   3.171  1.2532  1.0951 -0.4126
12968TIP3   OH260394   6.707   0.468   2.377  0.8442  0.0242  0.3152
12968TIP3    H160395   6.710   0.424   2.462 -0.4867 -0.9709 -0.1214
12968TIP3    H260396   6.746   0.554   2.393  0.9835 -0.2950  1.8313
12969TIP3   OH260397   5.581   5.893   5.343  0.2129 -0.0749 -0.2366
12969TIP3    H160398   5.537   5.820   5.299 -0.5761 -0.1616  0.6578
12969TIP3    H260399   5.563   5.969   5.287 -0.5001 -0.2393 -0.2384
12970TIP3   OH260400   3.788   1.277   5.106 -0.6731  0.5227 -0.1036
12970TIP3    H160401   3.784   1.302   5.014 -1.0337  0.3475 -0.1385
12970TIP3    H260402   3.697   1.283   5.136 -0.9491 -1.7190 -0.3659
12971TIP3   OH260403   5.381   1.981   3.163 -0.2180  0.4266  0.0468
12971TIP3    H160404   5.414   1.918   3.227  0.9308 -0.2993 -1.1862
12971TIP3    H260405   5.385   2.065   3.207  0.4943 -0.0591  0.9401
12972TIP3   OH260406   6.179   1.798  11.298  0.2874  0.1457  0.0151
12972TIP3    H160407   6.174   1.728  11.233 -0.7825  1.7520 -1.7171
12972TIP3    H260408   6.226   1.869  11.254 -0.5690  1.3233  0.9261
12973TIP3   OH260409   1.980   3.147   3.074  0.1579 -0.3921 -0.5766
12973TIP3    H160410   2.019   3.148   3.162  1.0207 -1.0580 -0.9408
12973TIP3    H260411   1.919   3.221   3.074 -0.0251 -0.5198  0.6597
12974TIP3   OH260412   4.951   4.622   2.639 -0.0821  1.2588 -0.8265
12974TIP3    H160413   5.029   4.577   2.606  1.1373  1.9009  1.0426
12974TIP3    H260414   4.883   4.602   2.575  1.5255  0.4082 -2.3422
12975TIP3   OH260415   4.453   4.449   5.582  0.6473  0.5297  0.5492
12975TIP3    H160416   4.464   4.357   5.561 -1.5528  0.2189  0.4512
12975TIP3    H260417   4.488   4.458   5.671  1.8486 -0.1425  0.1586
12976TIP3   OH260418   0.755   0.940  14.068 -0.3834 -0.2437 -0.0198
12976TIP3    H160419   0.662   0.926  14.086 -0.3698  0.4547  0.6288
12976TIP3    H260420   0.782   1.006  14.131  0.8436 -1.2864  0.5910
12977TIP3   OH260421   4.696   6.543   0.089  0.4776  0.1273  0.5227
12977TIP3    H160422   4.660   6.605   0.025  2.0241 -0.8989 -1.4775
12977TIP3    H260423   4.784   6.575   0.107  0.8380 -0.7861  0.4344
12978TIP3   OH260424   4.640   3.446  12.109  0.4248 -0.0410 -0.2459
12978TIP3    H160425   4.596   3.450  12.194  1.7265 -0.3792  0.4735
12978TIP3    H260426   4.711   3.383  12.122 -0.7024 -1.8989 -2.2421
12979TIP3   OH260427   6.151   0.305   3.966 -0.5928 -0.6959  0.1855
12979TIP3    H160428   6.073   0.342   3.925 -0.5331  0.5766  1.1609
12979TIP3    H260429   6.127   0.215   3.986 -0.8987 -1.1178 -1.8621
12980TIP3   OH260430   0.713   6.514  15.260 -0.2440  0.0711 -0.2253
12980TIP3    H160431   0.637   6.565  15.290  0.3825  2.1572 -1.9090
12980TIP3    H260432   0.760   6.574  15.201  2.0003 -1.6115 -0.2723
12981TIP3   OH260433   4.479   0.021   4.167 -0.7370 -0.3228  0.8417
12981TIP3    H160434   4.470   0.114   4.186 -0.5396 -0.5365  2.0444
12981TIP3    H260435   4.423   0.006   4.091 -0.0395  0.9529  0.0424
12982TIP3   OH260436   4.458   2.451  16.143 -0.5441  0.6589 -0.5227
12982TIP3    H160437   4.470   2.482  16.053  0.5799  1.8109  0.0056
12982TIP3    H260438   4.546   2.427  16.172 -0.9492 -0.0572  0.1701
12983TIP3   OH260439   2.058   1.270  12.269 -0.0234  0.6738 -0.0272
12983TIP3    H160440   2.068   1.202  12.202 -1.2634  0.9202 -0.4940
12983TIP3    H260441   2.145   1.277  12.309  0.2019 -0.9847 -0.1466
12984TIP3   OH260442   3.345   3.558  17.011  0.0575  0.3581 -0.3956
12984TIP3    H160443   3.345   3.571  16.916 -0.4216 -0.1689 -0.4705
12984TIP3    H260444   3.261   3.591  17.040  0.1074  0.3032 -0.1854
12985TIP3   OH260445   5.440   4.600   3.013  0.6270  0.3586 -0.4064
12985TIP3    H160446   5.351   4.621   3.041  0.9309 -2.1245  3.1961
12985TIP3    H260447   5.491   4.679   3.032 -0.3639  0.9353 -0.0735
12986TIP3   OH260448   1.785   6.760  11.775 -0.2480  0.3321  0.0212
12986TIP3    H160449   1.834   6.839  11.799 -1.8481  1.7061 -0.9867
12986TIP3    H260450   1.740   6.734  11.855  1.3381 -0.4175  0.7180
12987TIP3   OH260451   3.407   4.303   5.526 -0.2359  0.1639 -0.8163
12987TIP3    H160452   3.346   4.273   5.459 -1.2019  1.9036 -0.7714
12987TIP3    H260453   3.380   4.258   5.605  0.2348 -1.0839 -1.3461
12988TIP3   OH260454   5.945   6.392  12.852  1.0672  0.3793  0.4501
12988TIP3    H160455   5.857   6.402  12.888  0.4090 -0.9505 -0.6855
12988TIP3    H260456   5.970   6.302  12.876  1.5356  0.2669 -0.4424
12989TIP3   OH260457   6.842   2.444  11.889 -0.5318  0.1220  0.6510
12989TIP3    H160458   6.810   2.374  11.945  1.9194 -0.6361  1.2467
12989TIP3    H260459   6.815   2.419  11.801  0.8048 -1.9579  0.7681
12990TIP3   OH260460   0.223   5.256  16.235 -0.2493  0.1780 -0.4060
12990TIP3    H160461   0.217   5.206  16.316 -1.9252  0.0704 -0.5534
12990TIP3    H260462   0.150   5.318  16.241 -0.1196  0.4648 -1.6378
12991TIP3   OH260463   1.388   5.668   1.687  0.0556  0.1190  0.0474
12991TIP3    H160464   1.369   5.761   1.704 -2.0057 -0.5002  1.6658
12991TIP3    H260465   1.348   5.651   1.601 -1.4843  0.2995  0.6856
12992TIP3   OH260466   3.529   1.915  14.895 -0.0650 -0.8473 -0.0156
12992TIP3    H160467   3.550   1.943  14.806  0.0313  1.8626  0.7775
12992TIP3    H260468   3.606   1.940  14.946 -0.8961 -0.5683  1.1299
12993TIP3   OH260469   3.291   0.725   6.142 -0.1781  0.5215  0.4855
12993TIP3    H160470   3.216   0.668   6.125  1.8878 -1.6847 -2.0848
12993TIP3    H260471   3.342   0.678   6.208  1.0997 -0.2434 -1.0057
12994TIP3   OH260472   4.637   4.037  12.165  0.1944  0.1224  0.3048
12994TIP3    H160473   4.719   4.079  12.140  0.8474  0.4204  2.6778
12994TIP3    H260474   4.574   4.064  12.099  1.5273  1.5960 -0.4201
12995TIP3   OH260475   6.351   0.199  15.572  0.3069  0.3907  0.7280
12995TIP3    H160476   6.366   0.229  15.482  0.1678 -0.0878  0.5424
12995TIP3    H260477   6.278   0.252  15.604 -1.1205 -0.9391 -0.2021
12996TIP3   OH260478   1.937   4.396  13.742  0.7632  0.0013 -0.0745
12996TIP3    H160479   1.887   4.386  13.661  0.2812  0.7134  0.1189
12996TIP3    H260480   1.983   4.479  13.732  1.5634 -0.4345 -0.0609
12997TIP3   OH260481   3.966   2.557  11.065 -0.0343  0.5391 -0.0113
12997TIP3    H160482   3.982   2.651  11.081  0.0524  0.5736 -0.2907
12997TIP3    H260483   3.986   2.546  10.972 -0.2969  0.2936 -0.0360
12998TIP3   OH260484   6.267   5.598  13.768  0.7994 -0.4064 -0.0389
12998TIP3    H160485   6.271   5.506  13.742  0.3116 -0.6275  0.6404
12998TIP3    H260486   6.174   5.621  13.764  0.8010 -0.2246  0.7206
12999TIP3   OH260487   5.889   5.716   4.163  0.3011 -0.1036  0.5775
12999TIP3    H160488   5.861   5.628   4.138 -1.7006  0.4630  0.6490
12999TIP3    H260489   5.954   5.740   4.096 -0.7613 -0.7982 -0.7557
13000TIP3   OH260490   1.947   5.214   1.251  0.1506  0.0581 -0.6619
13000TIP3    H160491   1.939   5.300   1.292 -0.1758 -0.4449  0.3572
13000TIP3    H260492   2.034   5.213   1.212  0.8675  0.1910  0.8877
13001TIP3   OH260493   3.374   3.972  15.499 -0.0746  0.0469  0.1910
13001TIP3    H160494   3.282   3.971  15.472 -0.5205  1.6454  1.4972
13001TIP3    H260495   3.390   4.062  15.525  2.0029 -0.1085 -0.3850
13002TIP3   OH260496   3.663   1.509  11.344  0.3388  0.0270  0.2759
13002TIP3    H160497   3.637   1.590  11.390 -1.5043 -0.0375 -0.5566
13002TIP3    H260498   3.742   1.533  11.296 -0.4378  1.4911 -0.3226
13003TIP3   OH260499   2.435   2.437  14.887 -0.0827 -0.6976 -0.3413
13003TIP3    H160500   2.392   2.496  14.825 -0.9569 -0.1321  0.7610
13003TIP3    H260501   2.364   2.384  14.923  0.4022 -0.9849  0.2072
13004TIP3   OH260502   4.309   0.592   5.718  0.0156 -0.3132 -0.0435
13004TIP3    H160503   4.357   0.516   5.751 -0.4332  0.0130  1.4169
13004TIP3    H260504   4.218   0.575   5.741 -0.4060 -0.2696 -1.5544
13005TIP3   OH260505   0.425   4.702   3.859  0.3960  0.3250  0.1906
13005TIP3    H160506   0.484   4.776   3.842  0.3478  0.8236  1.9848
13005TIP3    H260507   0.373   4.694   3.779  0.2118  2.4208  0.0371
13006TIP3   OH260508   0.290   6.537   3.006 -0.1163  0.2116 -0.0108
13006TIP3    H160509   0.300   6.515   2.913  0.9148  0.9930 -0.1094
13006TIP3    H260510   0.313   6.630   3.011 -0.6115  0.2912  0.9582
13007TIP3   OH260511   1.895   0.173  10.884 -0.2463  0.1733  0.4165
13007TIP3    H160512   1.847   0.130  10.813  0.3877  1.3240 -0.7426
13007TIP3    H260513   1.983   0.184  10.849  1.2131 -2.5920  2.7552
13008TIP3   OH260514   6.847   1.340   2.902  0.1539 -0.1622 -0.4123
13008TIP3    H160515   6.889   1.264   2.943 -2.8807 -1.0952  1.2831
13008TIP3    H260516   6.765   1.307   2.867 -0.5304  2.0531 -1.0888
13009TIP3   OH260517   3.927   0.817  15.125 -0.1469  0.0291  0.6713
13009TIP3    H160518   3.922   0.723  15.109  1.0595  0.1575 -0.6651
13009TIP3    H260519   3.913   0.826  15.219  0.7063 -1.5821  0.9899
13010TIP3   OH260520   1.776   5.461   5.351 -0.0299  0.6199 -0.0123
13010TIP3    H160521   1.839   5.482   5.282  1.4885 -0.3453  0.9865
13010TIP3    H260522   1.713   5.403   5.309  0.2943  0.8338 -0.8231
13011TIP3   OH260523   4.708   6.736  16.700 -0.3377  0.2506  0.2702
13011TIP3    H160524   4.641   6.682  16.658  0.9273 -1.3172  0.2037
13011TIP3    H260525   4.790   6.692  16.680  0.6355  1.5674  1.2309
13012TIP3   OH260526   0.620   6.376  13.601 -0.9168  0.5467  0.2115
13012TIP3    H160527   0.545   6.432  13.621 -0.2739  1.1217  1.0940
13012TIP3    H260528   0.581   6.292  13.576 -1.8885  1.2893 -0.8562
13013TIP3   OH260529   2.242   4.671   0.418  0.0374 -0.6057 -0.2765
13013TIP3    H160530   2.263   4.673   0.512  1.0786 -1.1608 -0.4850
13013TIP3    H260531   2.309   4.727   0.378 -0.5621 -0.1632 -0.6619
13014TIP3   OH260532   0.848   3.342   5.035 -0.0696  0.4795  0.0098
13014TIP3    H160533   0.886   3.281   4.973 -2.4635 -1.2716  0.0972
13014TIP3    H260534   0.863   3.302   5.121 -0.4210  0.7156  0.1873
13015TIP3   OH260535   2.864   0.983   2.012  0.4200 -0.1845 -0.1157
13015TIP3    H160536   2.858   1.032   2.095 -0.6565 -0.6783  0.1153
13015TIP3    H260537   2.921   0.909   2.032  0.6971  0.0622  0.0037
13016TIP3   OH260538   0.133   0.778  11.067 -0.0435  0.3225 -0.3834
13016TIP3    H160539   0.158   0.776  10.974  1.4459 -0.3542 -0.0121
13016TIP3    H260540   0.038   0.774  11.067 -0.0327 -0.7868 -1.8813
13017TIP3   OH260541   6.702   4.305   1.326  0.7034 -0.4581 -0.1550
13017TIP3    H160542   6.675   4.223   1.285  0.2348 -0.3359 -0.0927
13017TIP3    H260543   6.639   4.370   1.294  2.5119  0.4133 -2.2405
13018TIP3   OH260544   1.017   2.259  10.989 -0.5442  0.1713  0.5435
13018TIP3    H160545   1.076   2.325  10.953  0.2890 -1.1844 -0.6819
13018TIP3    H260546   1.044   2.250  11.080  0.4772  0.2967  0.2686
13019TIP3   OH260547   5.865   2.140   5.740 -0.7943 -0.1288 -0.2255
13019TIP3    H160548   5.874   2.154   5.646  1.1908 -0.4161 -0.1189
13019TIP3    H260549   5.830   2.051   5.748  1.2620 -1.0364 -0.7021
13020TIP3   OH260550   4.057   1.020  10.691 -0.2092 -0.4483 -0.2668
13020TIP3    H160551   3.962   1.019  10.688 -0.2035 -0.9375 -0.3770
13020TIP3    H260552   4.079   1.102  10.736 -0.6668 -0.1329 -0.6193
13021TIP3   OH260553   6.346   6.639   2.963 -0.2094  0.3054 -0.2804
13021TIP3    H160554   6.389   6.680   3.038 -1.8925  2.8935 -0.6046
13021TIP3    H260555   6.312   6.713   2.912  0.6777 -1.3421 -3.5116
13022TIP3   OH260556   3.935   3.559   0.767 -0.1391 -0.3240  0.0149
13022TIP3    H160557   3.922   3.635   0.712  2.0528  0.1627  0.0764
13022TIP3    H260558   3.906   3.485   0.713  0.9983  0.2333 -1.4108
13023TIP3   OH260559   5.178   0.024  14.143 -0.4187  0.3411 -0.2185
13023TIP3    H160560   5.185   0.117  14.164 -2.7938  0.8232 -1.2000
13023TIP3    H260561   5.101   0.018  14.086 -0.4859 -2.2554  0.0146
13024TIP3   OH260562   4.931   3.546   3.034 -0.3537 -0.0209 -0.7234
13024TIP3    H160563   4.989   3.623   3.032  1.0470 -1.0430 -2.5497
13024TIP3    H260564   4.965   3.493   3.106  0.8380 -0.4601 -1.5764
13025TIP3   OH260565   6.646   0.858   3.490 -0.5150  0.1868 -0.1028
13025TIP3    H160566   6.651   0.835   3.582 -0.4518 -0.8913 -0.3620
13025TIP3    H260567   6.673   0.950   3.487  1.4752 -0.3236  0.7233
13026TIP3   OH260568   6.746   4.275   5.903 -0.2113 -0.1231  0.2267
13026TIP3    H160569   6.817   4.247   5.961  0.6643 -0.0658 -0.7949
13026TIP3    H260570   6.721   4.195   5.856  0.7426  0.3104 -1.0563
13027TIP3   OH260571   3.986   1.665   3.214  0.1146  0.4491 -1.0389
13027TIP3    H160572   3.988   1.692   3.122 -0.8992 -1.2183 -1.5760
13027TIP3    H260573   3.935   1.734   3.258  2.4331  2.4443 -1.2398
13028TIP3   OH260574   3.175   4.556   4.695  0.2325  0.2613 -0.8275
13028TIP3    H160575   3.191   4.613   4.620  0.1002 -1.2690 -2.0732
13028TIP3    H260576   3.101   4.596   4.740  0.1873  1.1139 -1.6187
13029TIP3   OH260577   0.188   2.892   1.933  0.6547 -0.2581  0.1821
13029TIP3    H160578   0.205   2.832   2.006  1.3055 -0.1491  0.1247
13029TIP3    H260579   0.106   2.935   1.956  0.9937 -0.0242  0.9973
13030TIP3   OH260580   1.405   4.952   4.123 -0.1036  0.4469 -0.4090
13030TIP3    H160581   1.310   4.961   4.127 -0.0623  0.5862  0.8801
13030TIP3    H260582   1.436   5.037   4.091 -0.3828  0.6781 -0.0784
13031TIP3   OH260583   4.779   2.272   1.874  0.0581 -0.5402  0.1154
13031TIP3    H160584   4.818   2.221   1.803  2.0686 -0.7804  1.2895
13031TIP3    H260585   4.843   2.342   1.891 -1.5358  0.9787  0.0935
13032TIP3   OH260586   1.834   0.533  13.156  1.0484 -0.3471 -0.2814
13032TIP3    H160587   1.778   0.493  13.223  0.2005  0.4419 -0.5005
13032TIP3    H260588   1.838   0.468  13.086  3.2008 -1.8598  1.1140
13033TIP3   OH260589   0.611   0.524  13.688 -0.2095  0.1675 -0.7122
13033TIP3    H160590   0.679   0.488  13.631 -0.2436 -0.7326 -0.1950
13033TIP3    H260591   0.638   0.499  13.776  0.8087  3.0517 -0.0757
13034TIP3   OH260592   4.333   1.269   1.464  0.1141  0.1219  0.6368
13034TIP3    H160593   4.343   1.201   1.530  1.0803  0.4430  0.8532
13034TIP3    H260594   4.376   1.346   1.503  1.5772  0.0570 -0.7299
13035TIP3   OH260595   6.139   2.860   1.362 -0.2087  0.2991 -0.3339
13035TIP3    H160596   6.155   2.862   1.268  0.6630  0.1073 -0.2007
13035TIP3    H260597   6.195   2.789   1.394 -1.2007 -0.2644  0.2023
13036TIP3   OH260598   0.832   0.278   2.577 -0.2060 -0.4917  0.3283
13036TIP3    H160599   0.817   0.345   2.644  0.7461  0.5127 -0.4293
13036TIP3    H260600   0.895   0.218   2.616  0.9724  0.5374  0.0854
13037TIP3   OH260601   0.052   6.438  14.602  0.5981  0.2661 -0.2936
13037TIP3    H160602  -0.024   6.493  14.622  0.7622  0.1326  0.7362
13037TIP3    H260603   0.093   6.422  14.687  2.0849  0.7596 -0.8853
13038TIP3   OH260604   6.199   1.460   3.547 -0.2637  0.2093  0.7238
13038TIP3    H160605   6.231   1.449   3.457  0.3900  0.3051  0.9327
13038TIP3    H260606   6.112   1.421   3.547 -0.2298  0.1185  0.0721
13039TIP3   OH260607   0.318   2.596   1.227  0.2245 -0.2019 -0.5250
13039TIP3    H160608   0.315   2.692   1.231  1.0484 -0.2106  1.3261
13039TIP3    H260609   0.367   2.577   1.146  1.8610  1.0099  0.1130
13040TIP3   OH260610   1.865   0.615  11.132 -0.1486 -0.3158 -0.1105
13040TIP3    H160611   1.898   0.692  11.086  1.4840 -1.2079 -0.5238
13040TIP3    H260612   1.827   0.560  11.064 -0.7805 -0.1523  0.1020
13041TIP3   OH260613   4.414   5.965   3.400  0.0423 -0.1817 -0.2259
13041TIP3    H160614   4.406   6.051   3.358 -2.0379 -0.3105 -0.1873
13041TIP3    H260615   4.327   5.948   3.436  0.7352 -1.8136  0.7624
13042TIP3   OH260616   0.987   5.647  11.549  0.3007  0.1616 -0.1968
13042TIP3    H160617   0.975   5.734  11.587 -1.3764  0.2170 -0.7632
13042TIP3    H260618   0.899   5.622  11.518  0.8433 -1.5237 -0.4803
13043TIP3   OH260619   2.646   1.581   4.369 -0.1648  0.2046 -0.6092
13043TIP3    H160620   2.695   1.613   4.293 -0.4777 -0.8554 -1.2837
13043TIP3    H260621   2.579   1.648   4.384  2.0890  2.2367  1.0284
13044TIP3   OH260622   3.401   5.810  11.831 -0.3012 -0.0522  0.3578
13044TIP3    H160623   3.348   5.872  11.780  0.1738 -0.7621 -1.0605
13044TIP3    H260624   3.471   5.785  11.771  0.8603 -0.1739  1.7376
13045TIP3   OH260625   6.171   0.843   0.767  0.0414 -0.7109 -0.0929
13045TIP3    H160626   6.199   0.784   0.697  1.3432 -1.1206  0.7411
13045TIP3    H260627   6.244   0.903   0.779 -1.0589  0.7765 -0.5714
13046TIP3   OH260628   4.433   5.821  12.387 -0.1116 -0.0808  0.6807
13046TIP3    H160629   4.452   5.892  12.325 -1.5281 -1.9841 -2.1366
13046TIP3    H260630   4.363   5.856  12.442 -1.5513  0.4075 -1.3678
13047TIP3   OH260631   3.336   2.401  11.786  0.3061 -0.1157  0.2399
13047TIP3    H160632   3.398   2.452  11.837  0.8998 -0.6613  0.0764
13047TIP3    H260633   3.358   2.419  11.695  0.2119 -0.2970  0.1805
13048TIP3   OH260634   3.888   0.782   2.600  0.6560  0.3217  0.3031
13048TIP3    H160635   3.895   0.728   2.679 -1.1817  0.7552  0.8238
13048TIP3    H260636   3.796   0.810   2.599  0.5206  0.0014 -2.2054
13049TIP3   OH260637   1.693   0.986  12.974 -0.6542  0.3130 -0.2959
13049TIP3    H160638   1.602   0.986  12.945 -0.5041  0.4345 -0.7857
13049TIP3    H260639   1.718   0.894  12.975 -0.9386  0.2412  0.3527
13050TIP3   OH260640   4.114   3.058  14.686 -0.4800  0.0362  0.2900
13050TIP3    H160641   4.024   3.083  14.669 -1.0110 -2.6355 -1.4035
13050TIP3    H260642   4.119   3.048  14.781 -0.9618  3.3043  0.7908
13051TIP3   OH260643   2.926   0.935  15.405  0.1336  0.4018  0.0723
13051TIP3    H160644   2.984   0.881  15.352 -0.1880  1.1986 -1.1495
13051TIP3    H260645   2.953   1.025  15.386 -1.2687  0.7793 -0.2787
13052TIP3   OH260646   4.247   4.177   3.236 -0.2865  0.0020  0.2377
13052TIP3    H160647   4.196   4.256   3.253  0.5119  0.5367  0.2153
13052TIP3    H260648   4.337   4.209   3.225 -0.1837 -0.7365 -1.2873
13053TIP3   OH260649   2.749   5.696  13.010 -0.1564 -0.2976 -0.3086
13053TIP3    H160650   2.671   5.641  13.019 -0.9146  0.7516 -0.2766
13053TIP3    H260651   2.736   5.767  13.072  1.9664 -1.3303  1.4449
13054TIP3   OH260652   5.750   3.597  16.494 -0.4040  0.3612  0.4077
13054TIP3    H160653   5.664   3.638  16.510  0.2292  2.1435 -0.4311
13054TIP3    H260654   5.790   3.653  16.428  0.9848 -1.0795 -0.0141
13055TIP3   OH260655   0.514   2.677   0.384 -0.1919  0.0282 -0.4468
13055TIP3    H160656   0.574   2.660   0.456 -0.3179  0.1293 -0.3179
13055TIP3    H260657   0.566   2.729   0.322 -0.4239  0.9249  0.0918
13056TIP3   OH260658   5.594   6.150  12.020 -0.1569 -0.0488 -0.0002
13056TIP3    H160659   5.677   6.178  11.980  0.6953 -1.6852  0.5462
13056TIP3    H260660   5.586   6.204  12.099  1.9591 -1.8792  1.5721
13057TIP3   OH260661   4.363   1.562   0.050  0.2266 -0.0534  0.3948
13057TIP3    H160662   4.455   1.558   0.073  0.1194 -1.7814  0.6559
13057TIP3    H260663   4.324   1.486   0.093 -1.0187 -0.2659 -1.0157
13058TIP3   OH260664   4.583   4.801   3.701  0.0805 -0.4277  0.5617
13058TIP3    H160665   4.494   4.837   3.710 -0.2905 -1.6863  2.8157
13058TIP3    H260666   4.625   4.858   3.637 -2.3700  0.1431 -0.6845
13059TIP3   OH260667   4.183   3.682   6.252  0.0668  0.3549  0.2190
13059TIP3    H160668   4.179   3.756   6.313  1.2393 -0.7592  1.7371
13059TIP3    H260669   4.107   3.693   6.195 -1.1831  1.3790  1.9867
13060TIP3   OH260670   0.931   6.767  16.925  0.2032 -0.0127 -0.3331
13060TIP3    H160671   1.023   6.786  16.940 -0.2006 -0.0133  2.8828
13060TIP3    H260672   0.885   6.841  16.966 -1.2215 -1.1216  0.1310
13061TIP3   OH260673   5.163   6.053  11.678 -0.3214 -0.3374  0.0069
13061TIP3    H160674   5.206   6.138  11.688  0.8098 -1.0110  1.2581
13061TIP3    H260675   5.224   6.000  11.627 -0.4550 -0.7577  0.2714
13062TIP3   OH260676   2.750   3.403   4.632 -0.1636 -0.2897  0.1343
13062TIP3    H160677   2.802   3.345   4.688 -0.3977 -1.1099 -0.4663
13062TIP3    H260678   2.727   3.348   4.557 -0.9614  0.3909 -0.1326
13063TIP3   OH260679   1.925   1.523  13.200 -0.1610 -0.1429  0.5057
13063TIP3    H160680   1.987   1.578  13.247  0.0669 -0.0900  0.1514
13063TIP3    H260681   1.937   1.435  13.236 -0.3129 -0.0160  0.8631
13064TIP3   OH260682   0.082   0.408  15.438  0.6903  0.2773 -0.3407
13064TIP3    H160683   0.044   0.419  15.526  2.8321  0.0660  0.6740
13064TIP3    H260684   0.082   0.496  15.401 -1.5863  0.1560 -0.7913
13065TIP3   OH260685   5.505   2.321  10.867  0.2324 -0.3082 -0.0234
13065TIP3    H160686   5.561   2.264  10.920 -0.5355 -0.1689  0.9752
13065TIP3    H260687   5.564   2.359  10.802  0.7339 -2.3450 -0.8152
13066TIP3   OH260688   4.925   1.090   1.146 -0.0705  0.5256 -0.4442
13066TIP3    H160689   4.970   1.079   1.062 -1.5003  1.0966 -1.3167
13066TIP3    H260690   4.867   1.014   1.152 -0.1698  0.6266 -0.0914
13067TIP3   OH260691   3.596   5.197   1.910  0.2187  0.0644  0.3074
13067TIP3    H160692   3.537   5.128   1.881  2.3480 -1.2422 -1.2537
13067TIP3    H260693   3.642   5.159   1.985  2.3751 -0.9367 -1.3716
13068TIP3   OH260694   2.964   5.523   5.062  0.2704  0.2670 -0.1051
13068TIP3    H160695   2.915   5.448   5.096  1.4109  0.0822  1.2061
13068TIP3    H260696   2.912   5.553   4.987 -1.1014 -0.7650  0.3815
13069TIP3   OH260697   4.889   5.682  16.601 -0.1483  0.1229  0.1414
13069TIP3    H160698   4.923   5.694  16.690  0.5482 -2.2394  0.2594
13069TIP3    H260699   4.952   5.624  16.559 -0.8992  0.5454 -1.6594
13070TIP3   OH260700   2.124   2.848  16.199 -0.5358  0.3929 -0.3128
13070TIP3    H160701   2.169   2.801  16.130 -2.0072  0.2424 -1.2234
13070TIP3    H260702   2.094   2.929  16.158 -0.6121  0.7389  0.4069
13071TIP3   OH260703   6.509   3.327  16.682  0.2192  0.2399 -0.2347
13071TIP3    H160704   6.428   3.288  16.647 -0.6235  1.3095  0.4613
13071TIP3    H260705   6.481   3.373  16.761  1.8919 -1.2713  1.3372
13072TIP3   OH260706   6.164   3.290   4.431 -0.1117 -0.1741  0.0109
13072TIP3    H160707   6.096   3.300   4.364  0.2691  0.0910 -0.3463
13072TIP3    H260708   6.235   3.347   4.401  0.0098  0.0516  0.7158
13073TIP3   OH260709   3.794   1.319  12.932 -0.2665 -0.0711 -0.0501
13073TIP3    H160710   3.878   1.339  12.891  0.9413 -2.5304  1.0023
13073TIP3    H260711   3.736   1.300  12.858  0.9534 -1.2068 -0.7727
13074TIP3   OH260712   0.891   6.632   0.296  0.1195  0.2077  0.4390
13074TIP3    H160713   0.914   6.550   0.252 -2.1491  0.7969 -2.0979
13074TIP3    H260714   0.917   6.701   0.234 -0.8887  1.2262  1.1078
13075TIP3   OH260715   2.362   3.050  12.467  0.8243 -0.1283 -0.2272
13075TIP3    H160716   2.295   3.069  12.401 -0.6100  2.8916  1.8352
13075TIP3    H260717   2.317   2.995  12.532  1.6969 -1.6199 -0.8393
13076TIP3   OH260718   0.345   3.588  13.444 -0.3016 -0.2481  0.5637
13076TIP3    H160719   0.423   3.611  13.393 -0.5488  0.0167  0.2994
13076TIP3    H260720   0.302   3.672  13.460 -1.2443 -0.5129 -0.4542
13077TIP3   OH260721   6.042   5.410  15.846  0.9610  0.2892  0.1173
13077TIP3    H160722   6.025   5.500  15.876  2.5025  0.3303  0.9890
13077TIP3    H260723   5.956   5.368  15.849 -0.1276  2.1505 -1.9377
13078TIP3   OH260724   3.083   0.073   5.032  0.2232 -0.1088 -0.3567
13078TIP3    H160725   3.088   0.152   4.979  0.1341  0.0157 -0.1811
13078TIP3    H260726   3.126   0.096   5.114 -0.5389  0.0189  0.0131
13079TIP3   OH260727   3.146   1.677  16.960  0.4929  1.0944  0.6491
13079TIP3    H160728   3.190   1.600  16.925 -0.5257  1.0180 -0.5177
13079TIP3    H260729   3.194   1.751  16.923  0.5189  1.0223  0.5393
13080TIP3   OH260730   4.263   1.232  13.710 -0.6119 -0.3784  0.0107
13080TIP3    H160731   4.301   1.245  13.797 -2.5357 -1.0705  1.0246
13080TIP3    H260732   4.223   1.317  13.689 -1.0389 -0.5027  0.2948
13081TIP3   OH260733   4.521   0.872  12.944 -0.5719  0.0882 -0.4378
13081TIP3    H160734   4.590   0.921  12.989 -0.0213 -0.0892 -1.0728
13081TIP3    H260735   4.490   0.809  13.009 -1.1604  1.1352  0.3308
13082TIP3   OH260736   2.636   2.095  13.711  0.0821  0.2939  0.0443
13082TIP3    H160737   2.587   2.177  13.708 -0.0775  0.1954 -0.1785
13082TIP3    H260738   2.687   2.094  13.629 -1.0752 -0.5148 -0.7071
13083TIP3   OH260739   6.584   4.976   6.091  0.0247  0.0238 -0.2610
13083TIP3    H160740   6.528   5.016   6.025 -0.1459  0.3731  0.0851
13083TIP3    H260741   6.567   5.028   6.170  0.5406 -0.1161 -0.0558
13084TIP3   OH260742   1.454   3.391   1.055  0.7619 -0.4646 -0.4174
13084TIP3    H160743   1.470   3.485   1.044 -0.2102  0.2440  2.9989
13084TIP3    H260744   1.515   3.350   0.994  1.7131  2.3363 -1.5607
13085TIP3   OH260745   4.345   6.192   4.263 -0.2545  0.4329  0.0932
13085TIP3    H160746   4.282   6.127   4.293 -0.4137  0.4865 -0.1288
13085TIP3    H260747   4.404   6.204   4.338 -1.3453  1.4438  0.8142
13086TIP3   OH260748   4.184   5.776  16.955 -0.0749 -0.0069 -0.0922
13086TIP3    H160749   4.239   5.845  16.918  1.1372 -1.2454 -0.6769
13086TIP3    H260750   4.170   5.716  16.882  0.3627 -1.2767  0.8473
13087TIP3   OH260751   4.317   1.725  13.623  0.0306 -0.1485  0.0377
13087TIP3    H160752   4.365   1.786  13.679 -0.6824 -2.0683  2.9608
13087TIP3    H260753   4.362   1.641  13.635 -1.6249 -1.1291 -0.3595
13088TIP3   OH260754   6.041   3.708   4.198 -0.4057 -0.0656 -0.4482
13088TIP3    H160755   6.015   3.621   4.166 -1.1882  0.0469 -0.1403
13088TIP3    H260756   6.010   3.710   4.289  2.0646 -0.4994  0.4593
13089TIP3   OH260757   4.985   5.057   4.021  0.9661 -0.0897 -0.0992
13089TIP3    H160758   5.027   5.011   4.094  0.6129 -0.1405  0.0711
13089TIP3    H260759   4.905   5.007   4.005  1.3046 -0.4084 -0.8790
13090TIP3   OH260760   3.601   2.077   2.544  0.3542  0.1131  0.2740
13090TIP3    H160761   3.671   2.056   2.605 -0.5671  0.1266  1.3567
13090TIP3    H260762   3.647   2.105   2.464  1.5816 -1.0608  0.5195
13091TIP3   OH260763   6.232   5.977  11.529 -0.7607 -0.3052  0.3951
13091TIP3    H160764   6.323   5.995  11.550 -0.7341  0.1516 -0.0901
13091TIP3    H260765   6.236   5.925  11.448 -0.9520  0.4147 -0.0851
13092TIP3   OH260766   6.015   0.765  14.739 -0.0376  0.2367  0.0511
13092TIP3    H160767   6.009   0.781  14.833  1.8020  0.8125  0.1263
13092TIP3    H260768   6.072   0.835  14.707 -0.9806  0.3129 -1.5843
13093TIP3   OH260769   2.378   1.346  13.998 -0.1635 -0.3671  0.3140
13093TIP3    H160770   2.408   1.433  14.022 -0.1676 -0.0170 -0.8594
13093TIP3    H260771   2.369   1.349  13.902 -0.0124 -1.6977  0.2304
13094TIP3   OH260772   3.241   6.304   1.445 -0.6248 -0.1198 -1.0668
13094TIP3    H160773   3.270   6.276   1.532  3.5018  0.9149 -1.8706
13094TIP3    H260774   3.218   6.396   1.456  3.9772  1.3392 -1.5270
13095TIP3   OH260775   2.006   2.879  12.177 -0.4857  0.1404 -0.2427
13095TIP3    H160776   1.994   2.916  12.264  0.0598 -0.9863  0.3230
13095TIP3    H260777   1.991   2.953  12.118 -0.9325  0.9025  0.7906
13096TIP3   OH260778   0.731   1.687   1.907 -0.1891 -0.3182 -0.4695
13096TIP3    H160779   0.815   1.646   1.889 -0.4415 -0.3881 -1.5083
13096TIP3    H260780   0.750   1.780   1.915  0.4577 -0.5906  2.3085
13097TIP3   OH260781   2.051   5.391  12.272  0.1554 -0.6448 -0.3497
13097TIP3    H160782   2.119   5.445  12.232 -0.0126 -0.3003 -0.1663
13097TIP3    H260783   1.988   5.375  12.201  0.4373 -0.9890 -0.5284
13098TIP3   OH260784   1.050   3.467   6.310 -0.0809 -0.4386 -0.0175
13098TIP3    H160785   1.068   3.561   6.309 -1.5056 -0.0903  1.6346
13098TIP3    H260786   1.134   3.426   6.292  0.8421  1.1234  0.5362
13099TIP3   OH260787   6.691   0.138   3.657  0.1579 -0.1155  0.4364
13099TIP3    H160788   6.700   0.224   3.616 -0.9532 -0.6711 -1.0371
13099TIP3    H260789   6.755   0.083   3.612 -1.5693 -0.9106 -1.1583
13100TIP3   OH260790   1.360   4.433  10.362  0.2548  0.0569  0.1102
13100TIP3    H160791   1.394   4.343  10.365  1.8785  0.6286 -0.4793
13100TIP3    H260792   1.294   4.435  10.432  0.0954 -1.6150  0.0655
13101TIP3   OH260793   1.161   1.740   3.418 -0.5454 -0.2123 -0.2895
13101TIP3    H160794   1.105   1.718   3.343 -0.7889  0.8498 -0.4298
13101TIP3    H260795   1.108   1.718   3.494 -1.3095  1.0868 -0.4170
13102TIP3   OH260796   0.129   0.981  16.157 -0.5136 -0.2197  0.0032
13102TIP3    H160797   0.129   0.941  16.244  0.1294 -1.9458 -0.7274
13102TIP3    H260798   0.077   0.921  16.103 -0.0626  0.2808 -1.0229
13103TIP3   OH260799   5.962   0.263  13.276 -0.4817  0.3320 -0.7233
13103TIP3    H160800   5.945   0.326  13.345 -0.2456  0.1623 -0.5080
13103TIP3    H260801   5.905   0.188  13.296 -0.3919  0.2707 -0.6944
13104TIP3   OH260802   5.398   2.990  14.545 -0.4152 -0.0495  0.1231
13104TIP3    H160803   5.425   2.898  14.543 -0.7580 -0.1586  0.5087
13104TIP3    H260804   5.397   3.017  14.453  0.4502 -0.2038  0.0538
13105TIP3   OH260805   4.577   0.057  11.716 -0.3035 -0.4339  0.1289
13105TIP3    H160806   4.561   0.143  11.754  0.6235  0.1366 -0.7258
13105TIP3    H260807   4.601   0.075  11.625 -1.3707 -1.6890 -0.4296
13106TIP3   OH260808   2.663   5.990   6.416 -0.2642  1.0058 -0.0899
13106TIP3    H160809   2.594   6.038   6.463  0.0116  1.5805 -0.2563
13106TIP3    H260810   2.735   6.053   6.409 -0.1561  0.8067 -0.9423
13107TIP3   OH260811   5.218   4.123   0.085  0.1877 -0.1232  0.9504
13107TIP3    H160812   5.193   4.196   0.028  1.5957  1.5719  2.3909
13107TIP3    H260813   5.255   4.058   0.026  0.1432  0.8971 -0.2443
13108TIP3   OH260814   3.353   0.717   4.428  0.1346 -0.1820 -0.5232
13108TIP3    H160815   3.421   0.653   4.451 -0.3710 -0.5870 -0.1322
13108TIP3    H260816   3.387   0.800   4.463  1.4504  0.0721 -2.2524
13109TIP3   OH260817   4.418   6.113   2.944 -0.2259 -0.3352  0.1681
13109TIP3    H160818   4.437   6.139   2.854 -0.3261 -1.5091 -0.2056
13109TIP3    H260819   4.431   6.193   2.995 -1.3011  0.6637 -1.0313
13110TIP3   OH260820   2.890   5.323  14.949  0.1553 -0.2838 -0.4006
13110TIP3    H160821   2.852   5.355  15.031 -1.3319  0.9180 -1.5015
13110TIP3    H260822   2.960   5.264  14.976 -1.2624 -1.0976  1.7395
13111TIP3   OH260823   4.371   4.225  14.179 -0.1000 -0.4447  0.2491
13111TIP3    H160824   4.411   4.306  14.146 -0.8101 -0.3961 -0.5107
13111TIP3    H260825   4.360   4.170  14.102 -1.0507 -0.6523  0.5153
13112TIP3   OH260826   6.274   5.182  15.110 -0.8259  0.4718  0.2718
13112TIP3    H160827   6.291   5.096  15.150  0.5586 -0.0799 -1.3908
13112TIP3    H260828   6.193   5.170  15.061 -2.4515  1.1063  2.5907
13113TIP3   OH260829   6.679   0.766   0.612 -0.3806 -0.3628 -0.1596
13113TIP3    H160830   6.741   0.822   0.565  0.2421 -0.0470  0.9995
13113TIP3    H260831   6.601   0.766   0.557  1.2696 -2.4390 -2.7367
13114TIP3   OH260832   0.897   0.397   4.626  0.2724 -0.2805  0.1194
13114TIP3    H160833   0.878   0.305   4.614 -0.4217 -0.0428 -0.6859
13114TIP3    H260834   0.936   0.425   4.544 -2.4824  0.8525 -0.9299
13115TIP3   OH260835   3.961   5.516   3.799 -0.6513  0.0878  0.2481
13115TIP3    H160836   3.920   5.470   3.726  1.6011 -1.7538  0.0290
13115TIP3    H260837   3.894   5.519   3.867 -2.4742  0.9580 -1.4979
13116TIP3   OH260838   4.883   3.703   4.502 -0.0986  0.6075 -0.2110
13116TIP3    H160839   4.870   3.734   4.412  1.1891 -0.5444 -0.8222
13116TIP3    H260840   4.851   3.613   4.501  0.8773  0.2518  0.2134
13117TIP3   OH260841   4.050   5.548  11.848  0.0436 -0.3654  0.1693
13117TIP3    H160842   4.027   5.587  11.764 -0.7046 -0.8280  0.1518
13117TIP3    H260843   4.123   5.490  11.829 -0.0923 -0.4328 -0.1563
13118TIP3   OH260844   3.291   5.301   4.623 -0.1146  0.1575 -0.1191
13118TIP3    H160845   3.235   5.248   4.679 -0.3792 -2.1524 -2.3985
13118TIP3    H260846   3.336   5.238   4.566  3.0363  2.0836 -0.0204
13119TIP3   OH260847   1.387   3.409  12.234  0.5865 -0.3374 -0.8588
13119TIP3    H160848   1.451   3.464  12.278 -0.4074 -0.3229  0.6434
13119TIP3    H260849   1.311   3.465  12.222  0.0465 -0.9889 -0.5425
13120TIP3   OH260850   4.869   1.907   2.677  0.9489 -0.1492  0.3258
13120TIP3    H160851   4.919   1.827   2.663  1.5604  0.3395 -0.3585
13120TIP3    H260852   4.897   1.966   2.607  0.6591  0.7349  0.9303
13121TIP3   OH260853   5.451   1.239   5.758 -0.7849  0.0921  0.0671
13121TIP3    H160854   5.531   1.210   5.715 -1.0944  0.7243 -0.9790
13121TIP3    H260855   5.384   1.176   5.729 -0.5297 -0.9696  1.6426
13122TIP3   OH260856   4.530   5.502   1.032 -0.5457 -0.5412 -0.3805
13122TIP3    H160857   4.551   5.426   1.086  2.0406  0.8435  0.6991
13122TIP3    H260858   4.457   5.544   1.076 -0.5155 -1.1542  0.2644
13123TIP3   OH260859   6.352   4.203   0.013  0.1306  0.3167  0.0525
13123TIP3    H160860   6.416   4.189   0.082  0.0369 -0.2178  0.0388
13123TIP3    H260861   6.358   4.125  -0.042 -3.3566 -1.8604  2.3059
13124TIP3   OH260862   5.389   5.556  11.410  0.7159 -0.4123  0.3911
13124TIP3    H160863   5.450   5.631  11.412 -2.4561  2.5262 -1.5392
13124TIP3    H260864   5.405   5.516  11.325  0.9449 -0.5709  0.5077
13125TIP3   OH260865   5.806   2.517   3.358  0.4796 -0.7332 -0.0180
13125TIP3    H160866   5.873   2.506   3.426 -0.8720 -1.9540  1.1972
13125TIP3    H260867   5.759   2.433   3.358 -0.4797 -0.2167 -1.4542
13126TIP3   OH260868   5.612   4.502  16.187  0.5332  0.3521 -0.1229
13126TIP3    H160869   5.597   4.545  16.271  0.2550 -0.3352  0.1858
13126TIP3    H260870   5.550   4.543  16.128 -0.4999 -0.3811  0.4307
13127TIP3   OH260871   3.967   4.829  10.742 -0.0675 -0.2131  0.1043
13127TIP3    H160872   3.972   4.816  10.648  0.6631 -0.0052  0.1029
13127TIP3    H260873   3.950   4.742  10.778 -0.0412 -0.3443 -0.1977
13128TIP3   OH260874   6.830   1.102  14.087 -0.1190  0.1643  0.2814
13128TIP3    H160875   6.797   1.031  14.141 -1.5691 -0.3908 -1.2482
13128TIP3    H260876   6.797   1.182  14.130 -1.6215 -0.2860  0.0251
13129TIP3   OH260877   6.621   1.996   5.414 -0.0950 -0.4443  0.1006
13129TIP3    H160878   6.709   2.032   5.417 -0.3247  0.0518  1.6614
13129TIP3    H260879   6.590   2.017   5.326  0.3047  1.9648  0.4634
13130TIP3   OH260880   6.672   0.050  11.889 -0.4510 -0.0525  0.3330
13130TIP3    H160881   6.671   0.003  11.973  2.3579 -1.5150 -0.3360
13130TIP3    H260882   6.707   0.137  11.910 -2.3405  0.5978  1.0214
13131TIP3   OH260883   2.044   0.672   0.138 -0.2874 -0.5263  0.4093
13131TIP3    H160884   1.951   0.669   0.113 -0.2826 -0.2655  0.3561
13131TIP3    H260885   2.090   0.685   0.055 -0.2055 -0.6401  0.4379
13132TIP3   OH260886   1.976   1.325  11.148  0.6017 -0.0947  0.0121
13132TIP3    H160887   1.980   1.229  11.147 -1.3008 -0.2275  0.5092
13132TIP3    H260888   1.882   1.344  11.139  0.8018  1.6867  1.4109
13133TIP3   OH260889   2.998   2.593   3.152  0.2142 -0.3151  0.1414
13133TIP3    H160890   2.919   2.600   3.098  0.2436 -0.5847  0.0567
13133TIP3    H260891   2.989   2.661   3.218 -1.7277 -2.3915  2.2310
13134TIP3   OH260892   2.480   5.907   4.837  0.2116  0.4103  0.2464
13134TIP3    H160893   2.500   5.928   4.746 -1.5659 -0.5497 -0.4184
13134TIP3    H260894   2.413   5.971   4.862  0.1954  0.2398  0.6445
13135TIP3   OH260895   2.183   2.354  14.391 -0.5341 -0.0905  0.4661
13135TIP3    H160896   2.149   2.281  14.340  0.5440  0.6441 -1.4150
13135TIP3    H260897   2.155   2.432  14.343  0.4692  0.6413  1.0170
13136TIP3   OH260898   1.306   2.303   0.240  0.4125  0.0072 -0.2596
13136TIP3    H160899   1.224   2.255   0.232  0.8001 -0.6445 -0.3673
13136TIP3    H260900   1.283   2.394   0.220 -0.2362 -0.2062 -0.4973
13137TIP3   OH260901   6.288   2.963  14.496  0.4584  0.3744  0.2190
13137TIP3    H160902   6.258   3.054  14.492 -0.3412  0.5183  4.5409
13137TIP3    H260903   6.217   2.913  14.456 -2.1650  1.3681  3.1689
13138TIP3   OH260904   5.245   4.420   3.240 -0.1984 -0.1140  0.5182
13138TIP3    H160905   5.313   4.419   3.307 -0.9373 -0.3812  1.2644
13138TIP3    H260906   5.186   4.348   3.263  0.3444 -1.2136 -1.2595
13139TIP3   OH260907   4.617   5.803  11.401 -0.5643 -0.0384  0.3326
13139TIP3    H160908   4.708   5.807  11.431 -1.4050 -1.8519  3.5372
13139TIP3    H260909   4.603   5.711  11.380 -1.5694  0.3225 -0.6630
13140TIP3   OH260910   4.961   2.876   2.085 -0.1390  0.1548  0.0914
13140TIP3    H160911   5.014   2.946   2.122 -1.3185  1.2094 -0.1315
13140TIP3    H260912   4.940   2.819   2.159  0.4715  0.2782  0.3579
13141TIP3   OH260913   4.292   6.346  12.826 -0.1794  0.3785 -0.1715
13141TIP3    H160914   4.257   6.402  12.756  0.3252  1.9197  0.7528
13141TIP3    H260915   4.387   6.361  12.822 -0.1647  0.6405  0.9417
13142TIP3   OH260916   2.874   2.283  11.672  0.1450  0.4945 -0.0618
13142TIP3    H160917   2.947   2.226  11.696  1.0129  2.0120  1.1221
13142TIP3    H260918   2.810   2.270  11.742 -1.3719 -1.7867 -1.7492
13143TIP3   OH260919   1.613   5.054  14.700  0.5100  0.2803  0.9496
13143TIP3    H160920   1.560   5.014  14.768  0.2609 -0.6785  0.2088
13143TIP3    H260921   1.609   5.148  14.718 -1.4547  0.2338  0.9016
13144TIP3   OH260922   0.573   4.725  15.477  0.0627 -0.0344 -0.6185
13144TIP3    H160923   0.601   4.709  15.567 -1.1577  1.4255  0.0554
13144TIP3    H260924   0.516   4.651  15.455 -1.1552  0.5438  0.5005
13145TIP3   OH260925   6.031   0.670   6.272  0.4270  0.1271 -0.0191
13145TIP3    H160926   6.069   0.693   6.187 -1.2954  1.1404 -0.5749
13145TIP3    H260927   6.089   0.710   6.336  1.6449 -0.4837 -0.7058
13146TIP3   OH260928   6.264   2.597   2.574 -0.1795  0.2105  0.0843
13146TIP3    H160929   6.247   2.670   2.634 -2.4800 -0.0538 -0.1784
13146TIP3    H260930   6.240   2.631   2.488 -0.8690 -0.7172 -0.1013
13147TIP3   OH260931   3.574   0.885   1.239  0.0304  0.4052  0.3295
13147TIP3    H160932   3.664   0.888   1.272 -0.0140  1.0605  0.3930
13147TIP3    H260933   3.528   0.953   1.287  0.3080  2.4005 -2.0210
13148TIP3   OH260934   6.067   2.228   6.427 -0.5262 -0.3399 -0.4474
13148TIP3    H160935   6.029   2.174   6.358 -2.1494 -1.5031  1.2557
13148TIP3    H260936   6.113   2.298   6.380 -0.9887 -1.4376 -2.6829
13149TIP3   OH260937   5.876   2.150   3.821 -0.1967 -0.7609 -0.4240
13149TIP3    H160938   5.963   2.165   3.784 -0.2065  1.0588  0.2089
13149TIP3    H260939   5.848   2.066   3.783  1.8663 -1.4525 -0.5451
13150TIP3   OH260940   3.750   6.202  13.390  0.4183  0.2486  0.1578
13150TIP3    H160941   3.687   6.147  13.343  0.6626  0.9461 -1.0125
13150TIP3    H260942   3.781   6.146  13.462 -1.7056 -0.0084  0.9228
13151TIP3   OH260943   3.961   6.338   3.067  0.0889 -0.2113  0.4766
13151TIP3    H160944   4.002   6.283   3.000  0.7042  0.8242 -0.0190
13151TIP3    H260945   3.989   6.427   3.045 -2.4217  0.5721  0.0735
13152TIP3   OH260946   2.268   6.294   1.330  0.2186 -0.3327  0.4272
13152TIP3    H160947   2.263   6.240   1.251 -2.1812  0.3126  0.0462
13152TIP3    H260948   2.278   6.383   1.299  4.2628 -0.3804  1.0609
13153TIP3   OH260949   4.420   3.555   4.757  0.1701  0.2901  0.1134
13153TIP3    H160950   4.423   3.563   4.662  0.4913 -1.7609 -0.1042
13153TIP3    H260951   4.329   3.531   4.776 -0.1422  1.6377  0.4580
13154TIP3   OH260952   3.620   2.070   4.384 -0.1906 -0.1014 -0.5545
13154TIP3    H160953   3.610   1.982   4.347  0.2672 -0.5578  0.3637
13154TIP3    H260954   3.558   2.073   4.457 -2.5505  1.4908 -2.4924
13155TIP3   OH260955   0.118   6.864   3.995 -0.3962  0.5276  0.1221
13155TIP3    H160956   0.183   6.806   4.033  2.1748  1.5567 -2.3204
13155TIP3    H260957   0.137   6.950   4.033 -0.0663  0.8939 -0.8411
13156TIP3   OH260958   0.916   5.731  12.731  0.1634  0.4060 -0.3599
13156TIP3    H160959   0.998   5.726  12.683 -0.7019  1.3161 -2.0333
13156TIP3    H260960   0.925   5.808  12.787  0.9102 -0.2409  0.4299
13157TIP3   OH260961   3.389   3.879   2.894  0.5692  0.4693  0.2195
13157TIP3    H160962   3.424   3.907   2.809 -1.1429 -1.6125 -1.2646
13157TIP3    H260963   3.296   3.898   2.889  0.0983 -1.4633  0.7946
13158TIP3   OH260964   1.925   0.227  15.877  0.1185 -0.2448 -0.1412
13158TIP3    H160965   2.016   0.241  15.851 -0.6852  1.3687 -2.5008
13158TIP3    H260966   1.921   0.255  15.968  1.7592  0.7105 -0.3175
13159TIP3   OH260967   2.307   4.566  12.550 -0.2400 -0.8851 -0.0163
13159TIP3    H160968   2.282   4.650  12.590 -0.5382 -0.9209 -0.1221
13159TIP3    H260969   2.277   4.573  12.459 -0.9016 -1.3716  0.1534
13160TIP3   OH260970   1.055   2.820  15.606  0.6549  0.2808 -0.3416
13160TIP3    H160971   1.087   2.857  15.524  0.3954 -0.1035 -0.6194
13160TIP3    H260972   1.044   2.895  15.664  1.3743  0.4961 -0.4718
13161TIP3   OH260973   0.493   2.842   3.672 -0.3406  0.0483  0.2941
13161TIP3    H160974   0.514   2.910   3.609  1.3428 -0.9609 -0.3047
13161TIP3    H260975   0.530   2.762   3.634 -2.7305 -1.3322  0.7049
13162TIP3   OH260976   6.027   0.908  13.517  0.0351  0.5920 -0.0182
13162TIP3    H160977   5.982   0.938  13.438 -0.4881  0.8826  0.3787
13162TIP3    H260978   5.987   0.959  13.588 -0.3701 -0.5181  0.5826
13163TIP3   OH260979   6.395   3.689   1.978 -0.1705 -0.2977  0.3802
13163TIP3    H160980   6.410   3.667   1.887 -1.3692  0.7659 -0.1138
13163TIP3    H260981   6.314   3.740   1.977  0.3078  0.5581  1.9154
13164TIP3   OH260982   0.266   5.961  15.471 -0.5094  0.2258 -0.4620
13164TIP3    H160983   0.233   5.979  15.383 -1.1302 -0.0067 -0.2852
13164TIP3    H260984   0.264   6.046  15.515  0.0773  0.3966 -0.7558
13165TIP3   OH260985   5.134   5.266  14.823 -0.4003 -0.0860 -0.4250
13165TIP3    H160986   5.162   5.325  14.893 -1.2388  2.0802 -1.8164
13165TIP3    H260987   5.041   5.285  14.811 -0.5048 -1.1256 -1.4642
13166TIP3   OH260988   5.784   3.599   0.239  0.2176 -0.2390 -0.2795
13166TIP3    H160989   5.876   3.621   0.254  0.3086 -0.1912 -0.9003
13166TIP3    H260990   5.747   3.589   0.327  0.9248 -0.7135 -0.0266
13167TIP3   OH260991   4.522   2.188   4.169  0.0274  0.6719 -0.2322
13167TIP3    H160992   4.541   2.246   4.243  1.2121  1.1436 -0.8836
13167TIP3    H260993   4.586   2.117   4.177 -0.2203  0.4207 -0.4765
13168TIP3   OH260994   3.560   1.450   4.600 -0.3777 -0.1635 -0.0286
13168TIP3    H160995   3.603   1.437   4.516 -0.9240 -0.3426 -0.2886
13168TIP3    H260996   3.482   1.395   4.595 -0.4208 -0.1690  0.5930
13169TIP3   OH260997   4.876   2.732  15.758  0.4531  0.2517 -0.0256
13169TIP3    H160998   4.952   2.690  15.719  0.6286  0.4246  0.1242
13169TIP3    H260999   4.809   2.730  15.690  0.4994 -0.1573 -0.0610
13170TIP3   OH261000   2.104   5.066  16.157 -0.6839  0.4201 -0.7102
13170TIP3    H161001   2.161   4.990  16.169 -2.1591 -0.5003  0.9924
13170TIP3    H261002   2.123   5.122  16.232  0.1782  1.6213 -1.8012
13171TIP3   OH261003   1.291   0.099   2.937 -0.2856 -0.0781  0.3105
13171TIP3    H161004   1.315   0.191   2.942  0.4780 -0.3163  1.8634
13171TIP3    H261005   1.204   0.094   2.977  0.6143 -0.2845  2.3881
13172TIP3   OH261006   4.251   6.746  10.650 -0.1783  0.5551 -0.0934
13172TIP3    H161007   4.285   6.832  10.628  0.2065  0.1595 -1.1356
13172TIP3    H261008   4.329   6.692  10.665 -0.3912  0.1574 -0.3884
13173TIP3   OH261009   1.760   0.353  11.944  0.2624 -0.3804 -0.1543
13173TIP3    H161010   1.768   0.365  11.849  0.9768 -1.9346 -0.3182
13173TIP3    H261011   1.838   0.395  11.980  0.2466 -0.2259 -0.2988
13174TIP3   OH261012   1.037   3.170   5.944  0.0465 -0.2287  0.1721
13174TIP3    H161013   1.115   3.213   5.909  0.2440  0.8559  1.8635
13174TIP3    H261014   0.973   3.240   5.955 -1.2609 -1.1301 -1.3248
13175TIP3   OH261015   6.138   2.498   3.158 -0.4000 -0.4388 -0.0178
13175TIP3    H161016   6.105   2.443   3.228 -2.4068  1.6669  0.8251
13175TIP3    H261017   6.230   2.513   3.180 -0.4468 -1.4934  0.9846
13176TIP3   OH261018   1.567   3.133  12.459  0.2629  0.1680 -0.3831
13176TIP3    H161019   1.553   3.223  12.431  0.6126 -0.2792 -2.1005
13176TIP3    H261020   1.654   3.111  12.427  0.4317 -0.5930  0.5559
13177TIP3   OH261021   0.273   2.914   0.389 -0.8549 -0.5248 -0.2349
13177TIP3    H161022   0.312   2.900   0.303 -0.1758  1.0760 -0.2168
13177TIP3    H261023   0.332   2.869   0.450 -1.2405 -1.5050 -0.5674
13178TIP3   OH261024   0.741   4.675  12.211  0.0950 -0.7127 -0.1053
13178TIP3    H161025   0.648   4.676  12.233 -0.5197 -0.3796 -2.5301
13178TIP3    H261026   0.771   4.588  12.238 -0.7605 -0.6471  1.1531
13179TIP3   OH261027   6.297   2.876  16.220  0.6570 -0.6943 -0.3541
13179TIP3    H161028   6.356   2.938  16.262  0.6143 -1.7329  1.3339
13179TIP3    H261029   6.349   2.797  16.206  0.1318 -1.0331 -0.4480
13180TIP3   OH261030   2.122   5.319  10.978 -0.1898  0.4857 -0.6095
13180TIP3    H161031   2.118   5.295  10.885  1.2523 -1.1856 -0.2958
13180TIP3    H261032   2.162   5.406  10.978  2.0008 -0.4349 -1.5207
13181TIP3   OH261033   2.838   2.968  15.783  0.0289  0.1629 -0.2136
13181TIP3    H161034   2.843   2.872  15.791  0.4569 -0.0171 -2.1523
13181TIP3    H261035   2.926   2.993  15.754  0.0529  1.2117  0.7260
13182TIP3   OH261036   0.864   2.454  11.392  0.3328 -0.1905 -0.2783
13182TIP3    H161037   0.942   2.406  11.421  0.2383 -0.1488  0.0514
13182TIP3    H261038   0.831   2.496  11.472  0.3358  0.3137 -0.5341
13183TIP3   OH261039   0.742   1.225   5.134 -0.5174 -0.5498 -0.6181
13183TIP3    H161040   0.715   1.305   5.090 -0.8996 -0.1731  0.2734
13183TIP3    H261041   0.772   1.167   5.064  1.4722  1.0038 -1.1584
13184TIP3   OH261042   0.450   6.055  14.315  0.0465  0.4704  0.4177
13184TIP3    H161043   0.415   6.143  14.320  0.4472  0.6027  0.9812
13184TIP3    H261044   0.402   6.014  14.243 -0.3659  1.0409  0.3634
13185TIP3   OH261045   6.234   3.320  13.324 -0.3980  0.6590  0.5155
13185TIP3    H161046   6.208   3.269  13.400 -1.0209  0.9453  0.4963
13185TIP3    H261047   6.306   3.270  13.285 -0.5611  0.1377  0.8738
13186TIP3   OH261048   2.932   2.317  13.859 -0.0297  0.0520 -0.3684
13186TIP3    H161049   2.877   2.253  13.815  1.0271 -1.1344 -0.0361
13186TIP3    H261050   3.021   2.284  13.848  0.5727  1.5415 -0.2856
13187TIP3   OH261051   4.687   2.901   2.400 -0.1031  0.3676  0.1506
13187TIP3    H161052   4.594   2.882   2.392 -0.3907  0.5898  2.4217
13187TIP3    H261053   4.729   2.815   2.396 -0.5181  0.1513  0.4613
13188TIP3   OH261054   0.672   1.561  12.375  0.1447 -0.4460 -0.0439
13188TIP3    H161055   0.751   1.562  12.322 -0.2469 -0.9305 -0.6578
13188TIP3    H261056   0.652   1.653  12.392  0.7771 -0.3207  0.0256
13189TIP3   OH261057   4.226   3.638  16.797 -0.2709 -0.5050 -0.4016
13189TIP3    H161058   4.294   3.583  16.759 -0.6717 -0.7306 -0.8080
13189TIP3    H261059   4.215   3.605  16.886  1.3825  0.6783  0.2825
13190TIP3   OH261060   5.128   4.412  11.885  0.3298 -0.3141  0.1252
13190TIP3    H161061   5.216   4.411  11.846  0.4148  1.1172  0.2527
13190TIP3    H261062   5.081   4.479  11.837  0.1094  0.7309  1.7538
13191TIP3   OH261063   2.105   3.326  14.869 -0.0947 -0.0238 -0.3742
13191TIP3    H161064   2.135   3.412  14.896  0.2722 -0.0810 -0.5972
13191TIP3    H261065   2.163   3.265  14.914 -0.4978 -0.1643 -0.0366
13192TIP3   OH261066   1.985   5.858  15.578  0.0746 -0.4407 -0.1042
13192TIP3    H161067   1.909   5.806  15.604 -0.5076  0.4631  0.0227
13192TIP3    H261068   2.039   5.863  15.657 -0.4026  0.0574  0.2011
13193TIP3   OH261069   2.349   1.660   4.811 -0.1629  0.2780  0.5232
13193TIP3    H161070   2.298   1.602   4.867  0.1319 -0.1605  0.3471
13193TIP3    H261071   2.287   1.727   4.783 -1.3320 -1.5282 -1.5995
13194TIP3   OH261072   4.567   3.920  14.670 -0.1410  0.4700 -0.4146
13194TIP3    H161073   4.480   3.895  14.637  0.1975  0.0534 -1.0041
13194TIP3    H261074   4.551   3.999  14.721 -0.9145  0.2438 -0.2870
13195TIP3   OH261075   4.729   3.996   6.067 -0.6820 -0.1130  0.2694
13195TIP3    H161076   4.727   3.913   6.018 -1.6253 -0.3379  0.6569
13195TIP3    H261077   4.748   3.970   6.157  1.6728  0.3566 -0.0420
13196TIP3   OH261078   6.691   1.971  12.533 -0.1203 -0.1609  0.7536
13196TIP3    H161079   6.625   1.902  12.545 -0.1101 -0.1802  0.6949
13196TIP3    H261080   6.767   1.926  12.498 -0.5812  0.0969 -0.6479
13197TIP3   OH261081   4.181   4.698  14.845 -0.0095  0.2904 -0.0243
13197TIP3    H161082   4.108   4.638  14.831  0.0179 -0.0041  0.9686
13197TIP3    H261083   4.141   4.784  14.854 -0.6229 -0.1859  3.2852
13198TIP3   OH261084   4.678   2.825  15.972 -0.2286  0.3257  0.0931
13198TIP3    H161085   4.715   2.913  15.963  0.7008 -0.2144 -1.7837
13198TIP3    H261086   4.613   2.819  15.901 -1.1119 -0.1229  0.9167
13199TIP3   OH261087   4.022   4.940   0.912 -0.0830  0.1954 -0.3952
13199TIP3    H161088   4.039   4.887   0.834 -2.0137 -1.6954  0.3647
13199TIP3    H261089   4.102   4.933   0.964 -0.2796 -2.0623 -0.3163
13200TIP3   OH261090   1.969   5.151   3.594 -0.1052  0.0205 -0.0495
13200TIP3    H161091   2.041   5.132   3.655  0.1751  0.6630 -0.1643
13200TIP3    H261092   1.993   5.236   3.556 -0.1595 -0.4740 -1.2217
13201TIP3   OH261093   0.955   1.818  15.018  0.3086 -0.0485  0.4279
13201TIP3    H161094   1.023   1.884  15.004  1.4165 -1.3352 -0.4298
13201TIP3    H261095   0.877   1.869  15.042  1.8135  1.4058  2.5957
13202TIP3   OH261096   1.703   2.891  12.801 -0.0261 -0.4108  0.2070
13202TIP3    H161097   1.757   2.923  12.729 -1.3889 -0.9877 -1.1263
13202TIP3    H261098   1.748   2.812  12.831  1.2386  0.5260  0.8987
13203TIP3   OH261099   0.557   1.456  15.380 -0.2362  0.0968  0.5734
13203TIP3    H161100   0.526   1.365  15.379  0.5002 -0.1620  0.3890
13203TIP3    H261101   0.557   1.480  15.473  0.5607 -0.4543  0.7304
13204TIP3   OH261102   3.635   3.158   1.221 -0.1239 -0.1684  0.7239
13204TIP3    H161103   3.614   3.118   1.305  0.1409  2.7272  2.2889
13204TIP3    H261104   3.731   3.159   1.219 -0.1186 -0.8773  0.0060
13205TIP3   OH261105   3.665   4.457   0.240 -0.0708 -0.1042 -0.2379
13205TIP3    H161106   3.662   4.540   0.288  1.2001  0.1076 -0.4961
13205TIP3    H261107   3.623   4.394   0.299 -1.0922  0.7088 -0.0551
13206TIP3   OH261108   6.830   5.229   1.071  0.0356 -0.4628 -0.0919
13206TIP3    H161109   6.846   5.273   0.987  2.5916 -0.0687  0.4977
13206TIP3    H261110   6.825   5.136   1.049 -2.1135 -0.2022 -0.9502
13207TIP3   OH261111   6.236   4.352   4.714 -0.3007 -0.0241 -0.4097
13207TIP3    H161112   6.316   4.300   4.708 -0.7324 -0.7991  0.4782
13207TIP3    H261113   6.250   4.409   4.789 -0.0493  0.7983 -1.0590
13208TIP3   OH261114   1.043   1.625   3.638  0.5149  0.4294  0.0788
13208TIP3    H161115   1.041   1.609   3.732  0.2803  2.1046  0.4050
13208TIP3    H261116   0.960   1.589   3.606 -0.6230  2.1221  0.9779
13209TIP3   OH261117   6.834   0.764   1.240  0.0028  0.0389  0.1554
13209TIP3    H161118   6.836   0.843   1.293 -1.1279 -0.2317  0.6390
13209TIP3    H261119   6.752   0.720   1.265  0.3896 -1.0604 -0.4192
13210TIP3   OH261120   1.539   1.588  15.112 -0.1343  0.4625  0.4147
13210TIP3    H161121   1.490   1.524  15.163 -0.8699 -0.1256 -0.9765
13210TIP3    H261122   1.521   1.672  15.154 -2.2657  0.2544  0.0159
13211TIP3   OH261123   4.705   2.790   5.578  0.2119 -0.3248 -0.6050
13211TIP3    H161124   4.794   2.769   5.607 -0.4449 -0.6690  1.2764
13211TIP3    H261125   4.693   2.882   5.599 -0.0216 -0.3847 -0.4742
13212TIP3   OH261126   6.580   2.875  14.894 -0.0014  0.3341 -0.1411
13212TIP3    H161127   6.616   2.801  14.844  0.2152 -1.5006  2.4952
13212TIP3    H261128   6.486   2.866  14.884 -0.0563 -1.2289  1.2026
13213TIP3   OH261129   1.995   0.335   2.239 -0.1437  0.0023  0.2999
13213TIP3    H161130   1.964   0.424   2.261 -2.3592 -0.8042  0.7450
13213TIP3    H261131   1.970   0.323   2.148  0.4504 -0.0620  0.1415
13214TIP3   OH261132   4.057   5.016   4.398  0.2307 -0.2880  0.4734
13214TIP3    H161133   4.015   5.070   4.465 -1.2953 -1.7386  0.7506
13214TIP3    H261134   4.151   5.020   4.419  0.0154  1.1012  1.2999
13215TIP3   OH261135   1.079   2.683   2.487  0.2782 -0.1141  0.5298
13215TIP3    H161136   1.172   2.699   2.501  0.1069  0.2805  1.2491
13215TIP3    H261137   1.034   2.745   2.544 -0.4251 -1.6266  1.7121
13216TIP3   OH261138   1.641   2.763  16.569  0.6571  0.5307  0.4684
13216TIP3    H161139   1.595   2.784  16.650  0.6608  0.8687  0.3805
13216TIP3    H261140   1.609   2.676  16.545 -0.7175  1.1814 -0.1505
13217TIP3   OH261141   5.186   5.045   3.164  0.3560 -0.0797  0.3100
13217TIP3    H161142   5.192   5.127   3.213  0.0068  0.0426  0.1501
13217TIP3    H261143   5.135   4.987   3.221 -0.3767  0.1841 -0.0630
13218TIP3   OH261144   4.881   2.897   1.230  0.0674 -0.1187 -0.3003
13218TIP3    H161145   4.964   2.849   1.224 -0.3724 -1.1261  1.1728
13218TIP3    H261146   4.830   2.849   1.295 -1.2821  1.0848 -0.4180
13219TIP3   OH261147   1.167   6.804   3.223 -0.1280 -0.1108  0.1663
13219TIP3    H161148   1.203   6.797   3.135  0.5417  2.0665  0.2052
13219TIP3    H261149   1.076   6.832   3.210 -0.2839 -0.6097  0.1636
13220TIP3   OH261150   1.096   4.485  12.094  0.1790 -0.1201 -0.1518
13220TIP3    H161151   1.040   4.415  12.059  1.2538 -1.5478  0.8857
13220TIP3    H261152   1.041   4.530  12.158  0.1771 -1.4994  0.8468
13221TIP3   OH261153   1.479   0.072  12.712  0.0931  0.8205  0.2515
13221TIP3    H161154   1.543   0.085  12.783  0.1059  2.1994  0.0128
13221TIP3    H261155   1.507   0.133  12.644 -1.0057  0.8424 -0.1913
13222TIP3   OH261156   3.421   5.276  16.617 -0.6922  0.3250  0.0862
13222TIP3    H161157   3.436   5.365  16.648 -2.3038  0.6544 -0.0029
13222TIP3    H261158   3.400   5.285  16.524 -0.7489 -0.1620  0.0471
13223TIP3   OH261159   6.840   5.335  15.980 -0.4765 -0.0392 -0.3896
13223TIP3    H161160   6.830   5.358  16.073  1.2936 -1.9616  0.3628
13223TIP3    H261161   6.772   5.269  15.964  0.3944 -1.0988  0.1225
13224TIP3   OH261162   4.259   1.852  14.272 -0.2394 -0.2796  1.1249
13224TIP3    H161163   4.346   1.879  14.245  0.6469 -3.2326  0.6869
13224TIP3    H261164   4.220   1.813  14.194 -2.2106  1.4008  1.1784
13225TIP3   OH261165   5.595   3.980  14.560  0.0149  0.0657 -0.2969
13225TIP3    H161166   5.648   3.985  14.640  0.0268 -0.4094 -0.2700
13225TIP3    H261167   5.651   3.933  14.498  0.1465  0.7468 -0.7055
13226TIP3   OH261168   1.204   4.179   0.101 -0.2491  0.3341  0.1448
13226TIP3    H161169   1.268   4.108   0.090  0.7040  0.9341  1.4890
13226TIP3    H261170   1.222   4.214   0.188 -0.7422  2.1813 -0.4445
13227TIP3   OH261171   4.461   1.333  16.574 -0.3957 -0.3380 -0.2430
13227TIP3    H161172   4.531   1.387  16.611 -1.3033  1.3575 -0.8902
13227TIP3    H261173   4.454   1.364  16.484 -2.4247  0.0240  0.0057
13228TIP3   OH261174   4.559   1.424  12.737  0.0732 -0.2341  0.2975
13228TIP3    H161175   4.635   1.482  12.741 -0.8787  0.9875  1.7957
13228TIP3    H261176   4.557   1.381  12.823  0.7275 -2.5086 -0.7536
13229TIP3   OH261177   1.779   3.650   4.498 -0.1810 -0.2706  0.0027
13229TIP3    H161178   1.761   3.560   4.525  0.7884 -0.6945 -0.7286
13229TIP3    H261179   1.700   3.676   4.450 -0.8348 -0.4044  0.9632
13230TIP3   OH261180   4.995   1.896  16.258 -0.0105 -0.4377  0.0599
13230TIP3    H161181   5.052   1.947  16.316 -0.2477 -2.7077  2.5060
13230TIP3    H261182   5.054   1.833  16.216 -0.0540  0.3335 -1.2066
13231TIP3   OH261183   2.189   6.425   0.111 -0.3132 -0.2474 -0.4230
13231TIP3    H161184   2.227   6.435   0.199  0.8777 -0.7600 -0.8531
13231TIP3    H261185   2.198   6.511   0.071 -1.5592  0.1934  0.2099
13232TIP3   OH261186   3.659   4.261   5.404 -0.2826 -0.4209 -0.2353
13232TIP3    H161187   3.586   4.282   5.462  1.0801  0.4796  1.2305
13232TIP3    H261188   3.733   4.310   5.440  1.3454 -2.2336 -0.9542
13233TIP3   OH261189   0.503   0.556   2.325  0.6747 -0.1672  0.2403
13233TIP3    H161190   0.424   0.528   2.370  0.7440  0.8534  1.0308
13233TIP3    H261191   0.570   0.494   2.353  0.3372 -0.5706  0.1736
13234TIP3   OH261192   4.016   6.120  15.855 -0.1838 -0.2898 -0.2252
13234TIP3    H161193   3.937   6.073  15.883  0.2071 -0.2864  0.9168
13234TIP3    H261194   4.060   6.145  15.936 -0.0581  1.5359 -0.8063
13235TIP3   OH261195   4.314   5.447   5.578 -0.0298  0.3680 -0.2073
13235TIP3    H161196   4.396   5.492   5.597  0.1948 -0.0589 -0.1753
13235TIP3    H261197   4.273   5.435   5.664 -0.2056  0.7172 -0.2356
13236TIP3   OH261198   5.961   4.087  16.838 -0.4333  0.4173  0.1258
13236TIP3    H161199   5.953   3.992  16.835 -0.5914  0.4182  0.4827
13236TIP3    H261200   6.002   4.105  16.923 -1.3554  0.7341  0.5144
13237TIP3   OH261201   1.879   5.046   1.798 -0.0504  0.2135 -0.1036
13237TIP3    H161202   1.817   5.069   1.730 -1.0925  0.1671  0.8035
13237TIP3    H261203   1.891   5.128   1.848  0.7140  0.2546 -0.3366
13238TIP3   OH261204   6.638   0.195   1.618  0.5768 -0.5627 -0.1403
13238TIP3    H161205   6.546   0.172   1.608  0.6558 -0.7680 -0.4181
13238TIP3    H261206   6.638   0.290   1.630  0.4703 -0.1994 -2.4448
13239TIP3   OH261207   5.738   3.635   1.200  0.2133 -0.4166  0.0209
13239TIP3    H161208   5.656   3.668   1.164  0.4850  0.3361  0.0687
13239TIP3    H261209   5.759   3.557   1.148 -0.1733 -0.2119 -0.4414
13240TIP3   OH261210   2.247   1.920  12.594 -0.2068 -0.0977 -0.5149
13240TIP3    H161211   2.245   1.878  12.680  0.8811 -0.3682 -0.6110
13240TIP3    H261212   2.285   2.007  12.610  1.6848 -0.7934 -0.9518
13241TIP3   OH261213   4.057   4.191   3.763 -0.3891 -0.2965  0.7725
13241TIP3    H161214   4.001   4.251   3.713  0.0475 -0.0743  0.5465
13241TIP3    H261215   4.066   4.232   3.849  1.2794  0.8424  0.1067
13242TIP3   OH261216   4.409   0.587  15.856  0.0444 -0.3439  0.1658
13242TIP3    H161217   4.480   0.557  15.799  0.5088  0.2980  0.3992
13242TIP3    H261218   4.384   0.673  15.821  0.4407  0.1289  1.0108
13243TIP3   OH261219   3.814   1.315   4.143 -0.2508  0.0104 -0.1620
13243TIP3    H161220   3.755   1.287   4.072 -1.0070 -0.1986  0.5283
13243TIP3    H261221   3.870   1.239   4.158  0.0109  0.1065 -0.6309
13244TIP3   OH261222   1.152   4.530  16.357 -0.4019  0.5530  0.1689
13244TIP3    H161223   1.063   4.535  16.391  0.4622  1.4200  2.5502
13244TIP3    H261224   1.153   4.590  16.282 -2.1945 -0.7791 -0.9926
13245TIP3   OH261225   0.112   6.429   4.022  0.2501 -0.2171 -0.4816
13245TIP3    H161226   0.185   6.387   4.068  0.8905  1.5123  0.1645
13245TIP3    H261227   0.041   6.364   4.025  0.9128 -0.9328  1.1987
13246TIP3   OH261228   0.556   6.465  16.117 -0.1713 -0.0102 -0.4652
13246TIP3    H161229   0.616   6.392  16.101  1.2422  0.7548  1.0034
13246TIP3    H261230   0.476   6.423  16.150  0.4509 -0.9394 -0.0660
13247TIP3   OH261231   2.262   4.694  15.736 -0.1056 -0.2728 -0.2777
13247TIP3    H161232   2.210   4.628  15.689 -0.7078 -0.2141  0.2769
13247TIP3    H261233   2.197   4.741  15.788  0.6030 -0.7307  1.0662
13248TIP3   OH261234   0.047   6.498  12.715 -0.8623 -0.0246 -0.0824
13248TIP3    H161235   0.024   6.500  12.622  0.5482 -0.0848 -0.4481
13248TIP3    H261236   0.055   6.405  12.736 -3.2582 -0.1384  0.6791
13249TIP3   OH261237   2.824   1.549   0.939  0.2027 -0.3216  0.1756
13249TIP3    H161238   2.869   1.466   0.923  0.0661 -0.5825  1.0796
13249TIP3    H261239   2.731   1.529   0.922 -0.0912 -0.8928  2.2087
13250TIP3   OH261240   1.309   3.127  12.265  0.0634 -0.0164 -0.6717
13250TIP3    H161241   1.348   3.214  12.256  1.1855 -0.6107 -1.8715
13250TIP3    H261242   1.215   3.144  12.273  0.2564  1.2968 -0.8714
13251TIP3   OH261243   6.110   0.361   6.134 -0.1191 -0.5801  0.1682
13251TIP3    H161244   6.034   0.304   6.144  0.8935 -2.2196 -1.0553
13251TIP3    H261245   6.095   0.408   6.052  0.8095 -2.0376 -0.9032
13252TIP3   OH261246   4.174   5.427   1.659 -0.7014  0.3333 -0.0922
13252TIP3    H161247   4.120   5.392   1.730  0.1733  1.9980  1.4635
13252TIP3    H261248   4.202   5.513   1.690  1.4019  0.2571 -1.5738
13253TIP3   OH261249   2.089   1.722  14.446  0.3973 -0.0009 -0.4412
13253TIP3    H161250   2.097   1.644  14.391 -1.6151 -1.2436  0.9026
13253TIP3    H261251   1.997   1.747  14.438 -0.0455 -0.4182  2.5263
13254TIP3   OH261252   0.036   0.197  16.802  0.4097 -0.1117 -0.3377
13254TIP3    H161253   0.087   0.225  16.877 -0.3985 -0.9619  0.5630
13254TIP3    H261254  -0.052   0.183  16.837 -0.1287  0.0586 -1.5739
13255TIP3   OH261255   4.520   2.259  11.035 -0.2758 -0.1650 -0.2012
13255TIP3    H161256   4.431   2.237  11.007 -0.5166  0.0226  0.4025
13255TIP3    H261257   4.510   2.339  11.086  0.0497 -0.8450  0.9801
13256TIP3   OH261258   0.647   3.087  11.259 -0.0344 -0.0789  0.0394
13256TIP3    H161259   0.731   3.112  11.296 -1.1023  0.9493  1.9275
13256TIP3    H261260   0.641   3.137  11.177  1.3569 -0.5565 -0.3862
13257TIP3   OH261261   5.432   6.645   5.429 -0.3669 -0.1099  0.8975
13257TIP3    H161262   5.447   6.651   5.334 -0.9026 -1.3072  0.7282
13257TIP3    H261263   5.379   6.722   5.449 -1.4685 -0.6017 -0.0355
13258TIP3   OH261264   2.441   3.108  14.974 -0.0815 -0.5063 -0.2354
13258TIP3    H161265   2.348   3.090  14.958 -0.6609  1.7436  0.3455
13258TIP3    H261266   2.449   3.112  15.069  0.6256 -0.6554 -0.2794
13259TIP3   OH261267   5.138   3.077  13.221  0.3402 -0.3065 -0.7043
13259TIP3    H161268   5.128   2.982  13.217  0.4007 -0.4036  0.9012
13259TIP3    H261269   5.232   3.090  13.236  0.1045 -0.0946  0.7681
13260TIP3   OH261270   5.517   2.081  11.383 -0.5120  0.0432 -0.0304
13260TIP3    H161271   5.460   2.138  11.332  0.7708  0.4181 -1.0689
13260TIP3    H261272   5.577   2.140  11.428  0.8435 -0.4445 -1.1326
13261TIP3   OH261273   5.580   5.140  15.423  0.5132 -0.3116 -0.7019
13261TIP3    H161274   5.640   5.149  15.349 -0.8651 -0.1254 -1.8409
13261TIP3    H261275   5.517   5.211  15.411  0.5394  0.0122  0.9314
13262TIP3   OH261276   1.416   4.408   3.239  0.4117 -0.2330 -0.3558
13262TIP3    H161277   1.409   4.423   3.334 -2.5181  0.8260 -0.6224
13262TIP3    H261278   1.492   4.460   3.212  0.7128  0.2253  1.2810
13263TIP3   OH261279   2.196   4.073   0.084  0.3168 -0.3300  0.2408
13263TIP3    H161280   2.281   4.117   0.082  1.4939 -2.4080  1.0645
13263TIP3    H261281   2.168   4.070  -0.007  0.0305  2.2621  0.1633
13264TIP3   OH261282   1.109   5.682   5.134 -0.5300 -0.1318 -0.2324
13264TIP3    H161283   1.016   5.690   5.113 -0.2986  0.3026 -1.1513
13264TIP3    H261284   1.144   5.624   5.066 -0.8201 -3.6412  2.2881
13265TIP3   OH261285   0.594   4.547  11.284  0.9243  0.3212 -0.1237
13265TIP3    H161286   0.573   4.515  11.196  2.5819  1.1073 -0.8485
13265TIP3    H261287   0.523   4.609  11.304  1.1394  1.0567 -1.4454
13266TIP3   OH261288   3.240   6.431   5.043  0.2191  0.3037  0.3154
13266TIP3    H161289   3.148   6.406   5.052 -0.3252  1.5019 -1.4297
13266TIP3    H261290   3.237   6.520   5.006  2.0811  0.3449  0.1889
13267TIP3   OH261291   0.311   2.607  14.524 -0.4476  0.1321  0.0080
13267TIP3    H161292   0.293   2.574  14.435  0.1837  0.4761 -0.2527
13267TIP3    H261293   0.313   2.702  14.514  0.7314  0.1329  0.1660
13268TIP3   OH261294   5.460   5.688  12.932  0.1269  0.6406  1.0031
13268TIP3    H161295   5.366   5.699  12.945  0.1955  1.9388  0.6149
13268TIP3    H261296   5.468   5.605  12.885 -0.8931  0.8788  0.3612
13269TIP3   OH261297   3.319   2.469   1.588 -0.0489  0.2200 -0.1033
13269TIP3    H161298   3.301   2.387   1.543  0.5564  0.6449 -1.1745
13269TIP3    H261299   3.275   2.461   1.672 -0.9976 -0.7161 -0.6669
13270TIP3   OH261300   6.049   4.015   0.901 -0.3813  0.1135 -0.0379
13270TIP3    H161301   6.086   3.931   0.873  0.6071  1.0682 -1.8295
13270TIP3    H261302   6.104   4.081   0.858 -0.8167  1.7125  1.7032
13271TIP3   OH261303   1.246   5.468  13.194 -0.7611 -0.2293  0.2797
13271TIP3    H161304   1.289   5.394  13.237 -0.5496 -0.9769 -1.1502
13271TIP3    H261305   1.206   5.517  13.266 -0.6487 -1.5553  1.2999
13272TIP3   OH261306   3.276   2.871  13.841 -0.2352  0.9677  0.1922
13272TIP3    H161307   3.201   2.920  13.876  0.0571  0.1644  1.9958
13272TIP3    H261308   3.294   2.914  13.757 -1.8455  2.0495  0.3457
13273TIP3   OH261309   3.544   3.342  16.808  0.0955  0.1466 -0.9657
13273TIP3    H161310   3.632   3.309  16.827 -1.0665 -2.2789  0.8218
13273TIP3    H261311   3.552   3.383  16.723  2.9576  0.0312 -0.8634
13274TIP3   OH261312   1.860   4.659   2.181 -0.1516  0.5362 -0.1994
13274TIP3    H161313   1.919   4.732   2.163 -0.8861  0.5736 -2.9763
13274TIP3    H261314   1.916   4.581   2.177 -0.0767  0.6215 -2.2278
13275TIP3   OH261315   1.067   2.169   2.789 -0.8859 -0.3721 -0.1261
13275TIP3    H161316   1.033   2.080   2.781  0.7434 -0.8983 -1.9375
13275TIP3    H261317   1.132   2.164   2.860  1.0203 -1.3280 -1.8202
13276TIP3   OH261318   0.145   5.441   5.373  0.4315  0.4624 -0.3373
13276TIP3    H161319   0.204   5.394   5.313 -0.7925 -1.6196 -0.0090
13276TIP3    H261320   0.203   5.498   5.423  1.8581  0.1665 -1.5599
13277TIP3   OH261321   4.588   3.500  10.960  0.1903 -0.1708 -0.0588
13277TIP3    H161322   4.516   3.452  10.919  0.7526 -1.2414  0.1789
13277TIP3    H261323   4.589   3.585  10.915 -1.2127 -0.1380 -0.0568
13278TIP3   OH261324   6.017   5.209   0.331  0.3390  0.5607  0.7200
13278TIP3    H161325   6.014   5.132   0.387 -1.7381 -0.0810 -0.1622
13278TIP3    H261326   6.109   5.235   0.330  1.0565 -1.7257  1.2829
13279TIP3   OH261327   1.086   3.098  15.675 -0.5636 -0.3168 -0.2045
13279TIP3    H161328   1.075   3.115  15.768  0.5951  1.3891 -0.3253
13279TIP3    H261329   1.155   3.160  15.647 -0.7456 -0.9085 -2.1402
13280TIP3   OH261330   1.886   5.796   3.910 -0.1707  0.2754 -0.4055
13280TIP3    H161331   1.895   5.877   3.961 -0.5052  0.1600 -0.1564
13280TIP3    H261332   1.931   5.814   3.828 -2.3315  1.6289 -1.4061
13281TIP3   OH261333   0.884   1.435  14.653  0.3434  0.1814  0.3026
13281TIP3    H161334   0.929   1.352  14.663  0.5650  0.5395  2.8454
13281TIP3    H261335   0.908   1.465  14.565  0.6561 -2.1595 -0.4662
13282TIP3   OH261336   4.156   1.911  16.266 -0.0763  0.2645 -0.5421
13282TIP3    H161337   4.065   1.930  16.244 -0.4488 -0.3384  0.4312
13282TIP3    H261338   4.207   1.961  16.202 -1.0680  1.2340 -0.6033
13283TIP3   OH261339   2.382   0.497   4.864  0.0188  0.1268  0.0676
13283TIP3    H161340   2.308   0.552   4.889 -0.7470 -0.1774 -1.4112
13283TIP3    H261341   2.343   0.424   4.815  1.2126 -0.5460  0.0615
13284TIP3   OH261342   3.960   2.994  15.391 -0.1196 -0.0925  0.4509
13284TIP3    H161343   3.967   2.985  15.296 -0.3497 -1.3920  0.5434
13284TIP3    H261344   4.035   2.947  15.426  0.2534  0.8123  0.9198
13285TIP3   OH261345   0.818   6.182   5.826 -0.0535 -0.0210  0.1578
13285TIP3    H161346   0.823   6.127   5.904  2.1959 -0.8137 -0.4392
13285TIP3    H261347   0.837   6.122   5.754  0.9244  1.2228 -0.6753
13286TIP3   OH261348   0.893   6.774  15.130  0.4355 -0.3145  0.3293
13286TIP3    H161349   0.969   6.798  15.183  0.7404 -0.8099  0.1220
13286TIP3    H261350   0.925   6.708  15.069 -0.0028 -0.0282 -0.2260
13287TIP3   OH261351   3.920   3.815  16.195 -0.1028  0.1629  0.2115
13287TIP3    H161352   3.940   3.870  16.120 -0.1615 -0.7167 -0.4688
13287TIP3    H261353   3.825   3.802  16.191 -0.5302  2.1363  1.8952
13288TIP3   OH261354   2.446   2.706  10.770 -0.1417  0.3890 -0.1591
13288TIP3    H161355   2.536   2.738  10.772  0.4017 -1.0553  2.3707
13288TIP3    H261356   2.452   2.618  10.734 -0.3175 -0.1704  1.1151
13289TIP3   OH261357   6.753   2.658  11.434  0.3143 -0.3059 -0.3056
13289TIP3    H161358   6.730   2.565  11.431  0.6103 -0.3705 -0.6753
13289TIP3    H261359   6.832   2.662  11.487 -0.3305 -0.1243  0.6700
13290TIP3   OH261360   2.875   2.960  15.321  0.4628 -0.1250 -0.5816
13290TIP3    H161361   2.833   2.953  15.406  1.5713 -0.0940 -0.0138
13290TIP3    H261362   2.823   3.026  15.274  0.8924  1.2080  0.7253
13291TIP3   OH261363   4.525   0.625   1.849 -0.0384 -0.5588  0.0728
13291TIP3    H161364   4.571   0.575   1.917 -0.9333 -0.0245  1.1148
13291TIP3    H261365   4.464   0.562   1.811  1.3165 -1.2020 -1.1450
13292TIP3   OH261366   6.508   1.679   1.712  0.4337 -0.3560 -0.0563
13292TIP3    H161367   6.422   1.692   1.672  0.6797  2.1120  0.0746
13292TIP3    H261368   6.531   1.588   1.691 -1.4012 -0.5081 -1.6464
13293TIP3   OH261369   4.109   3.259   0.157  0.2755 -0.1494  0.4763
13293TIP3    H161370   4.092   3.172   0.191  1.9911 -0.1550  1.4447
13293TIP3    H261371   4.052   3.317   0.207  1.4137 -0.3899  2.1330
13294TIP3   OH261372   1.287   2.681   5.252 -0.6742 -0.2622 -0.3786
13294TIP3    H161373   1.258   2.591   5.263 -0.6466 -0.2917 -0.5490
13294TIP3    H261374   1.363   2.675   5.193  0.0051 -0.2481  0.4683
13295TIP3   OH261375   1.405   0.165   0.161 -0.3787  0.0614  0.3760
13295TIP3    H161376   1.398   0.126   0.074  0.6414  1.5959 -0.4499
13295TIP3    H261377   1.360   0.104   0.219  0.8059 -2.0846 -0.8696
13296TIP3   OH261378   3.303   0.442   5.255 -0.4517  0.0653 -0.3249
13296TIP3    H161379   3.314   0.475   5.166 -0.2763 -0.9446 -0.6908
13296TIP3    H261380   3.214   0.467   5.278 -0.4097  0.5639 -0.6861
13297TIP3   OH261381   4.143   3.832  14.947  0.5489  0.2221 -0.0860
13297TIP3    H161382   4.208   3.850  15.014  0.1095 -0.2063  0.4645
13297TIP3    H261383   4.173   3.752  14.905  0.9516  0.6201 -0.5746
13298TIP3   OH261384   4.303   5.771  16.023  0.0233  0.2254  1.0937
13298TIP3    H161385   4.290   5.790  16.116  1.9412 -1.4210  1.7893
13298TIP3    H261386   4.306   5.675  16.019  0.4011  0.2810 -0.5897
13299TIP3   OH261387   1.509   1.840  15.194 -0.1515 -0.2128  0.2326
13299TIP3    H161388   1.502   1.905  15.125  0.5408 -0.0790  0.2834
13299TIP3    H261389   1.548   1.887  15.268 -1.1375 -0.2796  0.8206
13300TIP3   OH261390   5.718   6.217   3.668  0.0994  0.6409  0.3653
13300TIP3    H161391   5.720   6.246   3.759  0.4070  1.6866  0.0320
13300TIP3    H261392   5.648   6.268   3.628 -0.9021 -0.7191  0.2921
13301TIP3   OH261393   5.604   3.444   0.929  0.1504 -0.1438  0.1901
13301TIP3    H161394   5.547   3.369   0.913 -0.3327  0.2031  0.2691
13301TIP3    H261395   5.674   3.410   0.984  0.8520 -0.9396 -1.1362
13302TIP3   OH261396   2.448   1.935  16.791  0.0919  0.0955  0.0339
13302TIP3    H161397   2.407   1.932  16.704  1.7020  1.1109 -0.8069
13302TIP3    H261398   2.396   1.875  16.844 -4.1254  3.1137 -0.2096
13303TIP3   OH261399   2.778   1.633  14.543 -0.3161 -0.3024 -0.2229
13303TIP3    H161400   2.761   1.539  14.541 -0.3756 -0.2959  0.0479
13303TIP3    H261401   2.803   1.654  14.453 -0.5023 -0.5394 -0.3309
13304TIP3   OH261402   2.590   3.137  11.805 -0.5938  0.4044  0.1448
13304TIP3    H161403   2.619   3.090  11.883 -0.4914 -0.9656 -0.6804
13304TIP3    H261404   2.507   3.178  11.830  0.1556  1.2039  1.3891
13305TIP3   OH261405   1.519   4.730   3.179 -0.5666  0.2335  0.4665
13305TIP3    H161406   1.572   4.650   3.178  0.4386  0.8568 -1.2566
13305TIP3    H261407   1.559   4.784   3.247 -0.2057 -0.0811  0.5094
13306TIP3   OH261408   2.603   0.622   2.895  0.1446 -0.4992  0.2774
13306TIP3    H161409   2.660   0.589   2.825  0.8531  0.8737  0.1561
13306TIP3    H261410   2.517   0.586   2.875  0.4118 -0.4269 -1.1207
13307TIP3   OH261411   3.355   0.416   0.237 -0.1742  0.5019  0.0053
13307TIP3    H161412   3.412   0.424   0.314 -2.4600  1.3090  1.7109
13307TIP3    H261413   3.383   0.334   0.195  0.4829 -0.5139  2.2624
13308TIP3   OH261414   4.212   4.038   0.200 -0.1587 -0.3036 -0.6077
13308TIP3    H161415   4.181   4.048   0.110 -1.4594  0.2829 -0.1133
13308TIP3    H261416   4.208   4.127   0.236  2.3797 -0.1232 -0.5690
13309TIP3   OH261417   2.768   3.644   5.035  0.2254  0.0371  0.5621
13309TIP3    H161418   2.802   3.733   5.039 -1.7926  0.8334  1.5064
13309TIP3    H261419   2.688   3.651   4.982  0.8703 -1.5429 -0.7123
13310TIP3   OH261420   6.102   3.709  11.529 -0.1746  0.1684 -0.5645
13310TIP3    H161421   6.137   3.766  11.461 -0.0487  0.6893 -0.0709
13310TIP3    H261422   6.159   3.632  11.528  0.7519  0.8257 -0.0470
13311TIP3   OH261423   0.634   1.565   3.742  0.0441  0.0611 -0.4701
13311TIP3    H161424   0.694   1.557   3.668  0.2270 -1.0675 -0.2152
13311TIP3    H261425   0.548   1.579   3.703  0.1987 -0.1518 -0.8826
13312TIP3   OH261426   4.215   0.983  14.622 -0.3919 -0.0143 -0.0795
13312TIP3    H161427   4.265   0.907  14.595 -0.2649  0.3265 -0.8195
13312TIP3    H261428   4.134   0.947  14.659 -1.5491 -0.4717 -2.8470
13313TIP3   OH261429   3.106   3.524  11.936  0.1975 -0.5560  0.4619
13313TIP3    H161430   3.070   3.607  11.967 -0.3559 -0.2547 -0.8964
13313TIP3    H261431   3.177   3.549  11.877  0.0120 -1.0363  0.0228
13314TIP3   OH261432   4.401   4.059  13.876  0.5889 -0.1590  0.2913
13314TIP3    H161433   4.451   4.141  13.878  0.0809  0.2062 -0.8299
13314TIP3    H261434   4.410   4.028  13.786  0.1032 -0.9137  0.4913
13315TIP3   OH261435   6.352   2.423  14.094  0.5812  0.2873  0.5517
13315TIP3    H161436   6.266   2.438  14.055  1.1095 -1.6605 -1.5680
13315TIP3    H261437   6.335   2.418  14.188 -1.4697  0.8268  0.2600
13316TIP3   OH261438   0.801   5.495  14.176  0.1247 -0.2081 -0.2856
13316TIP3    H161439   0.855   5.420  14.202  0.1709  0.7997  2.9124
13316TIP3    H261440   0.864   5.563  14.153  0.0855 -0.5458 -1.5020
13317TIP3   OH261441   4.632   4.108  13.140  0.4751  0.3183 -0.4113
13317TIP3    H161442   4.601   4.147  13.222  1.5230  0.0524  0.1260
13317TIP3    H261443   4.718   4.072  13.161 -0.5294 -2.5815 -0.7665
13318TIP3   OH261444   1.686   1.005  11.364 -0.1756  0.1473  0.0875
13318TIP3    H161445   1.726   0.919  11.378 -0.8900 -0.3426 -0.7995
13318TIP3    H261446   1.724   1.036  11.282 -0.7512  0.1714 -0.1752
13319TIP3   OH261447   0.652   3.061  16.128 -0.3685  0.4916 -0.1324
13319TIP3    H161448   0.584   3.128  16.130 -1.8209 -0.9297  1.8446
13319TIP3    H261449   0.615   2.990  16.075 -0.7209 -0.5194  1.4031
13320TIP3   OH261450   2.826   2.335  14.610  0.0391 -0.3074  0.0835
13320TIP3    H161451   2.797   2.379  14.690  0.5254 -0.7900  0.5426
13320TIP3    H261452   2.824   2.242  14.633  0.2940 -0.4423 -0.4295
13321TIP3   OH261453   5.814   6.334  16.873  0.0281 -0.1331 -0.3542
13321TIP3    H161454   5.806   6.423  16.838  1.0804  1.1780  2.4320
13321TIP3    H261455   5.903   6.307  16.852  0.2412  0.1462  0.1661
13322TIP3   OH261456   3.486   3.220  12.777 -0.4153  0.3990  0.0337
13322TIP3    H161457   3.417   3.232  12.712 -0.9264 -1.1433  0.2400
13322TIP3    H261458   3.440   3.223  12.861 -0.6583 -2.5118  0.1317
13323TIP3   OH261459   1.116   2.176  15.726 -0.2132  0.0568 -0.5939
13323TIP3    H161460   1.169   2.097  15.714 -0.7226 -0.1009 -1.9839
13323TIP3    H261461   1.044   2.149  15.783 -0.8339 -0.7099 -1.7200
13324TIP3   OH261462   6.787   2.413  16.154  0.5633  0.7946  0.1705
13324TIP3    H161463   6.718   2.448  16.098 -0.3967  1.6648  1.8259
13324TIP3    H261464   6.740   2.360  16.219  1.4858  1.0244  1.0509
13325TIP3   OH261465   5.074   6.225   2.199  0.7136  0.9899 -1.4105
13325TIP3    H161466   5.014   6.157   2.229  1.6578  1.0760  0.8215
13325TIP3    H261467   5.019   6.304   2.191  0.2695  0.7517 -0.7524
13326TIP3   OH261468   5.920   5.709  15.801 -0.3115  0.0886 -0.2450
13326TIP3    H161469   5.998   5.734  15.752  0.0978  0.1826  0.4442
13326TIP3    H261470   5.853   5.694  15.733  0.5332 -0.8601 -0.9005
13327TIP3   OH261471   2.335   0.243   1.774 -0.5455  0.7118 -0.5797
13327TIP3    H161472   2.251   0.214   1.738  0.7224 -1.3538 -2.0950
13327TIP3    H261473   2.363   0.313   1.714  0.1243 -0.6280 -1.9134
13328TIP3   OH261474   0.897   0.240  16.407  0.0417 -1.1577 -0.5957
13328TIP3    H161475   0.938   0.172  16.353  2.2148 -1.1990  0.9750
13328TIP3    H261476   0.913   0.212  16.497  1.8255  1.8093  0.1352
13329TIP3   OH261477   2.251   3.553   0.103 -0.0400  0.2189 -0.0940
13329TIP3    H161478   2.204   3.587   0.179 -0.2721  0.6972 -0.4465
13329TIP3    H261479   2.343   3.549   0.131  0.1215  1.8918 -0.2862
13330TIP3   OH261480   4.189   3.638  12.491 -0.2125  0.2975  0.2687
13330TIP3    H161481   4.217   3.700  12.424  1.7909 -0.0392  0.7433
13330TIP3    H261482   4.269   3.590  12.515 -1.0577 -0.2441  2.2208
13331TIP3   OH261483   6.112   4.975   3.505  0.0696  0.3195 -0.3018
13331TIP3    H161484   6.050   4.902   3.498  1.1325 -0.7918  1.1312
13331TIP3    H261485   6.150   4.983   3.418 -0.4644 -0.4827 -0.6233
13332TIP3   OH261486   0.555   2.113   0.140 -0.2237 -0.1146 -0.1603
13332TIP3    H161487   0.580   2.138   0.051 -2.0667 -1.1113 -1.0264
13332TIP3    H261488   0.482   2.171   0.162 -0.4397 -0.5516  0.3014
13333TIP3   OH261489   2.982   5.313   4.001 -0.2750  0.0299  0.3314
13333TIP3    H161490   2.961   5.396   3.959 -1.0057 -0.2455  0.1318
13333TIP3    H261491   3.077   5.304   3.990 -0.0827  1.1451  0.9478
13334TIP3   OH261492   3.089   4.881  15.374 -0.2299  0.0534  0.0518
13334TIP3    H161493   3.037   4.880  15.294 -2.0028 -0.9731  1.1367
13334TIP3    H261494   3.055   4.955  15.425 -0.7215 -0.6658  0.8018
13335TIP3   OH261495   5.178   0.868  12.248 -0.6244  0.2422  0.1139
13335TIP3    H161496   5.179   0.803  12.319  1.0030 -0.6289 -0.6491
13335TIP3    H261497   5.266   0.864  12.211 -1.0833  1.5464 -1.1895
13336TIP3   OH261498   5.612   4.992   2.368 -0.1598 -0.0580 -0.8951
13336TIP3    H161499   5.592   5.085   2.364 -0.3772 -0.0539  0.0623
13336TIP3    H261500   5.596   4.960   2.279 -1.2005  0.5946 -0.9583
13337TIP3   OH261501   5.396   0.536  13.521 -0.4959  0.3820 -0.0810
13337TIP3    H161502   5.370   0.483  13.596 -0.6367 -0.3812 -0.6633
13337TIP3    H261503   5.475   0.581  13.551  1.8139 -2.8744 -0.6830
13338TIP3   OH261504   4.415   3.617  14.581 -0.0166 -0.0485  0.3036
13338TIP3    H161505   4.396   3.529  14.547 -0.8152 -0.3431  1.4561
13338TIP3    H261506   4.469   3.602  14.658 -1.1351  0.3738  1.2015
13339TIP3   OH261507   4.178   6.256  13.609 -0.5490 -0.2972  0.4382
13339TIP3    H161508   4.250   6.319  13.604 -0.7897  0.0027  0.6967
13339TIP3    H261509   4.114   6.289  13.546 -0.2056 -0.8994 -0.2365
13340TIP3   OH261510   1.126   0.528  14.537 -0.2802  0.3693 -0.3362
13340TIP3    H161511   1.168   0.523  14.623 -0.1331 -0.0016 -0.4284
13340TIP3    H261512   1.161   0.454  14.489 -1.4670 -0.2762 -0.2333
13341TIP3   OH261513   0.547   2.516  12.414  0.1490  0.2760 -0.2054
13341TIP3    H161514   0.637   2.541  12.395  0.6329  0.1520  1.7426
13341TIP3    H261515   0.498   2.542  12.336  2.0905 -1.1629 -2.0199
13342TIP3   OH261516   3.906   0.547  14.175  0.0265  0.3270 -0.1025
13342TIP3    H161517   3.883   0.603  14.249 -1.4719 -0.3490 -0.0288
13342TIP3    H261518   3.908   0.459  14.210  2.0911  0.2335 -0.2895
13343TIP3   OH261519   4.317   4.473   3.963 -0.8095  0.1112 -0.0724
13343TIP3    H161520   4.287   4.477   4.053 -0.4351  0.5327  0.0381
13343TIP3    H261521   4.377   4.399   3.961 -2.3190 -1.1510 -0.4470
13344TIP3   OH261522   3.563   3.734   4.142 -0.2899  0.3331 -0.1711
13344TIP3    H161523   3.471   3.709   4.126 -0.2697  0.1609 -0.0255
13344TIP3    H261524   3.581   3.802   4.078 -0.7156  0.8184  0.2089
13345TIP3   OH261525   2.303   2.282  16.558  0.6916 -0.1421 -0.2956
13345TIP3    H161526   2.299   2.189  16.579 -0.3219 -0.3752 -1.4001
13345TIP3    H261527   2.373   2.290  16.493  0.6727 -0.1716 -0.3187
13346TIP3   OH261528   3.088   5.105   5.985 -0.3558 -0.2116 -0.1769
13346TIP3    H161529   3.118   5.149   6.065 -3.5560  2.7400 -0.3570
13346TIP3    H261530   3.008   5.060   6.011 -0.6506 -0.4286 -1.4039
13347TIP3   OH261531   1.119   6.624  11.099 -0.5417 -0.3445  0.4176
13347TIP3    H161532   1.145   6.535  11.074  2.4950  0.4623  0.3561
13347TIP3    H261533   1.065   6.655  11.026  2.1173 -0.6078 -1.7949
13348TIP3   OH261534   6.341   1.537  12.499 -0.6508  0.4913  0.5854
13348TIP3    H161535   6.279   1.464  12.494 -1.1276  0.9586 -0.4734
13348TIP3    H261536   6.423   1.499  12.467 -0.8127  0.3321  0.3532
13349TIP3   OH261537   6.535   0.726   5.332 -0.2741 -0.3166 -0.1780
13349TIP3    H161538   6.448   0.753   5.303  0.0282 -0.9024 -1.7702
13349TIP3    H261539   6.548   0.641   5.290  0.7275 -0.6331  0.7463
13350TIP3   OH261540   0.099   5.671   4.726  0.1602  0.1420 -0.2707
13350TIP3    H161541   0.191   5.643   4.727  0.5010  1.2524  0.8533
13350TIP3    H261542   0.069   5.659   4.816 -1.2961 -1.6926 -0.9389
13351TIP3   OH261543   4.639   0.164  13.012 -0.0826 -0.3476  0.0559
13351TIP3    H161544   4.616   0.101  13.081 -1.3556  0.1761  0.1180
13351TIP3    H261545   4.585   0.241  13.030  0.4270  0.2404 -0.8559
13352TIP3   OH261546   0.848   3.739   1.680 -0.1545  0.0155  0.2240
13352TIP3    H161547   0.870   3.748   1.773 -0.5052  1.6788  0.1788
13352TIP3    H261548   0.881   3.653   1.656  1.6935  0.3293  1.4122
13353TIP3   OH261549   5.828   4.989   1.407 -0.1088 -0.0336  0.1356
13353TIP3    H161550   5.851   4.919   1.468  0.6587 -0.3252 -0.4579
13353TIP3    H261551   5.785   5.055   1.461  0.5425 -0.2841  0.9913
13354TIP3   OH261552   0.130   1.915   3.065  0.2901  0.2028  0.0119
13354TIP3    H161553   0.080   1.963   3.131  0.2859 -0.1571  0.2705
13354TIP3    H261554   0.084   1.932   2.983 -1.1972 -1.3923  0.4664
13355TIP3   OH261555   6.337   4.365   4.313  0.3910 -0.2895 -0.3832
13355TIP3    H161556   6.262   4.416   4.343  1.3426  2.0291 -1.6891
13355TIP3    H261557   6.412   4.424   4.322  1.8416 -2.0434 -0.4497
13356TIP3   OH261558   4.414   2.322  11.697 -0.0969  0.2736  0.6595
13356TIP3    H161559   4.438   2.407  11.736 -0.4755  0.0470  1.4031
13356TIP3    H261560   4.470   2.259  11.741  0.0827  0.1145  0.2072
13357TIP3   OH261561   6.555   5.626  11.983 -0.1716  0.0074  0.3319
13357TIP3    H161562   6.501   5.635  11.904  0.2595 -1.5909 -0.1980
13357TIP3    H261563   6.493   5.627  12.055 -0.8225 -0.7300 -0.2002
13358TIP3   OH261564   5.295   0.822   3.663  0.0408  0.2246 -0.1682
13358TIP3    H161565   5.320   0.738   3.624 -0.0493 -0.2640  0.8002
13358TIP3    H261566   5.370   0.847   3.716 -0.0571  0.6049 -0.2055
13359TIP3   OH261567   5.074   0.859  12.924 -0.7490  0.3678 -0.6255
13359TIP3    H161568   5.137   0.788  12.908 -2.4717 -0.7704 -3.1043
13359TIP3    H261569   5.094   0.924  12.857  0.4338  2.0505  1.2685
13360TIP3   OH261570   3.965   2.526  15.936  0.1663 -0.2561 -0.9052
13360TIP3    H161571   4.051   2.544  15.973  0.1096 -1.2151 -0.2433
13360TIP3    H261572   3.963   2.431  15.926 -1.4799 -0.4864  0.8930
13361TIP3   OH261573   5.029   1.463   1.420  0.1921  0.5200  0.4760
13361TIP3    H161574   5.007   1.459   1.513 -1.1669 -1.1101  0.1425
13361TIP3    H261575   5.004   1.551   1.393 -0.5742  0.6022  1.3982
13362TIP3   OH261576   4.052   4.058   4.485 -0.1249 -0.1517  0.3132
13362TIP3    H161577   4.073   3.972   4.520  0.2870 -0.1965 -0.0363
13362TIP3    H261578   3.998   4.099   4.552  0.2063 -0.4426  0.7611
13363TIP3   OH261579   3.347   6.040   3.843  1.0285 -0.1979 -0.3069
13363TIP3    H161580   3.295   6.104   3.794 -0.3462 -0.3733  0.8407
13363TIP3    H261581   3.367   6.084   3.926  0.6368 -0.9807  0.2224
13364TIP3   OH261582   0.712   4.446   5.799  0.6839 -0.2812  1.0553
13364TIP3    H161583   0.762   4.368   5.774  2.0108  0.6292  0.7771
13364TIP3    H261584   0.777   4.504   5.838  0.5559  2.2376 -2.0674
13365TIP3   OH261585   5.309   4.800  15.888  0.3173 -0.7103 -0.3914
13365TIP3    H161586   5.234   4.741  15.897 -1.4105  1.4282  0.1399
13365TIP3    H261587   5.306   4.828  15.797 -0.1863  0.1812 -0.1070
13366TIP3   OH261588   1.279   1.021  10.806  0.3389 -0.2982 -0.0283
13366TIP3    H161589   1.346   1.070  10.759 -0.2344 -0.8831 -1.5238
13366TIP3    H261590   1.273   0.938  10.759  0.2305 -1.2083  1.5398
13367TIP3   OH261591   2.718   1.812   0.351 -0.0417 -0.1901 -0.0983
13367TIP3    H161592   2.695   1.866   0.426  1.5864  0.6836 -0.1860
13367TIP3    H261593   2.726   1.724   0.387 -1.7703 -0.2533  0.2270
13368TIP3   OH261594   6.244   4.684  16.378 -0.2565  0.6100  0.3448
13368TIP3    H161595   6.149   4.671  16.386 -0.4131  1.7575  0.4790
13368TIP3    H261596   6.276   4.601  16.342 -1.5438  0.7781 -1.3404
13369TIP3   OH261597   5.003   4.042  14.093 -1.1800 -0.0144 -0.8427
13369TIP3    H161598   5.052   4.069  14.015 -0.1112 -1.3045 -0.6595
13369TIP3    H261599   4.911   4.052  14.069 -0.8554  0.0551 -2.1008
13370TIP3   OH261600   2.890   0.385  11.870 -0.3834 -0.4874 -0.0440
13370TIP3    H161601   2.846   0.360  11.951  0.6408 -0.2691  0.5895
13370TIP3    H261602   2.949   0.455  11.895  1.1050 -1.4714 -0.6707
13371TIP3   OH261603   4.193   0.473  16.003  0.1134  0.0187 -0.2510
13371TIP3    H161604   4.104   0.467  15.967 -0.9509  0.6898  2.0816
13371TIP3    H261605   4.244   0.514  15.933 -1.5962  0.3423 -1.3708
13372TIP3   OH261606   1.011   2.398  16.464  0.1250  0.5828 -0.1045
13372TIP3    H161607   0.927   2.421  16.503  1.0519  0.4150  2.0970
13372TIP3    H261608   1.032   2.472  16.407 -1.6044  0.5016 -0.9165
13373TIP3   OH261609   1.478   5.873   2.389 -0.2773 -0.4061  0.0064
13373TIP3    H161610   1.504   5.931   2.460 -1.3973  0.3003 -0.1255
13373TIP3    H261611   1.392   5.841   2.415 -0.5170 -0.4662 -0.8317
13374TIP3   OH261612   6.311   6.287   0.924 -0.4182  0.0465  0.2966
13374TIP3    H161613   6.338   6.201   0.891 -3.9395 -0.7300 -1.0808
13374TIP3    H261614   6.261   6.267   1.003  1.0064  1.1592  1.5321
13375TIP3   OH261615   5.406   4.159   1.056 -0.0777 -0.1834  0.4173
13375TIP3    H161616   5.324   4.205   1.039 -0.7273 -0.5284  2.3669
13375TIP3    H261617   5.463   4.224   1.097  1.3987  0.5857 -2.5409
13376TIP3   OH261618   1.007   5.855  13.125  0.2208  0.3123  0.2553
13376TIP3    H161619   0.963   5.868  13.041 -0.8379 -0.8200  0.6109
13376TIP3    H261620   0.980   5.930  13.178 -0.2708  0.2749  0.0599
13377TIP3   OH261621   0.214   2.464   4.486 -0.5958 -0.1816  0.1526
13377TIP3    H161622   0.150   2.534   4.470 -0.6663  0.0600  1.3900
13377TIP3    H261623   0.243   2.478   4.576  1.6668  0.0713 -0.5593
13378TIP3   OH261624   4.709   5.140   4.968 -0.0998  0.3359  0.1642
13378TIP3    H161625   4.730   5.047   4.975  0.5076  0.5022  0.6472
13378TIP3    H261626   4.621   5.147   5.005  0.2905  0.1133  1.1848
13379TIP3   OH261627   0.836   0.872  14.759 -0.2810 -0.1700 -0.2922
13379TIP3    H161628   0.851   0.815  14.834 -0.8764 -1.8297 -1.3760
13379TIP3    H261629   0.897   0.841  14.693 -0.6457  0.4317 -0.9245
13380TIP3   OH261630   6.674   3.223  11.946  0.6786 -0.1601  0.4928
13380TIP3    H161631   6.664   3.159  11.876 -0.2008  1.0064 -0.4991
13380TIP3    H261632   6.739   3.185  12.005 -2.7704 -3.9724  2.3137
13381TIP3   OH261633   2.136   4.430  15.977  0.4675 -0.0770 -0.4595
13381TIP3    H161634   2.195   4.393  15.911  0.1141  0.3142 -0.9939
13381TIP3    H261635   2.095   4.353  16.017  3.2882 -0.5773  1.8206
13382TIP3   OH261636   4.071   3.323  12.216  0.2079  0.4898  0.0151
13382TIP3    H161637   4.005   3.390  12.236  0.4268  0.2875  1.4413
13382TIP3    H261638   4.098   3.288  12.301 -0.9490 -2.4394 -0.6933
13383TIP3   OH261639   4.440   4.408  14.845 -0.2109  0.2193  0.3655
13383TIP3    H161640   4.462   4.497  14.870 -1.9307  0.4444  1.1803
13383TIP3    H261641   4.496   4.353  14.900  2.8169  0.7217 -1.9880
13384TIP3   OH261642   3.169   6.831   4.068 -0.6406 -0.6476 -0.1626
13384TIP3    H161643   3.232   6.899   4.093 -1.8583  0.2480  0.6474
13384TIP3    H261644   3.219   6.769   4.016  1.1257 -0.4831  1.2323
13385TIP3   OH261645   6.157   6.553  13.209  0.6474 -0.0030 -0.4808
13385TIP3    H161646   6.188   6.587  13.293  0.2896 -1.3334  0.2115
13385TIP3    H261647   6.118   6.468  13.230 -3.0844  1.3035 -1.3514
13386TIP3   OH261648   0.238   6.703   0.944 -0.2292 -0.2737  0.6342
13386TIP3    H161649   0.229   6.764   1.017 -0.3706 -1.8091  1.9540
13386TIP3    H261650   0.152   6.703   0.903 -0.7366 -0.8192  1.6614
13387TIP3   OH261651   0.466   4.390   3.856  0.3324  0.0246  0.5306
13387TIP3    H161652   0.477   4.483   3.875  1.8185 -0.1572  0.6806
13387TIP3    H261653   0.371   4.377   3.853  0.1034  1.4891  0.7383
13388TIP3   OH261654   2.115   6.099  10.870 -0.2582 -0.3168  0.3049
13388TIP3    H161655   2.046   6.033  10.871  0.3406 -0.9659 -0.0120
13388TIP3    H261656   2.158   6.089  10.955  1.8144 -2.5235 -0.8973
13389TIP3   OH261657   1.012   4.312  13.072 -0.2691 -0.0029 -0.0924
13389TIP3    H161658   1.076   4.325  13.141  2.3142 -1.3407 -2.0414
13389TIP3    H261659   1.007   4.217  13.061 -0.4763  0.1574 -1.7645
13390TIP3   OH261660   2.885   4.592  12.120  0.2494  0.3673  0.4461
13390TIP3    H161661   2.820   4.644  12.166  1.6586  1.0776  1.6842
13390TIP3    H261662   2.939   4.553  12.189  0.4508 -1.1354 -0.5146
13391TIP3   OH261663   2.904   6.122   2.016 -0.0893  0.0328 -0.6255
13391TIP3    H161664   2.972   6.071   2.060 -0.2477  0.6208  0.3241
13391TIP3    H261665   2.842   6.144   2.085 -0.8933  0.0913 -1.3500
13392TIP3   OH261666   3.290   1.258  17.011 -0.0292  0.3021 -0.3367
13392TIP3    H161667   3.366   1.211  17.046 -0.1873  0.6020  0.4279
13392TIP3    H261668   3.223   1.191  16.999 -0.1739  0.2721  0.5211
13393TIP3   OH261669   1.151   3.410   2.322  0.0499 -0.0857 -0.2541
13393TIP3    H161670   1.216   3.459   2.272 -0.2307  0.2556 -0.2893
13393TIP3    H261671   1.148   3.453   2.407 -0.1991 -0.0363 -0.2854
13394TIP3   OH261672   6.611   5.569  13.087 -0.0820 -0.6767 -0.3412
13394TIP3    H161673   6.690   5.621  13.074  0.0675 -0.4313  1.3536
13394TIP3    H261674   6.643   5.484  13.117 -0.4181 -1.0092 -0.9072
13395TIP3   OH261675   4.357   2.469  12.016 -0.3617 -0.1572  0.5678
13395TIP3    H161676   4.393   2.529  12.082 -2.4722 -0.1180  1.7813
13395TIP3    H261677   4.393   2.384  12.039  3.2439  0.5787 -1.6017
13396TIP3   OH261678   0.583   5.150  11.369 -0.1194 -0.0889 -0.1008
13396TIP3    H161679   0.669   5.135  11.329  1.0515 -0.5014  2.3665
13396TIP3    H261680   0.574   5.245  11.372 -0.2166 -0.0474 -1.2366
13397TIP3   OH261681   2.449   0.668  14.443 -0.0142  0.0889 -0.0188
13397TIP3    H161682   2.425   0.751  14.483 -0.8154  0.2160 -0.7256
13397TIP3    H261683   2.480   0.692  14.355  1.7262 -0.1779  0.4671
13398TIP3   OH261684   4.617   3.967  15.617  0.2930 -0.3420  0.0403
13398TIP3    H161685   4.591   3.969  15.709 -2.3122  0.0454 -0.6200
13398TIP3    H261686   4.537   3.988  15.569  1.6503 -0.1789 -2.3223
13399TIP3   OH261687   2.636   3.472   1.361  0.0650 -0.0318  0.2510
13399TIP3    H161688   2.699   3.417   1.407  1.0335  0.9505  0.1245
13399TIP3    H261689   2.622   3.427   1.277 -1.0055 -1.3340  1.0856
13400TIP3   OH261690   4.883   0.152  15.054 -0.1453  0.1351 -0.8663
13400TIP3    H161691   4.892   0.230  14.999  1.0136  0.4182 -0.3256
13400TIP3    H261692   4.946   0.090  15.018  0.9588  0.4856  0.3481
13401TIP3   OH261693   4.237   1.375  16.703 -0.4152  0.0599 -0.0780
13401TIP3    H161694   4.323   1.375  16.662  0.0922 -0.7198  0.9382
13401TIP3    H261695   4.182   1.322  16.646  0.1443 -0.5962 -0.0136
13402TIP3   OH261696   1.953   1.294  12.546  0.1778 -0.0636 -0.4040
13402TIP3    H161697   2.016   1.312  12.616 -1.1045  0.0615  0.7662
13402TIP3    H261698   2.002   1.308  12.465  1.5369  0.4069  0.4672
13403TIP3   OH261699   5.559   0.076  12.680  0.0967  0.2024 -0.3948
13403TIP3    H161700   5.526   0.007  12.737  0.9197  0.4719  0.4508
13403TIP3    H261701   5.560   0.037  12.593 -0.5784 -0.4451 -0.1242
13404TIP3   OH261702   1.021   2.098   4.045 -0.1087  0.1181  0.1530
13404TIP3    H161703   1.015   2.155   4.122 -0.4352  0.3272 -0.0237
13404TIP3    H261704   1.081   2.029   4.071 -1.3406 -0.6336  1.1075
13405TIP3   OH261705   1.380   3.730   2.527 -0.0589 -0.2422  0.2535
13405TIP3    H161706   1.469   3.765   2.524  0.4044 -1.2413  1.7470
13405TIP3    H261707   1.325   3.808   2.533  0.7812  0.3351  0.6380
13406TIP3   OH261708   1.599   6.546  15.111 -0.2026  0.4517  0.4875
13406TIP3    H161709   1.549   6.617  15.151  1.5090  2.2587 -0.4095
13406TIP3    H261710   1.680   6.587  15.081  1.2790 -2.0718  0.7088
13407TIP3   OH261711   3.099   1.871  14.400  0.2425  0.4324  0.6173
13407TIP3    H161712   3.079   1.779  14.419 -1.6051  0.5484 -0.5211
13407TIP3    H261713   3.023   1.919  14.432  0.6980  1.4485  0.2152
13408TIP3   OH261714   3.778   2.367   0.616  0.1966 -0.2508  0.3926
13408TIP3    H161715   3.784   2.288   0.669 -0.3754 -2.3327 -2.4333
13408TIP3    H261716   3.781   2.439   0.680  1.0424 -2.4830  3.0594
13409TIP3   OH261717   5.976   0.220  16.331 -0.9174  0.1260 -0.1664
13409TIP3    H161718   6.032   0.223  16.253 -1.2302  0.4465 -0.3837
13409TIP3    H261719   6.035   0.200  16.403 -0.7883 -1.4726 -0.6535
13410TIP3   OH261720   6.586   1.114  12.507  0.0289 -0.1680 -0.3672
13410TIP3    H161721   6.498   1.123  12.471 -0.1768  0.2790  0.2179
13410TIP3    H261722   6.644   1.130  12.433 -0.3805  1.7516 -0.3276
13411TIP3   OH261723   4.011   6.620  16.038 -1.0983  0.0138  0.2256
13411TIP3    H161724   4.098   6.595  16.007 -1.3223 -0.2162 -0.2234
13411TIP3    H261725   4.003   6.578  16.124 -1.5156 -1.5894 -0.5696
13412TIP3   OH261726   4.620   0.483   4.202  0.3341  0.6707  0.1266
13412TIP3    H161727   4.615   0.567   4.155 -2.1365  0.9270  0.7043
13412TIP3    H261728   4.702   0.488   4.251  0.6018  2.4551 -0.4190
13413TIP3   OH261729   6.098   2.242   3.353  0.6105 -0.0319 -0.2800
13413TIP3    H161730   6.052   2.173   3.401  0.8095  0.6788  0.9962
13413TIP3    H261731   6.170   2.198   3.309  0.3783 -0.7338  0.0255
13414TIP3   OH261732   4.018   2.990   2.020  0.0694  0.0448  0.0836
13414TIP3    H161733   3.988   3.070   2.063 -0.3395 -0.3420  0.5416
13414TIP3    H261734   3.990   2.920   2.080  0.9500 -0.3965 -0.0172
13415TIP3   OH261735   5.429   3.872  12.504 -0.1516  0.1440 -0.2049
13415TIP3    H161736   5.499   3.809  12.486  0.8167  1.2586 -0.4794
13415TIP3    H261737   5.349   3.819  12.506  0.4975 -0.9460 -1.4206
13416TIP3   OH261738   0.520   2.063  16.410  0.2049 -0.1158 -0.0009
13416TIP3    H161739   0.518   2.087  16.317 -1.4406 -0.5959 -0.1101
13416TIP3    H261740   0.494   2.143  16.456 -2.1973 -0.7295 -0.1814
13417TIP3   OH261741   2.622   0.372  13.435 -0.1482 -1.2841 -0.0200
13417TIP3    H161742   2.703   0.408  13.470 -0.2944 -0.0737 -0.8633
13417TIP3    H261743   2.646   0.337  13.349 -0.7685  0.4586 -0.9571
13418TIP3   OH261744   5.502   4.252   0.283  0.2151  0.0066  0.0631
13418TIP3    H161745   5.502   4.345   0.305 -0.0954 -0.2382  1.1191
13418TIP3    H261746   5.437   4.244   0.213  1.1459  0.7700 -0.9196
13419TIP3   OH261747   2.862   5.194  10.747 -0.1059 -0.1972  0.4350
13419TIP3    H161748   2.933   5.242  10.789 -1.5994  1.3956  1.2767
13419TIP3    H261749   2.837   5.248  10.672 -0.1265 -0.9831 -0.1380
13420TIP3   OH261750   5.503   2.425  15.569 -0.6318  0.1209 -0.4873
13420TIP3    H161751   5.527   2.475  15.647 -0.8060  0.3527 -0.5845
13420TIP3    H261752   5.457   2.348  15.604 -3.6451  1.7891 -0.4697
13421TIP3   OH261753   6.489   3.555   2.483 -0.4993  0.0693 -0.0641
13421TIP3    H161754   6.470   3.584   2.393 -1.7556  1.7962  0.6970
13421TIP3    H261755   6.501   3.460   2.475  1.5321  0.4070 -2.3601
13422TIP3   OH261756   5.281   5.529  13.342 -0.2399  0.0679  1.1957
13422TIP3    H161757   5.213   5.583  13.299  0.0100 -0.5568 -0.0295
13422TIP3    H261758   5.322   5.481  13.270  0.6532 -0.5230  2.0805
13423TIP3   OH261759   5.080   3.369   5.037  0.2644 -0.2074  0.0180
13423TIP3    H161760   4.990   3.335   5.040  0.2106 -0.2222 -1.2605
13423TIP3    H261761   5.072   3.459   5.070 -0.8061  0.8700 -2.8740
13424TIP3   OH261762   1.443   3.293  16.021  0.3167  0.1113  0.3086
13424TIP3    H161763   1.496   3.302  16.100 -0.5193 -2.2267  1.2297
13424TIP3    H261764   1.372   3.233  16.046 -1.0982  0.8287 -1.6912
13425TIP3   OH261765   3.507   5.005  13.114  0.0840  0.1555 -1.0394
13425TIP3    H161766   3.480   4.923  13.072  0.2231 -0.8065  0.6712
13425TIP3    H261767   3.603   5.001  13.117  0.0451 -0.1314  0.0175
13426TIP3   OH261768   6.697   3.265   4.641 -0.2657  0.4535 -0.0555
13426TIP3    H161769   6.681   3.355   4.612 -2.0012  0.0055 -0.6528
13426TIP3    H261770   6.622   3.216   4.607 -0.6403 -0.7678  2.3434
13427TIP3   OH261771   2.318   6.480  15.972 -0.1527  0.1076 -0.2699
13427TIP3    H161772   2.259   6.539  15.926  1.0707  0.2817 -1.7058
13427TIP3    H261773   2.406   6.514  15.953  0.4267  0.0291  2.0431
13428TIP3   OH261774   2.491   6.788  16.090 -0.3267  0.8215 -0.2913
13428TIP3    H161775   2.403   6.788  16.127  0.2805  1.0779  1.2030
13428TIP3    H261776   2.516   6.695  16.089 -0.3116  0.8198  0.0467
13429TIP3   OH261777   5.044   0.420   0.567 -0.9748  0.0018 -0.9286
13429TIP3    H161778   5.055   0.447   0.476  1.0484 -0.9878 -1.0259
13429TIP3    H261779   5.132   0.418   0.603 -1.6792 -0.1430  0.9330
13430TIP3   OH261780   4.229   5.491   2.289 -0.3767  0.0852  0.7566
13430TIP3    H161781   4.315   5.485   2.331  0.2735  1.1929 -0.3366
13430TIP3    H261782   4.229   5.421   2.224  0.4184  1.1358 -0.4189
13431TIP3   OH261783   0.382   0.253   4.964 -0.3257  0.0468  0.1875
13431TIP3    H161784   0.321   0.286   5.030  0.9207  0.6233  1.0769
13431TIP3    H261785   0.459   0.225   5.014  0.1092 -0.7816 -0.9034
13432TIP3   OH261786   6.043   2.144   1.675 -0.1857  0.0678 -0.0708
13432TIP3    H161787   6.025   2.066   1.623 -1.9645 -1.4954  2.6355
13432TIP3    H261788   5.960   2.192   1.676  0.6861  1.6693 -1.0942
13433TIP3   OH261789   2.706   5.474  11.478  0.2583  0.0675  0.1064
13433TIP3    H161790   2.702   5.568  11.494  1.0629  0.2433 -0.6724
13433TIP3    H261791   2.631   5.457  11.420  1.7994  0.7736 -2.2151
13434TIP3   OH261792   6.280   6.550  14.501  0.2586 -0.0900  1.1176
13434TIP3    H161793   6.248   6.639  14.484 -0.2559 -0.4475  0.1800
13434TIP3    H261794   6.369   6.563  14.536  0.6741  0.7482 -0.2006
13435TIP3   OH261795   5.657   3.785   0.823 -0.2548 -0.0223 -0.0365
13435TIP3    H161796   5.712   3.862   0.837  1.1798 -1.0020 -0.0316
13435TIP3    H261797   5.591   3.813   0.761 -0.6463  1.6009  1.0566
13436TIP3   OH261798   0.274   5.361   3.429 -0.4631  0.4206  0.3458
13436TIP3    H161799   0.236   5.405   3.352 -0.6565  0.2766  0.3576
13436TIP3    H261800   0.198   5.332   3.479 -0.3348 -0.2463  0.1590
13437TIP3   OH261801   6.679   0.117   1.917 -0.0884  0.8121  0.0576
13437TIP3    H161802   6.759   0.072   1.942 -1.4533 -1.6498  0.3029
13437TIP3    H261803   6.683   0.122   1.821 -0.4825 -1.0603 -0.0775
13438TIP3   OH261804   6.232   1.636   1.039 -0.1922  0.1380  0.3544
13438TIP3    H161805   6.326   1.654   1.049  0.0388  0.0104 -1.2306
13438TIP3    H261806   6.204   1.602   1.124  1.4034 -0.6639  0.5962
13439TIP3   OH261807   5.455   6.084   5.233  0.1077 -0.1076  0.0065
13439TIP3    H161808   5.414   6.170   5.242  1.6597  1.0842 -2.9075
13439TIP3    H261809   5.388   6.022   5.263 -0.8814  2.0377  2.6862
13440TIP3   OH261810   0.482   3.938  11.906  0.1152 -0.4803 -0.1854
13440TIP3    H161811   0.435   4.021  11.900  1.1037  0.1016 -0.1819
13440TIP3    H261812   0.574   3.961  11.892  0.4522 -1.5228  0.1564
13441TIP3   OH261813   1.598   5.774  14.152  0.4192  0.7374 -0.3416
13441TIP3    H161814   1.575   5.715  14.224 -0.5406 -0.4802 -1.5888
13441TIP3    H261815   1.631   5.717  14.083  0.4730  1.7686 -1.2044
13442TIP3   OH261816   3.069   3.794  12.041  0.6013  0.6087  0.4563
13442TIP3    H161817   3.148   3.840  12.070  0.0416  2.2073 -0.4686
13442TIP3    H261818   3.032   3.850  11.973 -0.4523 -0.9287 -0.2888
13443TIP3   OH261819   1.473   6.506   3.953  0.5015  1.0674  0.3047
13443TIP3    H161820   1.452   6.584   3.903 -0.9618 -0.6038 -1.9044
13443TIP3    H261821   1.388   6.464   3.969  1.3653 -1.5446 -1.2677
13444TIP3   OH261822   5.049   1.103   0.881 -1.1655 -0.1631 -0.1079
13444TIP3    H161823   5.047   1.007   0.875 -0.3748 -0.3330  1.5464
13444TIP3    H261824   5.142   1.125   0.873 -1.4430  0.5786 -1.4901
13445TIP3   OH261825   4.149   3.652   1.678 -0.1696  0.2016 -0.3175
13445TIP3    H161826   4.109   3.701   1.607  0.3983  1.4089  0.1659
13445TIP3    H261827   4.151   3.561   1.647 -0.9901  0.5184 -1.3431
13446TIP3   OH261828   2.281   6.087   2.935 -0.1571 -0.1442  0.1618
13446TIP3    H161829   2.335   6.162   2.960  0.2126 -0.2633 -0.2585
13446TIP3    H261830   2.210   6.124   2.883 -1.1365  0.1492  1.6568
13447TIP3   OH261831   4.884   5.204   3.491  0.8484 -0.0303 -0.0525
13447TIP3    H161832   4.905   5.203   3.398  0.4068  1.2967 -0.1970
13447TIP3    H261833   4.817   5.272   3.500  1.8936  0.8835  1.4187
13448TIP3   OH261834   1.199   0.491  13.502  0.3175  0.0420  0.5135
13448TIP3    H161835   1.226   0.559  13.441  0.2679  1.4111  1.9596
13448TIP3    H261836   1.193   0.535  13.586 -0.6476 -1.5557  1.3300
13449TIP3   OH261837   0.793   5.979   5.160  0.0223  0.5732 -0.3555
13449TIP3    H161838   0.791   5.904   5.220  0.1978  1.3158  0.6127
13449TIP3    H261839   0.766   5.943   5.076 -0.9127 -0.3759  0.3154
13450TIP3   OH261840   4.728   0.086  12.051 -0.3335  0.3502 -0.7281
13450TIP3    H161841   4.688   0.169  12.074 -0.6294 -0.1407  0.6152
13450TIP3    H261842   4.773   0.057  12.131 -0.2963 -0.8041 -1.1447
13451TIP3   OH261843   4.405   0.909   3.273 -0.3608 -0.0965 -0.1481
13451TIP3    H161844   4.332   0.860   3.235 -1.3347  0.5088  0.8775
13451TIP3    H261845   4.397   0.895   3.367  0.7767  0.0981 -0.0095
13452TIP3   OH261846   2.800   2.407  16.032  0.6851  0.4951 -0.4437
13452TIP3    H161847   2.814   2.372  15.944  0.8894 -0.4389 -0.0454
13452TIP3    H261848   2.845   2.492  16.031 -0.9896  1.4303 -1.8547
13453TIP3   OH261849   5.955   2.531  16.546 -0.1716 -0.1359 -0.0903
13453TIP3    H161850   5.885   2.589  16.576  0.4933  0.8139 -0.2989
13453TIP3    H261851   6.035   2.571  16.581  0.3254 -0.7828 -0.4747
13454TIP3   OH261852   4.666   0.543  11.898  0.3788  0.0088  0.2882
13454TIP3    H161853   4.649   0.468  11.842  0.8080 -0.0330  0.2103
13454TIP3    H261854   4.754   0.528  11.932  1.1654  1.3158 -1.0683
13455TIP3   OH261855   2.471   6.116  15.084 -0.3449 -0.6423  0.2208
13455TIP3    H161856   2.424   6.163  15.015 -2.2607 -1.6621  0.7814
13455TIP3    H261857   2.412   6.118  15.159  1.1964 -0.6031  1.4822
13456TIP3   OH261858   3.568   5.356  10.969  0.0348 -0.3830 -0.4542
13456TIP3    H161859   3.663   5.359  10.968  0.0760  2.8579  0.9949
13456TIP3    H261860   3.546   5.329  11.059 -0.3753  0.1561 -0.3850
13457TIP3   OH261861   0.786   4.301   3.921  0.2757  0.6811  0.1748
13457TIP3    H161862   0.805   4.275   3.831  0.3906 -1.3334  0.7377
13457TIP3    H261863   0.814   4.226   3.974 -0.4061  1.5524  1.8330
13458TIP3   OH261864   1.356   2.373   3.842 -0.7446  0.8302  0.2342
13458TIP3    H161865   1.436   2.360   3.892 -1.5237  1.2170  1.6478
13458TIP3    H261866   1.372   2.453   3.791  1.0201 -0.9476 -2.2310
13459TIP3   OH261867   4.442   3.154  14.235 -0.1237 -0.6232  0.3357
13459TIP3    H161868   4.458   3.141  14.328 -0.4641  1.1857  0.6972
13459TIP3    H261869   4.408   3.071  14.204 -0.9860 -0.9533  2.0532
13460TIP3   OH261870   6.572   1.855  14.877 -0.0586  0.2903 -0.3410
13460TIP3    H161871   6.639   1.818  14.935 -0.5907  1.4090  1.0260
13460TIP3    H261872   6.603   1.833  14.789  1.7323  0.1428  0.2728
13461TIP3   OH261873   6.333   5.644   0.383  0.0323 -0.2813  0.7432
13461TIP3    H161874   6.281   5.591   0.323 -1.2269  0.3070  1.2779
13461TIP3    H261875   6.288   5.729   0.386  2.2871  1.0633 -0.5083
13462TIP3   OH261876   0.782   6.333  14.995  0.1845 -0.1668  0.0914
13462TIP3    H161877   0.749   6.418  15.022 -0.5088 -0.7292  1.0806
13462TIP3    H261878   0.724   6.270  15.038  0.6805 -1.1381 -0.6247
13463TIP3   OH261879   6.368   5.072   2.551  0.5153  0.0827  0.4218
13463TIP3    H161880   6.289   5.026   2.581  0.1824  0.4825  0.1657
13463TIP3    H261881   6.350   5.164   2.568  0.4860  0.2773 -0.6269
13464TIP3   OH261882   6.810   2.111   1.697 -0.3571  0.8559 -0.3762
13464TIP3    H161883   6.896   2.083   1.666 -0.4183  1.0696 -0.7367
13464TIP3    H261884   6.780   2.038   1.752  0.1197  0.8452 -0.1201
13465TIP3   OH261885   6.157   6.116  12.387 -0.3685 -0.1286  0.1407
13465TIP3    H161886   6.155   6.094  12.481  1.7867  0.5866  0.4190
13465TIP3    H261887   6.170   6.032  12.344  3.4842 -0.1242  0.9056
13466TIP3   OH261888   3.199   1.591  14.156 -0.0512  0.2374 -0.3909
13466TIP3    H161889   3.257   1.588  14.081  0.4049 -0.6746 -0.0196
13466TIP3    H261890   3.176   1.683  14.166 -0.0322  0.3831 -1.5715
13467TIP3   OH261891   1.818   6.713  15.045  0.5264  0.5925  0.6498
13467TIP3    H161892   1.795   6.802  15.017  0.3114  0.0201 -1.1041
13467TIP3    H261893   1.893   6.690  14.991 -0.5067 -0.9276 -0.1937
13468TIP3   OH261894   6.329   6.209   2.065 -0.3977 -0.5371  0.0122
13468TIP3    H161895   6.356   6.176   1.979 -1.1903 -3.3251  0.7323
13468TIP3    H261896   6.321   6.303   2.053  2.8333 -0.3617 -2.0392
13469TIP3   OH261897   4.790   6.789  15.400 -0.2817  0.0517  0.8335
13469TIP3    H161898   4.794   6.750  15.487 -0.3522 -1.4048  0.2134
13469TIP3    H261899   4.715   6.748  15.358  0.7019 -0.4996 -0.4708
13470TIP3   OH261900   0.806   3.564  15.492 -0.6253  0.3571  0.3228
13470TIP3    H161901   0.875   3.500  15.474 -0.0805 -0.0510  3.3536
13470TIP3    H261902   0.849   3.649  15.477  0.0121  0.0724  0.4797
13471TIP3   OH261903   0.419   2.480   1.990 -0.5648 -0.0058  0.3991
13471TIP3    H161904   0.477   2.545   1.949  0.0850 -0.3104  0.8307
13471TIP3    H261905   0.475   2.404   2.005 -1.4665 -0.9299 -0.7083
13472TIP3   OH261906   1.145   3.657   3.637 -0.6683  0.5919 -0.1870
13472TIP3    H161907   1.212   3.691   3.577 -0.5726 -0.2362 -0.5718
13472TIP3    H261908   1.171   3.690   3.723  0.4611 -0.0115 -0.2667
13473TIP3   OH261909   4.028   5.172   3.541  0.0587  0.0349  0.7473
13473TIP3    H161910   4.056   5.220   3.620  0.4287 -0.5375  0.9724
13473TIP3    H261911   3.990   5.239   3.485 -1.2996  0.2805  1.8906
13474TIP3   OH261912   1.604   1.369  16.661  0.1493  0.6031 -0.1462
13474TIP3    H161913   1.672   1.353  16.597  0.7714  0.0600  0.6263
13474TIP3    H261914   1.650   1.375  16.745 -0.7201  0.4079  0.3653
13475TIP3   OH261915   4.505   3.845   1.031  0.5941  0.0312 -0.3048
13475TIP3    H161916   4.504   3.940   1.018  0.4524  0.2476  1.1892
13475TIP3    H261917   4.416   3.817   1.008  0.4192  0.3586 -0.0298
13476TIP3   OH261918   3.152   6.285   1.913  0.3508 -0.0253  0.0833
13476TIP3    H161919   3.155   6.236   1.995 -0.2471  1.6784  1.1828
13476TIP3    H261920   3.063   6.272   1.881  0.7004 -1.0132 -0.5366
13477TIP3   OH261921   5.403   6.249  12.546  0.0425 -0.3882  0.1375
13477TIP3    H161922   5.489   6.214  12.568  0.2509 -0.6228 -1.0067
13477TIP3    H261923   5.408   6.269  12.453 -0.3826  1.8363  0.5482
13478TIP3   OH261924   4.932   6.078  11.549  0.5043 -0.0414 -0.2874
13478TIP3    H161925   5.017   6.090  11.592  1.4854 -0.5408 -2.0100
13478TIP3    H261926   4.925   6.153  11.490 -0.3042  0.0373 -0.1010
13479TIP3   OH261927   1.206   3.282  16.499  0.9713  0.4381  0.0105
13479TIP3    H161928   1.168   3.339  16.432  2.5886 -0.0768 -1.4337
13479TIP3    H261929   1.204   3.334  16.579  0.5405  1.7434 -0.8249
13480TIP3   OH261930   2.798   5.055  15.851 -0.0675 -0.2290 -0.2396
13480TIP3    H161931   2.789   5.142  15.890 -1.0398 -0.2105 -0.4860
13480TIP3    H261932   2.877   5.061  15.797 -0.1279  0.4902 -0.2598
13481TIP3   OH261933   2.622   0.084   6.114 -0.4588  0.0997  0.5489
13481TIP3    H161934   2.602   0.111   6.024 -3.2165 -1.3252  0.6158
13481TIP3    H261935   2.681   0.152   6.147 -2.6017  2.9527 -1.0210
13482TIP3   OH261936   5.545   4.908  12.792  0.5816 -0.9052 -0.1918
13482TIP3    H161937   5.541   4.926  12.698  1.9012 -1.4868 -0.3838
13482TIP3    H261938   5.483   4.970  12.831  2.4083  1.6816 -1.1341
13483TIP3   OH261939   1.905   1.956  14.106 -0.0844 -0.2474 -0.0850
13483TIP3    H161940   1.875   1.887  14.166 -3.5590 -0.8340 -2.2099
13483TIP3    H261941   1.845   2.029  14.121  2.3634  1.7153  0.7863
13484TIP3   OH261942   5.042   0.035   1.895  0.5698  0.5515  0.0720
13484TIP3    H161943   5.109   0.006   1.957  0.7055  1.5206  0.4021
13484TIP3    H261944   5.074   0.119   1.862  0.7184 -0.1455 -1.6718
13485TIP3   OH261945   5.491   3.162   1.725 -0.6049 -0.3656  0.5390
13485TIP3    H161946   5.576   3.193   1.758 -0.0823 -0.7433 -0.4372
13485TIP3    H261947   5.490   3.069   1.747 -0.1942 -0.6496 -0.6157
13486TIP3   OH261948   1.512   6.170   5.777 -0.1727 -0.2972 -0.3473
13486TIP3    H161949   1.535   6.263   5.787  1.7564 -0.6031 -1.5355
13486TIP3    H261950   1.558   6.142   5.698  1.9147 -3.0701  1.6628
13487TIP3   OH261951   2.908   5.013  13.770  0.1148 -0.0709  0.3231
13487TIP3    H161952   2.978   5.076  13.753 -0.9445  0.6025 -1.9820
13487TIP3    H261953   2.918   4.947  13.701 -1.7702  0.3284 -0.4002
13488TIP3   OH261954   3.163   3.447  14.705 -0.6221 -0.4163 -0.0068
13488TIP3    H161955   3.141   3.510  14.637 -1.0659  0.1868  0.6785
13488TIP3    H261956   3.257   3.431  14.693 -0.2272  1.2829  0.5226
13489TIP3   OH261957   5.379   5.192  12.880 -0.5583  0.4337 -0.0497
13489TIP3    H161958   5.355   5.139  12.956  0.0787  0.1428 -0.0515
13489TIP3    H261959   5.313   5.171  12.814 -1.8260  1.5640  0.7966
13490TIP3   OH261960   2.438   0.968   1.240 -0.0761  0.0559  0.0433
13490TIP3    H161961   2.487   1.009   1.169 -0.9334  1.0028 -0.0269
13490TIP3    H261962   2.425   1.038   1.304 -2.0058  0.0904 -0.3089
13491TIP3   OH261963   2.040   1.403  14.984  0.5263  0.7472  0.3580
13491TIP3    H161964   1.996   1.323  14.954  1.1270  0.4459  0.2612
13491TIP3    H261965   2.059   1.450  14.903 -0.6208  1.4344  0.4588
13492TIP3   OH261966   1.132   0.670  16.503  0.3544 -0.0140  0.7335
13492TIP3    H161967   1.075   0.726  16.555 -0.0638 -0.1432  0.4173
13492TIP3    H261968   1.192   0.631  16.567  2.2881  2.6418  0.7284
13493TIP3   OH261969   4.017   2.219  15.032  0.2566 -0.2388 -1.4031
13493TIP3    H161970   4.090   2.278  15.016  0.5199  0.2307  1.0871
13493TIP3    H261971   4.048   2.159  15.100 -2.1031  1.0457  1.0193
13494TIP3   OH261972   5.997   0.060  15.332  0.1664 -0.4144  0.0316
13494TIP3    H161973   6.011  -0.025  15.373  0.6183 -1.4318 -2.0760
13494TIP3    H261974   5.914   0.090  15.368 -0.7128 -2.4180 -0.1852
13495TIP3   OH261975   1.457   5.168   1.658 -0.1844  1.0556  0.1112
13495TIP3    H161976   1.516   5.244   1.659 -0.4770  1.2886  1.0616
13495TIP3    H261977   1.461   5.136   1.568  2.8327 -0.0345  0.4879
13496TIP3   OH261978   6.738   4.136   3.853  0.0266  0.2961  0.3337
13496TIP3    H161979   6.695   4.086   3.784 -1.0627  0.9019  0.5323
13496TIP3    H261980   6.719   4.088   3.933  0.5885  0.0316  0.3119
13497TIP3   OH261981   0.826   5.720  15.582 -0.0780  0.3431 -0.5829
13497TIP3    H161982   0.756   5.784  15.596 -0.0349  0.1120  0.7993
13497TIP3    H261983   0.787   5.636  15.607  0.1678 -0.0521 -1.4621
13498TIP3   OH261984   3.700   6.826  12.134 -0.3902  0.1226 -0.0765
13498TIP3    H161985   3.730   6.888  12.067 -0.0274 -0.4029 -0.4101
13498TIP3    H261986   3.679   6.881  12.210  1.4046  0.5332  0.1734
13499TIP3   OH261987   0.319   6.558   1.705 -0.4834  0.6160  0.8969
13499TIP3    H161988   0.333   6.524   1.793 -2.4939  0.7656  1.3087
13499TIP3    H261989   0.315   6.479   1.650 -2.2096  0.3127  1.4135
13500TIP3   OH261990   1.227   3.422   4.714  0.5665  0.3961  0.9847
13500TIP3    H161991   1.280   3.488   4.759  0.5534  1.4208 -0.4553
13500TIP3    H261992   1.146   3.468   4.690  0.0985 -0.4468  0.8982
13501TIP3   OH261993   2.543   0.955   0.467  0.5085 -0.9069 -0.3251
13501TIP3    H161994   2.515   0.963   0.376  2.8608  1.1633 -0.9870
13501TIP3    H261995   2.493   1.022   0.513  0.6260 -0.7181 -0.4683
13502TIP3   OH261996   3.780   0.664  13.428  0.3300  0.7088 -0.2066
13502TIP3    H161997   3.691   0.695  13.410 -0.3198 -1.7710 -1.7520
13502TIP3    H261998   3.784   0.656  13.523 -0.9058  1.3482 -0.0755
13503TIP3   OH261999   4.431   0.285  11.988  0.1915 -0.0591 -0.4245
13503TIP3    H162000   4.510   0.338  12.002  0.4678 -0.7744  0.8341
13503TIP3    H262001   4.385   0.330  11.917 -0.9221  3.4615  2.2187
13504TIP3   OH262002   1.120   2.031   5.400  0.1268  0.3745 -0.3422
13504TIP3    H162003   1.092   1.953   5.447 -0.4245 -0.1727 -1.5588
13504TIP3    H262004   1.051   2.047   5.335  1.1139  0.8045 -1.3166
13505TIP3   OH262005   3.761   5.748   1.413  0.6662 -0.0738 -0.0389
13505TIP3    H162006   3.753   5.819   1.348  0.3599  0.1265  0.2097
13505TIP3    H262007   3.728   5.671   1.368 -0.6834  0.2993  0.2388
13506TIP3   OH262008   1.553   3.494  11.351  0.5569 -0.1513  0.7379
13506TIP3    H162009   1.520   3.452  11.271  3.1976 -1.1809  0.0786
13506TIP3    H262010   1.559   3.423  11.415  1.0637  0.0862  0.9618
13507TIP3   OH262011   4.289   5.322  13.435  0.1918  0.2497 -0.2709
13507TIP3    H162012   4.293   5.297  13.527  0.2480  1.3191  0.0268
13507TIP3    H262013   4.348   5.260  13.391 -1.1524 -1.3892  0.1179
13508TIP3   OH262014   0.394   1.334  12.605 -0.1329 -0.2776 -0.1003
13508TIP3    H162015   0.433   1.381  12.679 -0.2272 -0.6664  0.1961
13508TIP3    H262016   0.469   1.308  12.551  0.0418 -1.2413  0.5964
13509TIP3   OH262017   6.815   6.332  16.715 -0.2232  0.1713  0.0049
13509TIP3    H162018   6.755   6.292  16.778  0.1194 -0.2677  0.0588
13509TIP3    H262019   6.765   6.339  16.634 -0.7561  0.9835  0.3855
13510TIP3   OH262020   6.683   4.136  13.934 -0.1178 -0.5536 -0.4516
13510TIP3    H162021   6.709   4.080  14.008 -0.4815 -0.6676 -0.4074
13510TIP3    H262022   6.733   4.216  13.946  0.7579 -1.0417 -0.7707
13511TIP3   OH262023   6.277   2.460  14.392  0.1912 -0.5154 -0.2341
13511TIP3    H162024   6.192   2.436  14.356 -0.5465  0.4875  0.7386
13511TIP3    H262025   6.285   2.405  14.470 -0.0401  0.0928  0.2266
13512TIP3   OH262026   2.232   2.840  11.628 -0.4021  0.5377  0.2651
13512TIP3    H162027   2.300   2.860  11.564 -1.6547  1.9920 -0.6789
13512TIP3    H262028   2.179   2.919  11.633 -1.4013 -0.1755  1.7791
13513TIP3   OH262029   3.216   3.852  13.429 -0.4003  0.8741 -0.0884
13513TIP3    H162030   3.122   3.866  13.421 -0.3964  0.3102 -1.3682
13513TIP3    H262031   3.254   3.904  13.359  0.1108 -0.0999 -0.5582
13514TIP3   OH262032   5.081   0.917   2.859  0.4208 -0.1849  0.1193
13514TIP3    H162033   5.044   0.987   2.912  0.4062  0.0287 -0.1705
13514TIP3    H262034   5.169   0.904   2.895 -0.5656 -2.0215  2.0835
13515TIP3   OH262035   0.980   4.778  12.494  0.1988 -0.0280  0.1189
13515TIP3    H162036   0.886   4.767  12.505  0.4589 -1.5885  1.1574
13515TIP3    H262037   1.000   4.857  12.545 -0.2769 -0.8571  1.6524
13516TIP3   OH262038   4.480   6.661  12.450  0.5995  0.5891  0.1460
13516TIP3    H162039   4.570   6.676  12.419  0.5802 -0.5147 -0.4848
13516TIP3    H262040   4.431   6.736  12.417  1.0385  0.5534 -0.6236
13517TIP3   OH262041   4.262   0.083  11.530  0.7607  0.4275 -0.5066
13517TIP3    H162042   4.191   0.037  11.574 -0.7630  1.8849 -1.3248
13517TIP3    H262043   4.297   0.019  11.468  0.5432 -0.4895  0.2977
13518TIP3   OH262044   5.854   6.171  16.241  0.1278 -0.2369 -0.2823
13518TIP3    H162045   5.785   6.109  16.268 -1.2698  1.7039  0.8612
13518TIP3    H262046   5.807   6.239  16.192  1.6705 -0.1701 -1.7722
13519TIP3   OH262047   6.440   2.015   0.904  0.4357 -0.0113  0.1627
13519TIP3    H162048   6.438   1.921   0.919  1.9630 -0.0081  0.5224
13519TIP3    H262049   6.429   2.024   0.809  1.8926 -0.6638 -0.0950
13520TIP3   OH262050   1.907   0.931  13.753 -0.1883  0.1659 -0.4346
13520TIP3    H162051   1.899   0.997  13.684 -0.1414  0.5451 -0.0734
13520TIP3    H262052   1.890   0.848  13.708 -2.3871  0.5928 -0.4663
13521TIP3   OH262053   0.393   5.350   3.670 -0.3433 -0.3626  0.2057
13521TIP3    H162054   0.458   5.421   3.673  0.7565 -1.2858 -0.8219
13521TIP3    H262055   0.366   5.347   3.578 -1.2721 -0.5065  0.4782
13522TIP3   OH262056   2.465   1.106  11.617  0.1494 -0.1084 -0.6474
13522TIP3    H162057   2.532   1.038  11.609  0.5287  0.4419 -2.8421
13522TIP3    H262058   2.382   1.059  11.619  0.4881 -0.6979 -0.0640
13523TIP3   OH262059   4.523   3.131   2.337  0.1013 -0.0272 -0.2704
13523TIP3    H162060   4.525   3.084   2.254 -2.0347 -1.0373  0.1686
13523TIP3    H262061   4.581   3.081   2.394  2.9173  1.5898 -1.4718
13524TIP3   OH262062   3.149   0.746   0.351 -0.2397  0.5560 -0.1977
13524TIP3    H162063   3.110   0.790   0.428 -1.3002 -0.6066 -0.0362
13524TIP3    H262064   3.073   0.714   0.302  0.4940 -0.3514 -0.7498
13525TIP3   OH262065   4.056   0.605   3.758 -0.0910  0.1599  0.0485
13525TIP3    H162066   4.028   0.696   3.766  0.0173  0.3041 -1.0341
13525TIP3    H262067   4.151   0.607   3.771 -0.2634 -0.0111  1.4503
13526TIP3   OH262068   4.938   2.221   5.326  0.2957  0.3850 -0.0250
13526TIP3    H162069   4.988   2.148   5.362  1.7184  1.1747 -0.2970
13526TIP3    H262070   4.885   2.253   5.399  1.3011  0.4273  0.7119
13527TIP3   OH262071   4.108   4.752  13.167  0.1560 -0.8363 -0.5127
13527TIP3    H162072   4.178   4.730  13.228 -0.4480 -1.1260  0.0861
13527TIP3    H262073   4.153   4.788  13.090  0.8882 -0.0309  0.2791
13528TIP3   OH262074   0.307   4.593   3.646  0.2668  0.3346 -0.7451
13528TIP3    H162075   0.300   4.644   3.565  1.5756 -1.3044 -1.9669
13528TIP3    H262076   0.277   4.505   3.621 -3.1033  0.6027  1.5812
13529TIP3   OH262077   6.484   1.064   2.945  0.1978 -0.0613 -0.0230
13529TIP3    H162078   6.408   1.006   2.936  1.3847 -1.8555  0.8787
13529TIP3    H262079   6.472   1.105   3.030 -0.6771  1.1084 -0.6889
13530TIP3   OH262080   0.014   2.947   3.831 -0.0936 -0.8838 -0.0518
13530TIP3    H162081   0.106   2.934   3.807  0.1811 -0.1406  0.5453
13530TIP3    H262082   0.017   3.006   3.907 -1.1019 -0.1647 -0.5438
13531TIP3   OH262083   2.538   0.894   3.098 -0.8416 -0.4492 -0.0086
13531TIP3    H162084   2.460   0.851   3.134 -0.4509 -1.8043 -0.6958
13531TIP3    H262085   2.609   0.832   3.116  0.3300  1.3025  1.6788
13532TIP3   OH262086   6.587   4.555  12.006 -0.1646 -0.1766  0.3590
13532TIP3    H162087   6.647   4.480  12.001 -0.9914 -0.7579 -1.8635
13532TIP3    H262088   6.503   4.520  11.975  0.0578  2.2235 -3.6301
13533TIP3   OH262089   5.921   4.442  10.594 -0.2303  0.2581  0.4417
13533TIP3    H162090   5.883   4.469  10.678 -0.6052 -1.1116  0.7263
13533TIP3    H262091   6.015   4.440  10.611 -0.4277 -2.4649  1.6287
13534TIP3   OH262092   4.145   2.455  13.612  0.0386 -0.0885 -0.0800
13534TIP3    H162093   4.211   2.446  13.681  0.6378  0.6939 -0.5313
13534TIP3    H262094   4.087   2.380  13.625  0.3731 -0.1818  1.0150
13535TIP3   OH262095   4.716   2.238   3.114 -0.1740  0.4514 -0.2184
13535TIP3    H162096   4.623   2.234   3.135 -0.0447 -1.8919  0.1959
13535TIP3    H262097   4.726   2.186   3.034  1.0253 -1.3174  0.9936
13536TIP3   OH262098   3.253   5.635   3.411 -0.0678  0.7457 -0.0274
13536TIP3    H162099   3.265   5.729   3.397 -1.9091  0.9098 -0.7425
13536TIP3    H262100   3.160   5.620   3.398 -0.1433 -0.9093  1.8969
13537TIP3   OH262101   0.050   0.495  11.338 -0.3335  0.4186  0.4588
13537TIP3    H162102   0.025   0.566  11.396  2.3108  1.2440  0.6750
13537TIP3    H262103   0.019   0.416  11.382 -0.9652  1.2257  1.5062
13538TIP3   OH262104   2.634   4.902  15.027 -0.2876  0.3848 -0.0318
13538TIP3    H162105   2.592   4.830  14.979 -1.1841  1.1544 -0.4342
13538TIP3    H262106   2.656   4.966  14.959  0.4615  0.5169  0.3302
13539TIP3   OH262107   6.460   0.686  13.404  0.2480  0.3907  0.0370
13539TIP3    H162108   6.435   0.702  13.313 -1.8709 -3.9439 -0.4226
13539TIP3    H262109   6.395   0.733  13.455 -2.0271 -1.3869 -0.9773
13540TIP3   OH262110   2.394   6.384  16.428 -0.0624  0.4455 -0.3652
13540TIP3    H162111   2.331   6.317  16.456  1.1777 -0.3699  0.6134
13540TIP3    H262112   2.387   6.385  16.333  0.3610 -1.6124 -0.4827
13541TIP3   OH262113   3.123   1.828   0.538 -0.7766 -0.1072 -0.3607
13541TIP3    H162114   3.100   1.804   0.628  0.3131 -0.8960 -0.2624
13541TIP3    H262115   3.097   1.752   0.486  0.3159 -0.4568 -0.4267
13542TIP3   OH262116   3.622   4.747   5.233  0.0935 -0.4360 -0.1866
13542TIP3    H162117   3.531   4.734   5.260  0.3958  1.6043  2.2403
13542TIP3    H262118   3.673   4.708   5.304  1.0769  0.5627 -0.3275
13543TIP3   OH262119   2.818   4.645  11.118  0.1299  0.4012  0.1265
13543TIP3    H162120   2.784   4.567  11.162 -0.4918 -1.3336 -3.0961
13543TIP3    H262121   2.743   4.680  11.070  1.0550  1.3315 -0.6772
13544TIP3   OH262122   3.682   2.369  14.090 -0.1259 -0.2057  0.5422
13544TIP3    H162123   3.704   2.402  14.178  1.7949  2.4654 -0.7989
13544TIP3    H262124   3.611   2.425  14.061 -0.8452 -1.1713  0.3757
13545TIP3   OH262125   1.603   4.103   2.803 -0.0566 -0.4047  0.0415
13545TIP3    H162126   1.560   4.018   2.815 -1.1501  0.3574  1.7838
13545TIP3    H262127   1.651   4.118   2.884  0.3204  0.5469 -0.3386
13546TIP3   OH262128   5.050   6.862  14.912 -0.2226  0.0110 -0.2652
13546TIP3    H162129   5.088   6.780  14.884  1.6513  0.6393  0.2931
13546TIP3    H262130   5.060   6.921  14.837 -0.5613  0.0484 -0.2853
13547TIP3   OH262131   0.780   6.381   2.566  0.2826 -0.3950  0.1774
13547TIP3    H162132   0.838   6.326   2.513  1.1073 -0.1628  0.8224
13547TIP3    H262133   0.828   6.395   2.647 -0.6694 -0.1701  0.7158
13548TIP3   OH262134   0.907   0.100  14.404 -0.2414 -0.8109 -0.1337
13548TIP3    H162135   0.911   0.146  14.320  0.6980  0.3511  0.5127
13548TIP3    H262136   0.813   0.087  14.421 -0.5877  1.4416 -0.0720
13549TIP3   OH262137   2.463   1.324  11.835  0.0692 -0.4019 -0.3180
13549TIP3    H162138   2.387   1.378  11.815  0.5612  0.8214  0.9878
13549TIP3    H262139   2.484   1.280  11.752 -2.3872 -1.2535 -0.5627
13550TIP3   OH262140   0.030   4.188  16.174  0.4233  0.1763  0.4484
13550TIP3    H162141  -0.039   4.122  16.168 -1.3265  1.8759  1.0498
13550TIP3    H262142   0.036   4.224  16.086  1.1193 -0.4974  0.2100
13551TIP3   OH262143   5.827   2.252  15.395 -0.3455  0.5468  0.1659
13551TIP3    H162144   5.829   2.175  15.452 -0.7643  1.2804  1.2053
13551TIP3    H262145   5.740   2.250  15.355 -0.3850  0.5227  0.2523
13552TIP3   OH262146   3.808   5.423   3.588  0.1920 -0.4234 -0.0448
13552TIP3    H162147   3.725   5.384   3.561  1.1903 -1.2298 -2.1619
13552TIP3    H262148   3.792   5.518   3.586 -1.3556 -0.5720  2.0854
13553TIP3   OH262149   5.029   0.610   4.589 -0.0769 -0.1884  0.2084
13553TIP3    H162150   4.938   0.583   4.595 -0.4214  0.1983 -2.1517
13553TIP3    H262151   5.027   0.692   4.539  1.5702 -0.4503 -0.3832
13554TIP3   OH262152   4.258   2.470   5.447  0.0973  0.1297  0.1154
13554TIP3    H162153   4.272   2.549   5.395  0.4298  0.7928  1.1725
13554TIP3    H262154   4.345   2.450   5.484  0.1650 -1.1279 -0.6706
13555TIP3   OH262155   3.086   0.314  14.799 -0.4376 -0.2369 -0.1915
13555TIP3    H162156   3.018   0.323  14.866 -0.1244 -0.1072  0.1102
13555TIP3    H262157   3.168   0.322  14.847 -0.2062 -0.4612 -0.5465
13556TIP3   OH262158   1.215   4.852  16.887  0.3176 -0.5377  0.1673
13556TIP3    H162159   1.253   4.769  16.916  0.4002 -0.8932 -0.8916
13556TIP3    H262160   1.193   4.837  16.795 -0.8701  0.1927  0.3009
13557TIP3   OH262161   1.803   3.651   3.778 -0.5581 -0.1935  0.3797
13557TIP3    H162162   1.720   3.607   3.759 -1.4549  2.1374 -1.5557
13557TIP3    H262163   1.866   3.611   3.718 -0.4422 -1.2782  1.1738
13558TIP3   OH262164   6.548   1.444  12.714 -0.1244  0.1182  0.0042
13558TIP3    H162165   6.618   1.449  12.779 -0.2467  1.9041  0.0555
13558TIP3    H262166   6.476   1.400  12.760  0.9330 -1.7746 -0.0684
13559TIP3   OH262167   2.946   2.897   2.120 -0.5444 -0.5313 -0.1218
13559TIP3    H162168   3.018   2.899   2.057 -0.5372 -1.0502 -0.1304
13559TIP3    H262169   2.954   2.812   2.163 -0.3679 -0.0568  0.7944
13560TIP3   OH262170   4.167   5.714  10.950  0.0908 -0.0896  0.0353
13560TIP3    H162171   4.117   5.682  10.875 -0.0140 -0.3306  0.2068
13560TIP3    H262172   4.258   5.692  10.931  0.1224  0.2744 -0.2397
13561TIP3   OH262173   0.219   5.908   2.060  0.0415  0.7376  0.0985
13561TIP3    H162174   0.213   5.852   1.983 -0.2101  1.6372 -0.5630
13561TIP3    H262175   0.169   5.863   2.127 -1.6083  0.9841 -0.9223
13562TIP3   OH262176   2.478   5.668  10.641  0.1857  0.2616 -1.1400
13562TIP3    H162177   2.388   5.664  10.607  0.0272  0.0519 -0.6977
13562TIP3    H262178   2.482   5.599  10.707  1.2036 -0.9339 -2.3865
13563TIP3   OH262179   1.296   6.225  14.325 -0.2169  0.1203 -0.1956
13563TIP3    H162180   1.376   6.226  14.274 -0.6914 -0.5206 -0.9785
13563TIP3    H262181   1.316   6.170  14.401 -0.6608 -2.3764 -1.7389
13564TIP3   OH262182   3.305   4.875  14.667 -0.8285  0.5143  0.1426
13564TIP3    H162183   3.362   4.851  14.594  1.5718  3.9033  0.6826
13564TIP3    H262184   3.320   4.806  14.732  0.8275  0.0652 -0.6606
13565TIP3   OH262185   3.080   0.214  14.556 -0.4499 -0.1087 -0.3220
13565TIP3    H162186   3.064   0.120  14.562  0.7964 -0.3205 -0.1376
13565TIP3    H262187   3.082   0.244  14.647 -0.6576  0.0622 -0.3729
13566TIP3   OH262188   0.273   0.606   1.836 -0.1780  0.0670  0.4322
13566TIP3    H162189   0.224   0.533   1.874 -1.8806  1.4647  1.0578
13566TIP3    H262190   0.365   0.581   1.847 -0.6664 -2.5954 -0.6440
13567TIP3   OH262191   4.472   2.746   2.888 -0.0790 -0.0270 -0.6402
13567TIP3    H162192   4.538   2.680   2.866  0.2917 -0.1195  0.6695
13567TIP3    H262193   4.432   2.713   2.969 -1.1407  0.4613 -0.9568
13568TIP3   OH262194   4.536   4.292  11.226  0.4461  0.7082  0.0105
13568TIP3    H162195   4.553   4.198  11.225  0.1637  0.6491 -1.3842
13568TIP3    H262196   4.607   4.329  11.173  0.6001  1.2980  0.6155
13569TIP3   OH262197   6.026   1.786   3.876 -0.3506  0.0896  0.0228
13569TIP3    H162198   5.948   1.732   3.887 -1.4044  1.2027 -1.5556
13569TIP3    H262199   6.022   1.848   3.949  0.0300 -0.9375  0.9434
13570TIP3   OH262200   0.174   5.051   1.472  0.1112  0.2654  0.1042
13570TIP3    H162201   0.082   5.022   1.467  0.1108  0.2460  0.2284
13570TIP3    H262202   0.177   5.128   1.416 -0.1542  0.7123  0.6937
13571TIP3   OH262203   1.582   5.063  12.105  0.4354  0.3332 -0.2434
13571TIP3    H162204   1.595   5.146  12.152 -0.3292  0.7464 -0.7472
13571TIP3    H262205   1.670   5.039  12.075  0.4156  2.0360 -1.8498
13572TIP3   OH262206   0.277   1.428   0.733  0.1991  0.1894 -0.3441
13572TIP3    H162207   0.276   1.486   0.810 -0.3920 -0.8085  0.4259
13572TIP3    H262208   0.364   1.389   0.734 -0.5502 -1.6513  1.2938
13573TIP3   OH262209   4.773   5.144  16.652  0.1016  0.3494  0.0719
13573TIP3    H162210   4.792   5.144  16.746 -0.2368 -0.8297  0.1624
13573TIP3    H262211   4.759   5.236  16.630  0.2872  0.6504  1.1513
13574TIP3   OH262212   3.685   5.803   5.418  0.0970 -0.6632  0.3145
13574TIP3    H162213   3.764   5.779   5.369 -0.6505 -0.0682 -1.2342
13574TIP3    H262214   3.712   5.798   5.510  1.6849 -1.3147 -0.1500
13575TIP3   OH262215   2.038   0.939   3.512  0.1070  0.0898 -0.1529
13575TIP3    H162216   2.032   0.965   3.420 -0.8749  2.1370  0.4158
13575TIP3    H262217   1.965   0.879   3.525 -3.4395  4.0475  0.4327
13576TIP3   OH262218   1.836   4.936   5.223  0.4121 -0.6932  0.5040
13576TIP3    H162219   1.887   4.959   5.301  1.2412 -0.3468 -0.1213
13576TIP3    H262220   1.890   4.966   5.150 -0.0922 -1.5284 -0.2290
13577TIP3   OH262221   1.778   3.860   6.492  0.1867  0.1470 -0.0494
13577TIP3    H162222   1.852   3.892   6.544 -1.1441  0.7306  1.5688
13577TIP3    H262223   1.768   3.925   6.422  1.1510  0.0670 -0.2887
13578TIP3   OH262224   2.046   6.023   2.596  0.1793  0.2894  0.1665
13578TIP3    H162225   2.062   5.941   2.643  0.9853  1.0485  1.2508
13578TIP3    H262226   1.962   6.008   2.551  0.7721 -1.4678 -0.4690
13579TIP3   OH262227   0.234   4.524  11.246 -0.0821 -0.0922  0.1562
13579TIP3    H162228   0.263   4.436  11.223  0.3223 -0.3734  1.6133
13579TIP3    H262229   0.176   4.550  11.174  1.0961 -0.8695 -1.1190
13580TIP3   OH262230   3.588   1.679   2.478 -0.0802  0.1259  0.5001
13580TIP3    H162231   3.575   1.602   2.423  0.5023  0.3101  0.0865
13580TIP3    H262232   3.557   1.752   2.424  1.3237  0.4103  0.0364
13581TIP3   OH262233   3.604   2.021  16.461  0.1036  0.1768 -0.7054
13581TIP3    H162234   3.634   1.930  16.464  0.3989  0.2883 -0.2827
13581TIP3    H262235   3.524   2.018  16.408 -0.9599 -0.6419  0.8759
13582TIP3   OH262236   5.035   0.314   2.145  0.5523  0.2417 -0.1286
13582TIP3    H162237   4.979   0.245   2.110  0.3981 -0.2226  0.9789
13582TIP3    H262238   5.106   0.267   2.188 -0.4547  0.6863  2.1436
13583TIP3   OH262239   3.188   1.676  12.870  0.4447 -0.0552  0.0495
13583TIP3    H162240   3.183   1.692  12.776  1.7793  0.7949  0.0975
13583TIP3    H262241   3.222   1.587  12.878  0.9144  0.0920 -0.2861
13584TIP3   OH262242   1.626   6.419   2.323 -0.4831  0.3186 -0.1501
13584TIP3    H162243   1.632   6.342   2.380 -1.4324 -0.0765 -0.5617
13584TIP3    H262244   1.532   6.436   2.314 -0.2915  1.6817  0.1237
13585TIP3   OH262245   6.807   4.779  16.573 -0.2965  0.1509 -0.2458
13585TIP3    H162246   6.796   4.858  16.520  0.3209 -1.6421 -3.3304
13585TIP3    H262247   6.732   4.724  16.551  0.3151 -0.9154  0.2143
13586TIP3   OH262248   4.893   0.556  15.353 -0.0503 -0.1270 -0.1292
13586TIP3    H162249   4.945   0.490  15.307 -0.0079  0.5759 -1.1062
13586TIP3    H262250   4.882   0.520  15.441 -0.3464 -1.6119 -0.7486
13587TIP3   OH262251   0.294   3.372   3.061 -0.0775  0.2751 -0.3133
13587TIP3    H162252   0.320   3.416   2.980  0.7415  0.8638  0.2575
13587TIP3    H262253   0.243   3.436   3.108  0.0783  0.1930 -0.0294
13588TIP3   OH262254   5.858   1.706  12.087  0.1391 -0.3364 -0.2336
13588TIP3    H162255   5.845   1.793  12.048  0.4367  0.0211  0.4432
13588TIP3    H262256   5.941   1.713  12.134  0.3522 -1.1094 -0.4783
13589TIP3   OH262257   6.009   4.046  16.441  0.0761 -0.4817 -0.2117
13589TIP3    H162258   5.983   4.119  16.496 -0.5771  0.6642 -1.9651
13589TIP3    H262259   6.096   4.021  16.473  2.0470  3.4857 -1.7565
13590TIP3   OH262260   1.674   6.407  15.340  0.1154  0.4993 -0.0525
13590TIP3    H162261   1.593   6.429  15.386 -0.0885  1.3928 -0.8182
13590TIP3    H262262   1.656   6.429  15.248  0.8181 -0.4282 -0.4222
13591TIP3   OH262263   1.971   1.258   1.500 -0.1516 -0.0047  0.1362
13591TIP3    H162264   2.048   1.206   1.521 -1.6516 -3.4533 -2.1223
13591TIP3    H262265   1.975   1.271   1.405 -1.4400  1.3321  0.2213
13592TIP3   OH262266   1.021   1.707  12.421 -0.1307 -0.0690 -0.0068
13592TIP3    H162267   0.993   1.714  12.330  0.6814  0.6079 -0.2104
13592TIP3    H262268   1.003   1.615  12.444 -2.1504  0.2331 -0.2242
13593TIP3   OH262269   0.161   0.427  12.765 -0.1255 -0.6409 -0.0719
13593TIP3    H162270   0.089   0.364  12.759 -0.8772  0.0437  1.2676
13593TIP3    H262271   0.226   0.386  12.821 -0.1310 -0.6563 -0.0766
13594TIP3   OH262272   0.129   3.490  13.111 -0.1138  0.1193  0.1363
13594TIP3    H162273   0.036   3.494  13.137  0.0917 -1.5844  1.3156
13594TIP3    H262274   0.169   3.566  13.154 -0.9878  1.0392 -0.6174
13595TIP3   OH262275   0.809   2.047  14.068  0.5500  0.2142  0.6336
13595TIP3    H162276   0.851   2.092  13.995  0.2912 -0.9808 -0.2912
13595TIP3    H262277   0.717   2.041  14.043  0.3913  0.1018  1.2214
13596TIP3   OH262278   3.179   1.619   4.456 -0.2918 -0.3911 -0.8706
13596TIP3    H162279   3.110   1.686   4.457 -1.1164 -1.1731 -2.2743
13596TIP3    H262280   3.147   1.549   4.512  0.9390  0.6668  1.2794
13597TIP3   OH262281   3.507   2.391   4.589  0.0894  0.1465  0.0577
13597TIP3    H162282   3.441   2.323   4.577  2.2306 -1.9817 -0.4109
13597TIP3    H262283   3.551   2.399   4.505  2.5301 -0.9101  1.1177
13598TIP3   OH262284   0.407   0.832  15.889  0.0027  0.3914  0.0199
13598TIP3    H162285   0.365   0.784  15.818 -1.5296 -0.4950  1.4488
13598TIP3    H262286   0.452   0.904  15.846  1.4161 -1.6185 -2.0969
13599TIP3   OH262287   0.369   3.616   0.937  0.3088  0.3180  0.2636
13599TIP3    H162288   0.329   3.546   0.887  0.6138  2.1436 -2.7691
13599TIP3    H262289   0.463   3.608   0.921  0.3544  1.3700 -0.1061
13600TIP3   OH262290   4.023   6.397   0.391  0.4017  0.7434 -0.2242
13600TIP3    H162291   3.966   6.322   0.373  1.2761  0.5486 -2.5047
13600TIP3    H262292   4.049   6.386   0.482 -0.7399 -0.8698 -0.0543
13601TIP3   OH262293   2.467   1.493  12.271  0.6446  0.2805 -0.1723
13601TIP3    H162294   2.528   1.428  12.237  0.6327 -0.2751  0.8214
13601TIP3    H262295   2.411   1.516  12.197  1.0300 -0.4021 -0.6816
13602TIP3   OH262296   4.172   5.048   6.021  0.2716 -0.1688  0.1078
13602TIP3    H162297   4.234   5.020   5.954  0.4584  0.9287 -0.2130
13602TIP3    H262298   4.102   5.093   5.973 -1.1441 -1.9441  0.4039
13603TIP3   OH262299   3.301   5.620  15.742  0.3431 -0.2280  0.3367
13603TIP3    H162300   3.372   5.657  15.796  0.5840  0.6587 -0.5637
13603TIP3    H262301   3.222   5.639  15.792  0.6181 -0.0441  0.7185
13604TIP3   OH262302   6.401   1.510   3.145  0.0803  0.2155  0.1451
13604TIP3    H162303   6.474   1.463   3.105  0.3312  1.4711 -0.9233
13604TIP3    H262304   6.430   1.529   3.234 -0.1796 -1.9355  0.7521
13605TIP3   OH262305   4.881   6.425  15.163 -0.1845  0.5873  0.6780
13605TIP3    H162306   4.930   6.401  15.242  1.6596  1.4409 -0.1578
13605TIP3    H262307   4.903   6.517  15.149 -1.0642  0.6363 -0.4438
13606TIP3   OH262308   0.872   3.257   1.794 -0.0913 -0.0070  0.7168
13606TIP3    H162309   0.938   3.213   1.740  0.0168  0.1837  0.6933
13606TIP3    H262310   0.888   3.223   1.883 -0.5583 -0.6610  0.5602
13607TIP3   OH262311   0.874   4.356  15.986 -0.0746 -0.2019  0.2841
13607TIP3    H162312   0.884   4.283  16.047 -1.0455 -1.0411 -0.5294
13607TIP3    H262313   0.958   4.402  15.991  1.3238 -2.4924 -0.5829
13608TIP3   OH262314   1.699   4.589  14.563 -0.8256 -0.5604  0.1138
13608TIP3    H162315   1.615   4.549  14.584 -1.3901 -0.0127 -1.0759
13608TIP3    H262316   1.679   4.680  14.542 -0.1297 -0.7421 -1.4655
13609TIP3   OH262317   5.157   0.990   0.281 -0.8692  0.0351 -0.1927
13609TIP3    H162318   5.096   1.020   0.214  0.6670 -0.0320 -1.6938
13609TIP3    H262319   5.143   0.895   0.284 -0.1636 -0.1190 -1.2743
13610TIP3   OH262320   5.694   5.581   1.994  0.5238  0.7824 -0.2498
13610TIP3    H162321   5.702   5.638   1.917  0.6844  0.0565 -0.7785
13610TIP3    H262322   5.770   5.523   1.989 -0.4905 -0.5715 -0.6416
13611TIP3   OH262323   2.277   5.592  12.630 -0.0224  0.3711 -0.3169
13611TIP3    H162324   2.357   5.585  12.682 -0.4585  1.3978  0.5361
13611TIP3    H262325   2.253   5.684  12.635 -1.0367  0.1606 -0.9081
13612TIP3   OH262326   1.348   6.106   6.494 -0.2307  0.7484 -0.0857
13612TIP3    H162327   1.422   6.053   6.463 -0.9519  0.3496 -1.1996
13612TIP3    H262328   1.273   6.047   6.488 -0.8345  1.5052 -0.1146
13613TIP3   OH262329   5.357   5.870   1.826 -0.4802 -0.4062  0.8579
13613TIP3    H162330   5.289   5.919   1.778  0.4852 -0.5484 -0.7159
13613TIP3    H262331   5.323   5.781   1.832 -0.6700 -0.3538  0.5641
13614TIP3   OH262332   5.907   4.493   4.291 -0.2050 -0.3467  0.3516
13614TIP3    H162333   5.980   4.435   4.268  1.8018  2.0799  0.1261
13614TIP3    H262334   5.933   4.531   4.375 -1.3626  0.3933  0.3893
13615TIP3   OH262335   0.325   0.522  16.790 -0.4515  0.0953  0.1236
13615TIP3    H162336   0.316   0.588  16.721  0.7591  0.9225  0.7473
13615TIP3    H262337   0.308   0.439  16.744 -3.0282  0.8340 -0.4645
13616TIP3   OH262338   0.326   6.547  11.478 -0.3367 -0.5350 -0.2153
13616TIP3    H162339   0.296   6.611  11.413 -0.6147 -0.6804 -0.2294
13616TIP3    H262340   0.288   6.577  11.560 -0.1914 -0.4933 -0.1629
13617TIP3   OH262341   2.012   5.811   5.832  0.6228  0.3689 -0.1102
13617TIP3    H162342   2.030   5.821   5.926  2.5198 -1.4097 -0.1997
13617TIP3    H262343   1.958   5.886   5.810 -0.0206  0.7727  2.4332
13618TIP3   OH262344   1.569   0.393   5.460 -0.2229  0.5183  0.1175
13618TIP3    H162345   1.605   0.479   5.480  0.0418  0.5452 -0.4672
13618TIP3    H262346   1.644   0.340   5.435 -0.6699  0.8746 -2.1735
13619TIP3   OH262347   2.372   0.695   0.032 -0.7528  0.4435 -0.5741
13619TIP3    H162348   2.296   0.704  -0.025 -1.2422 -1.1144 -0.1950
13619TIP3    H262349   2.339   0.651   0.110  0.2095  1.2436  0.3215
13620TIP3   OH262350   0.268   2.527   3.092 -0.2103 -0.3802  0.0706
13620TIP3    H162351   0.234   2.616   3.091  0.4943 -0.1058 -1.1085
13620TIP3    H262352   0.280   2.507   3.185 -1.5130  0.2971  0.4100
13621TIP3   OH262353   2.604   3.360  12.277  0.1627  0.3160 -0.0912
13621TIP3    H162354   2.697   3.376  12.258 -0.5183  4.1743 -0.9370
13621TIP3    H262355   2.571   3.314  12.199  1.1295 -0.2057 -0.2092
13622TIP3   OH262356   0.705   2.890   4.411  0.2772 -0.4764  0.0312
13622TIP3    H162357   0.615   2.870   4.387 -0.4098 -1.2444  2.8968
13622TIP3    H262358   0.758   2.844   4.345 -1.4098 -2.3441 -0.1337
13623TIP3   OH262359   1.343   3.366  13.119  0.5531 -0.0515  0.5526
13623TIP3    H162360   1.404   3.349  13.191 -0.0270 -0.6662  0.9095
13623TIP3    H262361   1.399   3.394  13.046  1.0949  1.1827  1.4213
13624TIP3   OH262362   5.865   6.136   5.338  0.1452  0.1352  0.2424
13624TIP3    H162363   5.891   6.091   5.419 -1.4543  0.2347  0.8373
13624TIP3    H262364   5.783   6.180   5.360 -0.4039  0.0387 -1.4687
13625TIP3   OH262365   6.289   6.558  15.045 -0.3376  0.0434  0.2288
13625TIP3    H162366   6.284   6.577  14.951 -0.2943 -0.9133  0.0235
13625TIP3    H262367   6.307   6.464  15.050 -1.2076 -0.0992  1.2079
13626TIP3   OH262368   0.438   3.140   3.947  0.2049  0.0931  0.3026
13626TIP3    H162369   0.503   3.131   4.017 -0.3615  2.0769  1.1689
13626TIP3    H262370   0.408   3.231   3.955 -0.3464  0.1894 -2.1360
13627TIP3   OH262371   4.568   1.661   5.915 -0.1030 -0.6325 -0.1460
13627TIP3    H162372   4.508   1.663   5.840  0.9420 -1.0059 -1.0292
13627TIP3    H262373   4.610   1.576   5.910  1.3075  0.0338 -0.2307
13628TIP3   OH262374   0.524   6.741  12.713  0.5014  0.0995  0.0518
13628TIP3    H162375   0.585   6.707  12.647  0.5422 -0.0873  0.1850
13628TIP3    H262376   0.438   6.710  12.684  0.4738  0.3431 -0.1217
13629TIP3   OH262377   5.631   2.096  15.764 -0.6852  0.4038 -0.4364
13629TIP3    H162378   5.597   2.058  15.846  0.1395  0.7477  0.0760
13629TIP3    H262379   5.556   2.094  15.705 -1.0943 -0.5819  0.0719
13630TIP3   OH262380   5.295   1.735   1.246 -0.0331 -0.1870  0.0190
13630TIP3    H162381   5.331   1.647   1.258 -1.0559 -0.8439 -1.3730
13630TIP3    H262382   5.257   1.757   1.331 -1.5575 -1.9712 -0.1238
13631TIP3   OH262383   6.150   4.371   0.476 -0.8509 -0.4612  0.7419
13631TIP3    H162384   6.150   4.337   0.565 -0.7875  0.1753  0.9922
13631TIP3    H262385   6.236   4.413   0.466 -0.8154 -0.6195  0.3464
13632TIP3   OH262386   1.452   5.711  16.634  0.6623  0.3609  0.3055
13632TIP3    H162387   1.440   5.620  16.608  0.0815  0.3773  0.4936
13632TIP3    H262388   1.404   5.718  16.717 -0.4947  1.1900 -0.4156
13633TIP3   OH262389   4.792   0.745   4.824  0.2076  0.2063  0.2235
13633TIP3    H162390   4.848   0.820   4.802  0.2065  0.2089  0.2288
13633TIP3    H262391   4.797   0.689   4.747  1.7785 -0.7373  0.9655
13634TIP3   OH262392   6.487   0.219   2.645 -0.4984  0.0915 -0.0227
13634TIP3    H162393   6.444   0.243   2.563  1.2116 -0.2011 -1.0436
13634TIP3    H262394   6.496   0.301   2.692  1.0010  0.7730 -1.3924
13635TIP3   OH262395   6.249   4.167  15.992 -0.0534 -0.3305 -0.0296
13635TIP3    H162396   6.329   4.141  16.038 -0.4773 -0.7121  0.4968
13635TIP3    H262397   6.186   4.185  16.061  0.6775  3.8785 -0.2173
13636TIP3   OH262398   3.283   4.155   5.335 -0.1126 -0.6973 -0.1561
13636TIP3    H162399   3.324   4.186   5.254  1.3210 -1.8066  0.1099
13636TIP3    H262400   3.189   4.159   5.317 -0.0013  2.1571 -0.7199
13637TIP3   OH262401   2.825   0.510  14.173  0.7841  0.1429  0.0153
13637TIP3    H162402   2.882   0.493  14.247  0.3474  1.7813  0.7801
13637TIP3    H262403   2.736   0.506  14.209  0.5927  1.9269 -0.1320
13638TIP3   OH262404   1.794   3.634  11.851  0.0382 -0.2558 -0.4274
13638TIP3    H162405   1.699   3.635  11.859  0.0507  0.5252 -0.3333
13638TIP3    H262406   1.821   3.723  11.874  0.7828 -0.4485 -0.5385
13639TIP3   OH262407   3.531   3.474  16.037  0.0202 -0.1713 -0.1711
13639TIP3    H162408   3.529   3.517  15.951  1.1663 -0.0465 -0.1492
13639TIP3    H262409   3.539   3.381  16.018  2.2556 -0.0188 -0.2362
13640TIP3   OH262410   5.817   4.338  11.691  0.0474 -0.1352 -0.1064
13640TIP3    H162411   5.797   4.246  11.706 -0.1271  0.2136  2.0558
13640TIP3    H262412   5.893   4.356  11.745 -0.5209  1.2223  0.2947
13641TIP3   OH262413   0.154   5.789  16.836  0.0546  0.2185  0.2243
13641TIP3    H162414   0.212   5.839  16.893  1.8927 -1.1099 -0.3923
13641TIP3    H262415   0.211   5.756  16.767 -1.7057 -0.0348 -1.1960
13642TIP3   OH262416   1.848   0.362   1.319 -0.2239  0.3444  0.2712
13642TIP3    H162417   1.864   0.427   1.250  3.2523 -0.5025  0.1220
13642TIP3    H262418   1.826   0.282   1.272 -0.1256  0.3286  0.2521
13643TIP3   OH262419   5.802   6.571   4.561  0.2740 -0.3218 -0.0110
13643TIP3    H162420   5.810   6.479   4.586  0.2935 -0.1593  0.6146
13643TIP3    H262421   5.871   6.615   4.610 -1.9541  0.5561  2.6044
13644TIP3   OH262422   6.836   2.058  13.645 -0.0512 -1.0340  0.2664
13644TIP3    H162423   6.846   2.058  13.550 -1.3651 -1.7305  0.1100
13644TIP3    H262424   6.925   2.054  13.679  0.4863  0.1742 -0.9177
13645TIP3   OH262425   1.668   0.510   4.101 -0.6217  0.2336 -0.2544
13645TIP3    H162426   1.704   0.454   4.170  0.6885  1.0654 -0.2321
13645TIP3    H262427   1.629   0.449   4.039 -0.4048 -0.6239  0.4332
13646TIP3   OH262428   1.948   4.011  12.623  0.2861  0.7030 -0.0178
13646TIP3    H162429   1.941   4.105  12.604 -0.0721  0.4719 -1.0691
13646TIP3    H262430   1.870   3.973  12.582 -0.2072  0.0932  1.4239
13647TIP3   OH262431   6.560   6.476   2.933  0.2547 -0.4081 -0.2823
13647TIP3    H162432   6.616   6.478   2.856 -1.5243 -0.4881 -1.6323
13647TIP3    H262433   6.488   6.536   2.913 -2.1966 -3.1083 -0.3115
13648TIP3   OH262434   2.040   5.879  16.264  0.6418  0.2968 -0.3374
13648TIP3    H162435   2.112   5.890  16.202  1.9450 -0.8388  0.9039
13648TIP3    H262436   1.977   5.824  16.217 -0.0742  2.3019 -1.8883
13649TIP3   OH262437   6.554   1.944   6.048 -0.4356 -0.0675  0.0026
13649TIP3    H162438   6.527   1.903   6.130  0.4885  1.6768  1.2425
13649TIP3    H262439   6.647   1.924   6.041 -0.1221  1.2311  0.3005
13650TIP3   OH262440   5.110   5.327  16.734  0.5743 -0.6835  0.8435
13650TIP3    H162441   5.044   5.379  16.781 -0.3636 -1.0312 -0.0566
13650TIP3    H262442   5.072   5.240  16.728  1.8226 -1.3253  1.6829
13651TIP3   OH262443   3.685   2.014  11.397  0.2284  0.6029 -0.3746
13651TIP3    H162444   3.600   1.980  11.369 -0.2271  1.4024  0.0128
13651TIP3    H262445   3.740   1.936  11.404 -1.3037 -0.3502  2.3433
13652TIP3   OH262446   2.515   3.791   5.048  0.3611 -0.1159  0.6244
13652TIP3    H162447   2.492   3.853   4.979 -1.4761 -1.8431 -0.4155
13652TIP3    H262448   2.580   3.837   5.100 -0.6757  2.5516 -0.2562
13653TIP3   OH262449   1.114   1.387   2.627 -0.4941 -0.2826  0.1112
13653TIP3    H162450   1.040   1.350   2.578 -1.6002  1.2919  0.5326
13653TIP3    H262451   1.080   1.398   2.716  0.3575  0.1820  0.3814
13654TIP3   OH262452   1.584   6.397  11.611 -0.0566  0.0012 -0.5997
13654TIP3    H162453   1.636   6.318  11.596 -2.3670 -1.3660 -2.0220
13654TIP3    H262454   1.550   6.387  11.701  0.6316 -0.0121 -0.3383
13655TIP3   OH262455   1.810   5.854  15.801 -0.0489 -0.1366 -0.4893
13655TIP3    H162456   1.796   5.764  15.830 -0.8617  0.1845  0.1143
13655TIP3    H262457   1.729   5.879  15.758  0.1066  0.3773 -0.4944
13656TIP3   OH262458   3.158   0.957  13.748  0.4462 -0.2828 -0.1105
13656TIP3    H162459   3.217   1.005  13.806  0.0697  0.5037 -0.3595
13656TIP3    H262460   3.086   1.018  13.731  0.9344 -0.1496 -2.0407
13657TIP3   OH262461   4.543   2.788   0.179  0.0684  0.6624  0.0375
13657TIP3    H162462   4.559   2.766   0.271  1.3185 -0.4629 -0.4180
13657TIP3    H262463   4.631   2.797   0.141 -0.4211  0.5025 -1.1790
13658TIP3   OH262464   1.012   4.091  15.082  0.3031  0.2645  0.0880
13658TIP3    H162465   1.080   4.154  15.105 -0.8429  0.6404  2.8956
13658TIP3    H262466   1.059   4.011  15.060  1.6936  0.7029  1.3363
13659TIP3   OH262467   3.517   6.067   0.543  0.6540  0.7733  0.2615
13659TIP3    H162468   3.581   6.011   0.587  1.0807  1.2647  0.2765
13659TIP3    H262469   3.532   6.051   0.449 -0.3490 -0.3786  0.2710
13660TIP3   OH262470   0.142   2.004   3.756 -0.6762 -0.1226 -0.1126
13660TIP3    H162471   0.151   2.002   3.661  0.6466  0.9571 -0.0346
13660TIP3    H262472   0.152   1.912   3.782  1.2302 -0.1731 -0.8543
13661TIP3   OH262473   0.803   4.513   2.714  0.3817 -0.0811 -0.6609
13661TIP3    H162474   0.764   4.441   2.665  0.8592 -1.5252  0.9667
13661TIP3    H262475   0.896   4.509   2.692  0.4187 -0.0003 -0.5166
13662TIP3   OH262476   0.031   5.411  15.726  0.0418  0.3864  0.0042
13662TIP3    H162477  -0.049   5.449  15.690 -0.2401 -0.6357 -0.4891
13662TIP3    H262478   0.002   5.360  15.802  0.4957  1.6263  1.0584
13663TIP3   OH262479   0.590   2.547   3.990  0.0857 -0.3794 -0.3498
13663TIP3    H162480   0.639   2.605   3.933 -0.4286  0.1034 -0.3109
13663TIP3    H262481   0.652   2.522   4.058  0.9082 -1.4786 -1.4455
13664TIP3   OH262482   2.958   4.690   4.770  0.3504  0.1367  0.7052
13664TIP3    H162483   2.919   4.656   4.689 -0.9329 -0.4155  1.5283
13664TIP3    H262484   2.984   4.779   4.748  0.3197 -0.1149 -0.4106
13665TIP3   OH262485   1.368   6.292  16.684  0.0828 -0.4117  0.0024
13665TIP3    H162486   1.416   6.212  16.707 -1.7887 -1.2752  1.0930
13665TIP3    H262487   1.277   6.264  16.672 -0.5992  1.5254  0.2005
13666TIP3   OH262488   3.271   0.085   4.559 -0.1261  0.0105  0.4490
13666TIP3    H162489   3.272  -0.006   4.530  2.1942  0.2610 -0.4563
13666TIP3    H262490   3.190   0.120   4.523 -1.9809 -2.0636  2.2717
13667TIP3   OH262491   5.340   4.880  12.345 -0.3391 -0.3419  0.2075
13667TIP3    H162492   5.413   4.821  12.327 -0.8645 -0.4035 -2.0521
13667TIP3    H262493   5.264   4.822  12.353 -0.8939 -0.0864 -2.2170
13668TIP3   OH262494   3.325   0.390  12.728  0.6887 -0.4446  0.4372
13668TIP3    H162495   3.266   0.462  12.750  0.2564 -0.4901 -0.5295
13668TIP3    H262496   3.351   0.353  12.813 -1.2369 -0.8775  0.8830
13669TIP3   OH262497   4.517   5.091   4.046 -0.1692 -0.0535 -0.5008
13669TIP3    H162498   4.552   5.133   4.125 -1.4160  1.0798 -0.5035
13669TIP3    H262499   4.437   5.048   4.075  0.4485 -1.4205 -0.7584
13670TIP3   OH262500   3.704   1.434   4.356 -0.2093  0.2965  0.0145
13670TIP3    H162501   3.736   1.412   4.268  0.2182  0.4838  0.1203
13670TIP3    H262502   3.769   1.496   4.390  1.4450 -2.2039  1.7316
13671TIP3   OH262503   1.440   6.243  12.492 -0.6657  0.4270 -0.5566
13671TIP3    H162504   1.503   6.305  12.528 -0.3781 -0.7312  1.0835
13671TIP3    H262505   1.357   6.265  12.534 -0.3029 -1.0096  1.0369
13672TIP3   OH262506   4.451   4.712   6.113 -0.2610 -0.1428 -0.1420
13672TIP3    H162507   4.544   4.692   6.104 -0.0201  0.6372  0.5252
13672TIP3    H262508   4.419   4.647   6.176 -0.2875 -0.7188 -0.7344
13673TIP3   OH262509   5.964   1.681  13.485  0.4592  0.1710  0.7476
13673TIP3    H162510   5.942   1.674  13.578  2.3010  0.9497  1.3004
13673TIP3    H262511   5.918   1.759  13.455  0.9303  0.7118  1.3903
13674TIP3   OH262512   4.752   4.189   1.620 -0.2920 -0.1195 -0.7588
13674TIP3    H162513   4.839   4.156   1.600  0.0156  0.3696 -0.2580
13674TIP3    H262514   4.703   4.179   1.539  0.3102 -0.1266 -1.1264
13675TIP3   OH262515   4.134   2.586  15.034 -0.0802 -0.3063 -0.1033
13675TIP3    H162516   4.079   2.631  14.970 -0.6660 -0.7524  0.0765
13675TIP3    H262517   4.075   2.568  15.108  0.0661 -1.5550 -0.2601
13676TIP3   OH262518   6.164   1.001  15.707  0.3963 -0.0817  0.0099
13676TIP3    H162519   6.205   1.009  15.793  0.8983  0.1754 -0.2514
13676TIP3    H262520   6.134   0.910  15.703  2.0516 -0.6303 -0.2984
13677TIP3   OH262521   4.505   1.158  12.031  0.5313  0.4533  0.1733
13677TIP3    H162522   4.568   1.135  11.963  0.5359 -0.9380  0.6199
13677TIP3    H262523   4.421   1.164  11.985  0.5328 -0.4970  0.0207
13678TIP3   OH262524   3.613   1.566   0.502  0.5597  0.2595 -0.5332
13678TIP3    H162525   3.677   1.498   0.520  1.4637  0.9199 -1.1308
13678TIP3    H262526   3.634   1.636   0.563 -1.8252 -0.8200  1.7127
13679TIP3   OH262527   2.142   6.550   6.405 -0.3311  0.3465  0.2051
13679TIP3    H162528   2.146   6.645   6.403  1.6518  0.2943 -0.9252
13679TIP3    H262529   2.226   6.523   6.443 -0.2872 -0.9396 -0.7187
13680TIP3   OH262530   5.647   1.142  13.610  0.0733  0.0540  0.2020
13680TIP3    H162531   5.574   1.204  13.608  0.1826  0.1806  0.1302
13680TIP3    H262532   5.613   1.064  13.567  1.1113  1.3739 -3.3739
13681TIP3   OH262533   6.418   2.640  13.143  0.3464  0.4424 -0.0682
13681TIP3    H162534   6.398   2.648  13.236  0.2032  0.0566 -0.0635
13681TIP3    H262535   6.394   2.550  13.121  3.3439 -0.5419  0.2456
13682TIP3   OH262536   2.853   0.137  14.342  0.0622 -0.2032  0.1044
13682TIP3    H162537   2.921   0.201  14.364  0.1784  0.3230 -1.6715
13682TIP3    H262538   2.772   0.188  14.342 -0.0554 -0.3893  0.1775
13683TIP3   OH262539   4.757   3.238   0.105 -0.1243  0.3437  0.4600
13683TIP3    H162540   4.699   3.201   0.039  0.1774  0.1898  0.2783
13683TIP3    H262541   4.817   3.294   0.055  0.9505 -0.8047  0.4303
13684TIP3   OH262542   5.313   3.538   6.366 -0.1154  0.2430  0.1112
13684TIP3    H162543   5.328   3.452   6.405 -0.2921  0.5825  0.9596
13684TIP3    H262544   5.379   3.594   6.407  0.7318  0.2943 -1.2589
13685TIP3   OH262545   3.405   6.127   3.500 -0.5912 -0.3985 -0.8541
13685TIP3    H162546   3.417   6.222   3.491 -0.9377 -0.2424  0.1661
13685TIP3    H262547   3.336   6.118   3.566  1.6179 -1.3633  1.5191
13686TIP3   OH262548   0.402   2.011  13.502 -0.3207 -0.2090 -0.0694
13686TIP3    H162549   0.418   2.071  13.575 -0.8203 -2.0994  1.6890
13686TIP3    H262550   0.448   2.050  13.428  0.0657  1.8838  1.1902
13687TIP3   OH262551   5.327   6.033   2.346 -0.0870  0.4119 -1.0120
13687TIP3    H162552   5.304   6.121   2.373 -0.2552  0.9366 -2.7197
13687TIP3    H262553   5.410   6.014   2.391 -1.1297  0.5545  1.0614
13688TIP3   OH262554   2.713   3.096   5.199 -0.7145  0.0800  0.2116
13688TIP3    H162555   2.623   3.118   5.222 -1.0533 -2.4053  1.7118
13688TIP3    H262556   2.762   3.110   5.281  0.0913  0.5093 -0.3307
13689TIP3   OH262557   5.155   0.878  16.043 -0.6679 -0.6968 -0.4068
13689TIP3    H162558   5.087   0.945  16.043 -0.8587 -0.8714  0.7035
13689TIP3    H262559   5.117   0.804  16.092  0.4168 -0.6687  0.5320
13690TIP3   OH262560   1.916   1.851  16.336  0.2350 -0.0996  0.2546
13690TIP3    H162561   1.907   1.781  16.400  0.2890  0.1218  0.5011
13690TIP3    H262562   1.876   1.815  16.256 -0.1442 -0.2412  0.5065
13691TIP3   OH262563   5.477   2.966  13.831 -0.1042  0.1491  0.2524
13691TIP3    H162564   5.448   3.044  13.784 -1.2614 -0.5095 -0.1761
13691TIP3    H262565   5.553   2.935  13.782  0.4176  1.0440  0.4777
13692TIP3   OH262566   6.711   4.042   5.747 -0.3243 -0.2697 -0.0257
13692TIP3    H162567   6.754   4.044   5.662 -0.5612 -2.7643 -0.2801
13692TIP3    H262568   6.760   3.977   5.797 -0.1772  1.1659  1.7964
13693TIP3   OH262569   0.619   0.148  12.500 -0.4182 -0.4196 -0.5636
13693TIP3    H162570   0.656   0.233  12.477  1.4264 -0.9462  0.2994
13693TIP3    H262571   0.524   0.161  12.496 -0.2041  0.8522 -3.3690
13694TIP3   OH262572   6.187   6.768  15.192 -0.2037 -0.1842  0.5584
13694TIP3    H162573   6.223   6.691  15.149  0.5120  0.4579 -0.0184
13694TIP3    H262574   6.233   6.842  15.152 -0.1508  0.4845  1.8102
13695TIP3   OH262575   1.890   2.500  10.510 -0.1654 -0.1328  0.3869
13695TIP3    H162576   1.832   2.553  10.565 -1.0181 -0.5949 -0.0391
13695TIP3    H262577   1.830   2.452  10.452  0.6809  2.1892 -2.7086
13696TIP3   OH262578   1.266   6.710   4.322  0.1497  0.6012  0.1628
13696TIP3    H162579   1.234   6.629   4.283 -1.3854  0.7071  1.0953
13696TIP3    H262580   1.359   6.695   4.338  0.3239 -0.2182 -1.4933
13697TIP3   OH262581   3.072   6.796  14.632 -0.0050 -0.6383 -0.1236
13697TIP3    H162582   3.148   6.773  14.685  0.1435  2.4903  1.2811
13697TIP3    H262583   3.002   6.741  14.664  0.6515 -0.4457  1.7628
13698TIP3   OH262584   2.519   1.049  14.875 -0.3574 -0.2796  0.3082
13698TIP3    H162585   2.437   1.009  14.846  0.4544 -0.6435 -1.6318
13698TIP3    H262586   2.588   0.989  14.845  0.7098  0.9566  0.1631
13699TIP3   OH262587   4.470   5.091  15.523 -0.3927 -0.9101  0.6234
13699TIP3    H162588   4.392   5.115  15.573  0.8068 -0.3650  2.3128
13699TIP3    H262589   4.436   5.064  15.437 -2.3420  0.2346  0.9776
13700TIP3   OH262590   6.081   3.462   0.800  0.2699 -0.1383 -0.0634
13700TIP3    H162591   6.070   3.370   0.776  1.5562  0.3905 -3.1976
13700TIP3    H262592   6.003   3.505   0.764  0.3643  0.1821  0.1138
13701TIP3   OH262593   6.672   0.021   4.659  0.3404 -0.0518  0.0501
13701TIP3    H162594   6.755   0.021   4.610  1.3747 -2.3653  1.6161
13701TIP3    H262595   6.679   0.098   4.716  1.8885 -0.7169  0.8283
13702TIP3   OH262596   2.850   1.902   0.127 -0.2645  0.3431 -0.1263
13702TIP3    H162597   2.885   1.940   0.208 -0.8964  1.6160 -0.4352
13702TIP3    H262598   2.766   1.863   0.153  0.2163 -0.5720  0.1146
13703TIP3   OH262599   5.122   4.468   4.885 -0.1564  0.4012  0.0401
13703TIP3    H162600   5.167   4.487   4.967  1.0797 -1.5778 -0.0965
13703TIP3    H262601   5.160   4.528   4.822  1.9246 -0.7866  0.0767
13704TIP3   OH262602   2.565   5.575  14.453 -0.5226  0.7179 -0.2258
13704TIP3    H162603   2.535   5.505  14.395  0.4347 -1.1498  1.4054
13704TIP3    H262604   2.654   5.593  14.426 -0.0131 -0.2806  0.7080
13705TIP3   OH262605   4.369   6.610  13.905 -0.1402  0.1512 -0.0100
13705TIP3    H162606   4.364   6.683  13.844  1.6562 -0.5486 -1.0701
13705TIP3    H262607   4.463   6.597  13.919 -0.4582 -1.1915  1.1040
13706TIP3   OH262608   0.947   4.258  16.562  0.0508  0.4456  0.6200
13706TIP3    H162609   1.026   4.226  16.605  0.7930  0.5991 -0.5903
13706TIP3    H262610   0.875   4.222  16.615  0.7887 -3.0785 -0.4792
13707TIP3   OH262611   2.610   0.721   3.973  0.3735 -0.5849 -0.4613
13707TIP3    H162612   2.548   0.694   3.906 -1.1686 -1.9307  1.3981
13707TIP3    H262613   2.610   0.649   4.037  1.2997  0.8824  1.2968
13708TIP3   OH262614   6.168   1.027   3.397 -0.2560  0.1102 -0.0467
13708TIP3    H162615   6.073   1.020   3.401 -0.1772 -2.5135 -0.8998
13708TIP3    H262616   6.184   1.112   3.357 -2.2444  0.5508 -0.0010
13709TIP3   OH262617   1.220   5.617   4.423  0.3154  0.6095 -0.6172
13709TIP3    H162618   1.182   5.579   4.502 -0.3588  3.1040  0.3722
13709TIP3    H262619   1.147   5.622   4.361  0.7792 -1.0919 -1.3424
13710TIP3   OH262620   5.804   1.616   4.205 -0.2124 -0.1702  0.0085
13710TIP3    H162621   5.887   1.610   4.157  0.5731 -0.0904  1.3082
13710TIP3    H262622   5.813   1.696   4.257  0.1747 -1.6916  2.4190
13711TIP3   OH262623   3.089   4.160   4.186 -0.5187  0.5962  0.2231
13711TIP3    H162624   3.107   4.110   4.266 -1.6241  0.7073  0.5596
13711TIP3    H262625   2.994   4.156   4.176 -0.6783  2.7465  0.3470
13712TIP3   OH262626   4.931   4.337  14.728  0.1173 -0.5299  0.0079
13712TIP3    H162627   4.861   4.315  14.790  0.0927  1.4531  0.7623
13712TIP3    H262628   5.004   4.364  14.783 -0.4882  3.0767 -0.6583
13713TIP3   OH262629   3.172   3.802   2.120 -0.0400 -0.3730  0.3578
13713TIP3    H162630   3.191   3.728   2.062  2.0175 -3.0683  4.0326
13713TIP3    H262631   3.106   3.853   2.073 -0.1706 -3.4531 -3.2768
13714TIP3   OH262632   6.303   2.485   0.409 -0.6686 -0.2023  0.0606
13714TIP3    H162633   6.217   2.451   0.435  0.5974 -1.7638  2.6504
13714TIP3    H262634   6.324   2.437   0.329 -1.6342 -0.8381  0.1652
13715TIP3   OH262635   2.837   4.718  16.645  0.3003  0.2189  0.0090
13715TIP3    H162636   2.868   4.797  16.600 -0.3173  1.5041  1.6972
13715TIP3    H262637   2.763   4.749  16.698 -0.3091 -1.6289  0.2929
13716TIP3   OH262638   2.144   1.704   3.957  0.1089 -0.1735 -0.3880
13716TIP3    H162639   2.080   1.693   3.886  1.0774  0.5539 -1.3997
13716TIP3    H262640   2.163   1.798   3.958 -0.6492  0.0062  1.5442
13717TIP3   OH262641   1.515   0.492   5.101 -0.4033  0.3634 -0.1105
13717TIP3    H162642   1.535   0.513   5.010 -2.6571  2.7291 -0.1662
13717TIP3    H262643   1.422   0.472   5.101 -0.3207 -0.1857  1.6028
13718TIP3   OH262644   6.031   4.560   5.348  0.8421  0.1305  0.3454
13718TIP3    H162645   6.008   4.648   5.377  0.0799 -0.7008  2.4424
13718TIP3    H262646   5.971   4.543   5.275 -1.0694  0.3156  1.7879
13719TIP3   OH262647   1.559   3.036  16.032  0.0281  0.3583  0.3128
13719TIP3    H162648   1.633   3.047  16.091  0.4509  1.1657 -0.3456
13719TIP3    H262649   1.523   3.124  16.022 -1.2331 -0.0642  0.8720
13720TIP3   OH262650   5.268   4.478  15.749  0.6217 -0.4107 -0.8288
13720TIP3    H162651   5.224   4.495  15.666  1.4138 -0.1382 -1.2068
13720TIP3    H262652   5.354   4.443  15.723  1.6259  1.4510 -0.1845
13721TIP3   OH262653   2.097   5.602   4.652  0.4768 -0.0483  0.1294
13721TIP3    H162654   2.147   5.529   4.687 -0.5766 -0.7449  0.2203
13721TIP3    H262655   2.009   5.591   4.689  0.2980  1.2618  0.1427
13722TIP3   OH262656   2.467   1.621   5.187  0.1711  0.3174  0.6910
13722TIP3    H162657   2.551   1.593   5.224  0.1779 -0.1801  0.3196
13722TIP3    H262658   2.491   1.672   5.109  0.1528 -2.3651 -1.2264
13723TIP3   OH262659   6.301   5.339  15.715 -0.3823  0.1467 -0.1606
13723TIP3    H162660   6.308   5.244  15.730 -0.0974  0.3872  1.4174
13723TIP3    H262661   6.213   5.362  15.746 -1.8562 -0.0833 -3.7324
13724TIP3   OH262662   5.245   4.347   1.941  0.7715  0.2453 -0.0759
13724TIP3    H162663   5.300   4.270   1.924 -0.0252 -0.1791 -0.7791
13724TIP3    H262664   5.253   4.361   2.035  2.0884  0.1984 -0.1575
13725TIP3   OH262665   3.820   6.502   1.091 -0.0243 -0.5049  0.2196
13725TIP3    H162666   3.730   6.515   1.119 -0.5762 -0.7397 -1.3718
13725TIP3    H262667   3.832   6.407   1.088  0.0289 -0.4838 -0.3213
13726TIP3   OH262668   6.140   5.000  14.191  0.2197  0.2937 -0.2851
13726TIP3    H162669   6.188   4.925  14.226 -1.2942 -0.7706 -0.4045
13726TIP3    H262670   6.188   5.076  14.223  0.8191 -0.6934  1.2938
13727TIP3   OH262671   1.961   6.570  12.884  0.0727 -0.5856 -0.3031
13727TIP3    H162672   1.984   6.661  12.865 -3.0324  0.1827 -1.0376
13727TIP3    H262673   1.962   6.564  12.980 -2.5727  1.2071 -0.0600
13728TIP3   OH262674   1.218   4.666  15.726  0.3118 -0.3752 -0.7820
13728TIP3    H162675   1.289   4.604  15.714 -0.3682 -1.5135  0.8501
13728TIP3    H262676   1.166   4.659  15.646  0.8069 -1.1618 -1.0400
13729TIP3   OH262677   4.860   0.624  15.670 -0.1079 -0.3984 -0.7769
13729TIP3    H162678   4.948   0.643  15.637  0.0402 -1.6642 -1.1572
13729TIP3    H262679   4.844   0.691  15.736  0.9334  0.1585 -1.0775
13730TIP3   OH262680   2.117   3.139  16.108  0.2370 -0.3200 -0.1508
13730TIP3    H162681   2.096   3.223  16.067 -0.6094 -1.1977 -1.5942
13730TIP3    H262682   2.188   3.160  16.169  2.4785  0.8651 -2.9551
13731TIP3   OH262683   1.929   5.369   6.515 -0.0000 -0.3629  0.2568
13731TIP3    H162684   1.936   5.459   6.484 -0.4609 -0.5127 -0.2823
13731TIP3    H262685   1.835   5.354   6.523  0.0877 -0.1520  2.2497
13732TIP3   OH262686   4.626   4.887   4.592  0.2936  0.0427 -0.4170
13732TIP3    H162687   4.678   4.960   4.627  0.1575  0.1243 -0.3830
13732TIP3    H262688   4.690   4.819   4.572  0.6444  0.8469 -2.1811
13733TIP3   OH262689   6.369   5.842   4.971 -0.2764  0.0056 -0.1025
13733TIP3    H162690   6.308   5.821   4.900  0.7917 -2.0616 -0.4839
13733TIP3    H262691   6.456   5.825   4.934  0.3262 -0.8861  1.6007
13734TIP3   OH262692   3.316   4.263   6.203 -0.0493 -0.2981 -0.2758
13734TIP3    H162693   3.254   4.319   6.250 -1.5655 -0.5827 -1.8050
13734TIP3    H262694   3.281   4.175   6.213 -1.0798 -0.2612 -2.7067
13735TIP3   OH262695   0.928   0.666  15.984 -0.2689 -0.0418  0.2892
13735TIP3    H162696   0.953   0.574  15.988 -0.7329 -0.3057 -1.8059
13735TIP3    H262697   0.883   0.682  16.066 -0.3225 -1.7275  0.6242
13736TIP3   OH262698   4.993   6.534   5.580 -0.7446  0.0487  0.6625
13736TIP3    H162699   5.007   6.589   5.503  0.0627  1.5668  1.8364
13736TIP3    H262700   5.082   6.513   5.611 -1.0205 -2.3002  0.0251
13737TIP3   OH262701   2.545   2.666   6.115  0.7464  0.3934  0.3020
13737TIP3    H162702   2.566   2.712   6.034 -0.5317 -1.9177 -1.4729
13737TIP3    H262703   2.620   2.684   6.173  0.6922  3.8935 -0.4979
13738TIP3   OH262704   2.308   6.224  14.748  0.1969 -0.2960 -0.0291
13738TIP3    H162705   2.298   6.290  14.816  1.5891 -1.8248  1.7665
13738TIP3    H262706   2.340   6.273  14.672 -1.5070  1.4745  0.3202
13739TIP3   OH262707   5.721   2.799   3.905  0.2616 -0.3399  0.0910
13739TIP3    H162708   5.667   2.730   3.866  1.2794 -0.7368 -0.6724
13739TIP3    H262709   5.717   2.783   3.999  1.3148 -2.1101 -0.1187
13740TIP3   OH262710   3.647   6.573  11.144  0.0201 -0.5617 -0.3437
13740TIP3    H162711   3.703   6.540  11.074 -1.2775  0.3319 -1.8625
13740TIP3    H262712   3.566   6.523  11.135 -0.6325  0.4662 -0.3509
13741TIP3   OH262713   0.753   5.369  16.765  0.3447 -0.1694  0.0321
13741TIP3    H162714   0.825   5.307  16.756 -0.3724 -1.0189 -0.0190
13741TIP3    H262715   0.788   5.438  16.822  1.0052 -0.8593  0.4830
13742TIP3   OH262716   4.267   4.738   5.628  0.0114 -0.3341 -0.1276
13742TIP3    H162717   4.299   4.691   5.705 -0.2691  0.5718  0.5492
13742TIP3    H262718   4.340   4.794   5.601 -0.1536 -0.0926 -0.0717
13743TIP3   OH262719   5.243   0.438  11.973  0.3895 -0.1928 -0.3948
13743TIP3    H162720   5.197   0.355  11.983 -0.2502  0.0691 -1.0292
13743TIP3    H262721   5.327   0.425  12.017  0.3044 -1.1763 -0.5010
13744TIP3   OH262722   6.537   2.316   0.538 -0.3095 -0.0393 -0.3924
13744TIP3    H162723   6.485   2.388   0.503  0.5334  0.3853 -0.7989
13744TIP3    H262724   6.555   2.260   0.463 -3.3495 -2.2759  0.3627
13745TIP3   OH262725   0.278   3.061   3.595 -0.0426 -0.0065 -0.1906
13745TIP3    H162726   0.357   3.058   3.649 -0.6521 -0.3472  0.7166
13745TIP3    H262727   0.290   2.991   3.531 -0.3596 -1.2600  1.0579
13746TIP3   OH262728   2.647   3.200  11.297 -0.0223 -0.5286  0.3169
13746TIP3    H162729   2.705   3.135  11.337 -2.1588 -3.3927 -0.8255
13746TIP3    H262730   2.701   3.243  11.230  1.5762 -0.7905  1.3770
13747TIP3   OH262731   6.600   1.503   5.582 -0.3208 -0.2708  0.4604
13747TIP3    H162732   6.579   1.416   5.617 -0.1492 -0.3522  0.3605
13747TIP3    H262733   6.570   1.564   5.650  0.1355 -0.4311  0.8096
13748TIP3   OH262734   4.142   1.525  15.204 -0.5104 -0.0689 -0.0700
13748TIP3    H162735   4.099   1.597  15.250 -2.3617 -0.8161 -0.5408
13748TIP3    H262736   4.216   1.501  15.261  0.2641  2.2651  0.0090
13749TIP3   OH262737   4.414   4.518   1.309  0.1289  0.6571 -0.5902
13749TIP3    H162738   4.493   4.463   1.312  0.8453  1.5474 -1.8740
13749TIP3    H262739   4.390   4.519   1.216 -1.6178  0.1412 -0.1772
13750TIP3   OH262740   1.094   6.847   6.194  0.1322 -0.6293  0.2520
13750TIP3    H162741   1.033   6.818   6.262 -1.6696  1.3486 -0.4375
13750TIP3    H262742   1.146   6.915   6.236 -1.7651  1.4229 -0.5745
13751TIP3   OH262743   1.957   0.165   6.336  0.0910  0.3864  0.3692
13751TIP3    H162744   1.900   0.188   6.410 -0.3633 -0.5967  0.3412
13751TIP3    H262745   1.896   0.147   6.264  0.5514  2.3801 -0.5893
13752TIP3   OH262746   3.896   5.087   4.080 -0.3612  0.0633  0.4111
13752TIP3    H162747   3.879   5.072   4.173  1.3924 -0.8599  0.6211
13752TIP3    H262748   3.813   5.066   4.037 -0.8625 -0.6325  1.6646
13753TIP3   OH262749   2.300   2.437  11.575 -0.0271  0.2026 -0.5479
13753TIP3    H162750   2.354   2.371  11.533 -0.2328  0.6027 -1.4524
13753TIP3    H262751   2.226   2.449  11.516 -0.7521  0.1779  0.3245
13754TIP3   OH262752   0.957   4.310   1.903 -0.0891  0.5249  0.6702
13754TIP3    H162753   1.049   4.333   1.911  0.4927 -0.9847 -0.9784
13754TIP3    H262754   0.951   4.264   1.819 -1.4437 -3.3584  2.6244
13755TIP3   OH262755   4.911   1.438  13.197  0.0628  0.4063 -0.1260
13755TIP3    H162756   4.997   1.457  13.159  0.9566 -2.0303  0.4975
13755TIP3    H262757   4.851   1.498  13.153  2.0625  2.1450 -0.6003
13756TIP3   OH262758   3.758   5.206  13.819  0.3066 -0.1331  0.4180
13756TIP3    H162759   3.664   5.209  13.803  0.2580  2.5232  0.7763
13756TIP3    H262760   3.768   5.225  13.912  1.1844  0.1119  0.2864
13757TIP3   OH262761   3.176   1.271   2.722  0.2902  0.0664 -0.5282
13757TIP3    H162762   3.137   1.343   2.672 -0.7137 -0.8746 -1.1342
13757TIP3    H262763   3.113   1.252   2.791  1.4806  1.0742  0.8902
13758TIP3   OH262764   1.693   5.263   0.847 -0.7454 -0.0924  0.6534
13758TIP3    H162765   1.744   5.237   0.771 -0.6896  1.1293  0.2489
13758TIP3    H262766   1.756   5.266   0.919 -0.6032 -0.3130  0.5367
13759TIP3   OH262767   3.764   4.482   4.730 -0.0665 -0.7352 -0.2075
13759TIP3    H162768   3.728   4.418   4.668 -0.4625 -1.2045  0.4965
13759TIP3    H262769   3.779   4.560   4.677  0.3615 -1.3757 -1.0722
13760TIP3   OH262770   2.346   2.039   6.321 -0.1764  0.0094  0.1309
13760TIP3    H162771   2.384   2.127   6.327  0.2567 -0.2230  0.9476
13760TIP3    H262772   2.422   1.981   6.310 -0.3141 -0.4074  1.2233
13761TIP3   OH262773   0.180   3.991  14.476  0.7057  0.2646  0.6827
13761TIP3    H162774   0.276   3.998  14.479  0.8254 -0.7767 -0.1559
13761TIP3    H262775   0.161   3.906  14.514  0.0352  0.7753  1.5366
13762TIP3   OH262776   4.118   4.012  13.016  0.2066  0.6217  0.5416
13762TIP3    H162777   4.212   4.001  13.003 -0.0014  0.5741 -1.2813
13762TIP3    H262778   4.079   3.939  12.968 -0.7865  1.5169 -0.0701
13763TIP3   OH262779   0.986   4.252  16.269 -0.0790 -0.2169  0.1739
13763TIP3    H162780   1.006   4.250  16.363  2.1084 -1.9066 -0.2526
13763TIP3    H262781   1.012   4.340  16.241 -1.5190  0.6061  1.2189
13764TIP3   OH262782   4.000   6.004  12.066 -0.1107  0.0188  0.1443
13764TIP3    H162783   4.033   5.965  11.985  2.5151 -0.3603  1.2914
13764TIP3    H262784   3.907   6.021  12.049  0.4110  0.1929 -2.9937
13765TIP3   OH262785   3.720   0.025  16.585  0.6046  0.2403  0.3723
13765TIP3    H162786   3.665   0.102  16.576  0.0819 -0.1655  0.0932
13765TIP3    H262787   3.806   0.053  16.554  0.0535  0.2815 -1.1678
13766TIP3   OH262788   4.938   5.638   5.414 -0.7930 -0.4986  0.6099
13766TIP3    H162789   4.884   5.713   5.436 -0.1106  0.0583  0.4394
13766TIP3    H262790   4.878   5.564   5.413 -1.7932  0.2944 -0.8931
13767TIP3   OH262791   0.154   6.203   5.673  0.1705 -0.1250 -0.8478
13767TIP3    H162792   0.211   6.161   5.609 -0.8462 -0.9612 -1.2250
13767TIP3    H262793   0.078   6.146   5.679 -0.6040  0.9312 -0.2909
13768TIP3   OH262794   5.870   5.087  16.615  0.2148  0.3744  0.1589
13768TIP3    H162795   5.858   5.181  16.629 -1.3907  0.4051 -1.1233
13768TIP3    H262796   5.841   5.046  16.697  0.8671  0.9649  0.6987
13769TIP3   OH262797   3.900   2.237  15.524  0.6097  0.0990 -0.4054
13769TIP3    H162798   3.954   2.258  15.447 -0.6757  0.7300 -1.1641
13769TIP3    H262799   3.878   2.323  15.561  0.3417 -0.1607  0.0360
13770TIP3   OH262800   3.732   3.314  11.664 -0.5993 -0.2564  0.4174
13770TIP3    H162801   3.641   3.334  11.641  0.3780  1.0621 -2.9555
13770TIP3    H262802   3.744   3.350  11.751 -3.6644 -1.8707  1.6517
13771TIP3   OH262803   5.814   4.128  11.955  0.0948 -0.1094 -0.7776
13771TIP3    H162804   5.778   4.168  12.034 -0.3890 -0.2759 -0.9081
13771TIP3    H262805   5.894   4.176  11.937  0.3549 -0.2536 -0.0225
13772TIP3   OH262806   5.907   1.744  16.848  0.0247  0.1013 -0.4935
13772TIP3    H162807   5.928   1.825  16.802 -0.6873  0.2576 -0.5527
13772TIP3    H262808   5.896   1.770  16.939  3.5291 -0.5243  0.2497
13773TIP3   OH262809   1.310   6.138   2.421 -0.0815 -0.2980 -0.3745
13773TIP3    H162810   1.279   6.066   2.475 -0.8159  0.4096  0.1672
13773TIP3    H262811   1.405   6.136   2.430 -0.0422 -1.5828 -0.8730
13774TIP3   OH262812   1.133   3.584   1.690 -0.0856  0.4236 -0.2911
13774TIP3    H162813   1.191   3.512   1.716 -0.6210 -0.1307 -0.6287
13774TIP3    H262814   1.046   3.555   1.716 -0.3974  0.6325 -1.0921
13775TIP3   OH262815   2.387   0.705   5.303  0.0341  0.9559  0.1915
13775TIP3    H162816   2.429   0.631   5.346 -0.4562  0.6574  0.1627
13775TIP3    H262817   2.447   0.729   5.232  0.7203  1.2929  0.8853
13776TIP3   OH262818   2.361   1.490   5.810 -0.0663  0.2114 -0.1887
13776TIP3    H162819   2.315   1.411   5.838 -0.0999  0.3016  0.0088
13776TIP3    H262820   2.449   1.460   5.789  0.5826  0.4700  1.9531
13777TIP3   OH262821   6.837   4.838  15.125 -0.2992 -0.3613  0.9797
13777TIP3    H162822   6.854   4.814  15.216  1.8911  2.4645  1.4635
13777TIP3    H262823   6.816   4.932  15.129 -2.3273 -0.6487 -1.2477
13778TIP3   OH262824   4.817   4.430  13.356 -0.1077  0.2887  0.1361
13778TIP3    H162825   4.892   4.392  13.400 -0.1375 -0.2067 -0.2295
13778TIP3    H262826   4.854   4.501  13.302  0.0609  0.2212  0.1633
13779TIP3   OH262827   2.955   6.170  16.070  0.3097  0.0543  0.2250
13779TIP3    H162828   3.032   6.154  16.016 -0.6573  0.4024 -1.3349
13779TIP3    H262829   2.917   6.084  16.086 -0.9726  0.1018 -2.1484
13780TIP3   OH262830   2.227   2.012   0.186 -0.4988 -0.1526  0.6305
13780TIP3    H162831   2.283   2.066   0.130 -2.4755  0.1423 -1.2114
13780TIP3    H262832   2.288   1.965   0.243  1.4585  1.7525  0.2458
13781TIP3   OH262833   3.049   0.093  16.795 -0.3533 -0.0832  0.0765
13781TIP3    H162834   3.057  -0.000  16.776  1.1705  0.2482 -1.1607
13781TIP3    H262835   3.007   0.097  16.881 -0.6506 -1.8858  0.0492
13782TIP3   OH262836   5.125   4.021  12.630 -0.1261 -0.1959  0.1300
13782TIP3    H162837   5.129   4.106  12.585  0.7059 -0.2286  0.1301
13782TIP3    H262838   5.068   3.967  12.575 -0.1227  0.1541 -0.2204
13783TIP3   OH262839   4.693   3.451   4.213  0.3125 -0.1521 -0.3101
13783TIP3    H162840   4.660   3.515   4.150  0.6836  1.7591  1.3244
13783TIP3    H262841   4.763   3.405   4.166  0.7841  1.4190 -1.2113
13784TIP3   OH262842   5.365   6.237  11.032 -0.0244  0.3501  0.7123
13784TIP3    H162843   5.360   6.231  10.937 -1.5472  0.5799  0.7556
13784TIP3    H262844   5.453   6.271  11.049  0.5089 -0.3339 -0.5668
13785TIP3   OH262845   6.285   5.749   5.791 -0.1381  0.4790  0.6342
13785TIP3    H162846   6.330   5.737   5.874 -1.0448  0.0083  1.0751
13785TIP3    H262847   6.355   5.754   5.726  0.5354 -0.8240  1.2131
13786TIP3   OH262848   6.240   1.322  14.485  0.2371  0.2022  0.3662
13786TIP3    H162849   6.324   1.356  14.516 -0.8389  1.4682  2.0817
13786TIP3    H262850   6.192   1.399  14.454 -1.0164 -0.1845  1.2594
13787TIP3   OH262851   3.767   3.875  13.564 -0.0603  0.1539  0.0443
13787TIP3    H162852   3.786   3.861  13.472 -2.1922  1.2829 -0.6286
13787TIP3    H262853   3.747   3.968  13.571  0.4878  0.1908  1.7531
13788TIP3   OH262854   1.794   4.602   1.913 -0.6850 -0.2778 -0.1584
13788TIP3    H162855   1.862   4.541   1.885 -0.4595  0.4966 -1.3382
13788TIP3    H262856   1.826   4.637   1.996  0.4839  0.2785 -0.8315
13789TIP3   OH262857   1.645   2.685   4.737 -0.8576 -0.3509 -0.2082
13789TIP3    H162858   1.684   2.729   4.813  0.2052 -1.3026 -0.1703
13789TIP3    H262859   1.581   2.625   4.775 -0.4841 -0.6681 -0.0739
13790TIP3   OH262860   3.795   5.773  11.834 -0.0568  0.0518 -0.1916
13790TIP3    H162861   3.868   5.803  11.779 -0.1466  0.3676 -0.1431
13790TIP3    H262862   3.785   5.841  11.900  1.6215 -1.4740  1.7308
13791TIP3   OH262863   0.223   0.561   0.419  0.2201  0.0196 -0.6246
13791TIP3    H162864   0.163   0.492   0.391  0.8767 -0.5903 -0.5690
13791TIP3    H262865   0.170   0.641   0.419 -0.1950 -0.2246 -2.1180
13792TIP3   OH262866   2.445   0.934   0.217  0.3219  0.4403  0.3933
13792TIP3    H162867   2.429   0.840   0.227 -1.2721  0.8300  2.1382
13792TIP3    H262868   2.424   0.952   0.126  0.2813 -0.8135  0.1265
13793TIP3   OH262869   4.764   1.357  16.416  0.3818 -0.1449 -0.3847
13793TIP3    H162870   4.724   1.360  16.329  1.1257  0.9349 -0.7198
13793TIP3    H262871   4.792   1.266  16.427  1.1477 -0.1032 -1.7042
13794TIP3   OH262872   5.560   0.826  11.354  0.1586  0.2090 -0.0181
13794TIP3    H162873   5.548   0.903  11.298 -0.0046  0.8451  0.8754
13794TIP3    H262874   5.613   0.767  11.301  2.8384  2.1339  0.3053
13795TIP3   OH262875   1.850   0.279  10.535 -0.9739 -0.7223  0.1251
13795TIP3    H162876   1.944   0.284  10.552 -1.3863  1.0043  2.3414
13795TIP3    H262877   1.826   0.190  10.560 -0.4866 -0.0635  3.4875
13796TIP3   OH262878   0.981   5.594   2.939  0.6126 -0.7252  0.0323
13796TIP3    H162879   1.005   5.659   3.006 -1.0170  0.1582 -0.1882
13796TIP3    H262880   0.966   5.514   2.989  0.0651 -0.2456  0.6710
13797TIP3   OH262881   0.833   6.427  15.869  0.0568 -0.0997  0.2500
13797TIP3    H162882   0.901   6.481  15.830 -0.2693 -0.3200 -0.6381
13797TIP3    H262883   0.879   6.374  15.935  1.1330 -1.6026 -1.5990
13798TIP3   OH262884   0.552   2.219   5.565  0.1153 -0.2421  0.0546
13798TIP3    H162885   0.557   2.228   5.660 -0.2191 -1.6847  0.2333
13798TIP3    H262886   0.640   2.193   5.538  0.6204  1.6456 -0.2449
13799TIP3   OH262887   2.920   3.563  10.955  0.3178  0.2902 -0.4423
13799TIP3    H162888   2.915   3.655  10.982  0.3325  0.6818 -1.7091
13799TIP3    H262889   2.923   3.566  10.859  1.1238 -1.0015 -0.4842
13800TIP3   OH262890   5.617   1.426   2.337 -0.3790  0.5932  0.2704
13800TIP3    H162891   5.605   1.338   2.301  1.8820 -0.0215  0.8478
13800TIP3    H262892   5.535   1.444   2.383 -1.6465 -0.3784 -1.4645
13801TIP3   OH262893   2.249   6.803  11.646  0.3940 -0.3263 -0.0437
13801TIP3    H162894   2.319   6.742  11.622  1.1529  0.4604  0.1160
13801TIP3    H262895   2.169   6.761  11.613  1.2370  0.1839 -3.0808
13802TIP3   OH262896   0.689   1.191   0.882  0.8576  0.5031  0.5332
13802TIP3    H162897   0.765   1.157   0.835 -0.6077 -1.1854 -0.7885
13802TIP3    H262898   0.723   1.262   0.935  3.0315  0.9768 -1.3394
13803TIP3   OH262899   6.554   4.712  12.485 -0.7055  0.3956 -0.1155
13803TIP3    H162900   6.534   4.626  12.520  0.2446 -0.2273 -1.0377
13803TIP3    H262901   6.539   4.705  12.391  1.5892  0.4922 -0.5592
13804TIP3   OH262902   6.278   1.070   2.069  0.2939 -0.5693  0.0740
13804TIP3    H162903   6.270   1.063   1.974  2.2753 -2.9914 -0.0362
13804TIP3    H262904   6.188   1.077   2.101 -0.4187  0.0424 -1.9409
13805TIP3   OH262905   6.713   6.859  12.655 -0.2376 -0.5580  0.4883
13805TIP3    H162906   6.644   6.893  12.713 -0.4135 -0.3211  0.1384
13805TIP3    H262907   6.789   6.849  12.713  0.0592  1.1827  0.4489
13806TIP3   OH262908   4.740   6.570   2.011  0.7507 -0.2327  0.0737
13806TIP3    H162909   4.761   6.505   1.944 -0.7097 -0.7155  0.0544
13806TIP3    H262910   4.746   6.654   1.966 -0.4125 -0.5631 -0.7262
13807TIP3   OH262911   6.696   2.191   1.139  0.1726 -0.3116 -0.5091
13807TIP3    H162912   6.747   2.199   1.219  0.2734 -2.5862 -0.2684
13807TIP3    H262913   6.607   2.213   1.166  0.5968  1.3219 -0.3697
13808TIP3   OH262914   4.821   2.441  13.404  0.1046 -0.0390 -0.2799
13808TIP3    H162915   4.910   2.404  13.403 -0.0187 -0.3469 -0.1456
13808TIP3    H262916   4.833   2.535  13.391  0.4399 -0.1037 -0.4319
13809TIP3   OH262917   5.428   6.688   5.111  1.1629 -0.1569 -0.1177
13809TIP3    H162918   5.412   6.782   5.100 -1.1478 -0.4850 -0.0830
13809TIP3    H262919   5.438   6.655   5.022 -2.0305 -0.4276 -0.4760
13810TIP3   OH262920   3.386   4.996   2.645 -0.2171  0.4093 -0.2913
13810TIP3    H162921   3.453   4.982   2.578  0.8882  1.4413  0.5429
13810TIP3    H262922   3.435   5.031   2.720 -1.8671  2.8090 -0.2068
13811TIP3   OH262923   4.541   4.321   3.896  0.8360 -0.4957 -0.2863
13811TIP3    H162924   4.518   4.230   3.917  0.1872 -1.1950 -3.4268
13811TIP3    H262925   4.620   4.338   3.947 -0.5826 -1.7857  2.5597
13812TIP3   OH262926   2.354   4.848  14.568 -0.1999 -0.2205 -0.5448
13812TIP3    H162927   2.310   4.875  14.488  0.5377  0.8215 -0.6227
13812TIP3    H262928   2.393   4.929  14.602 -0.6277 -0.6129  0.9494
13813TIP3   OH262929   6.472   5.965   0.627  0.8060  0.2137  0.4616
13813TIP3    H162930   6.477   5.871   0.608  0.9518  0.4155 -0.5285
13813TIP3    H262931   6.393   5.974   0.681 -0.1456 -0.2778 -0.7966
13814TIP3   OH262932   0.638   3.040   4.892  0.5375 -0.4272  0.3639
13814TIP3    H162933   0.675   3.038   4.980 -0.8530  0.2384  0.9970
13814TIP3    H262934   0.712   3.021   4.834  1.2965 -1.7678  1.7109
13815TIP3   OH262935   4.934   6.540   3.082  0.3138  0.2681 -0.4687
13815TIP3    H162936   4.852   6.501   3.112  0.3134  0.4434 -0.2389
13815TIP3    H262937   4.978   6.469   3.034  1.5568 -0.9522  2.2097
13816TIP3   OH262938   3.786   3.358   3.454 -0.1374  0.3839 -0.0771
13816TIP3    H162939   3.837   3.277   3.454 -1.1569 -0.2886  1.1566
13816TIP3    H262940   3.811   3.402   3.373  1.5812 -0.4280 -0.0421
13817TIP3   OH262941   6.845   4.494   3.035  0.6962  0.1945  0.3248
13817TIP3    H162942   6.901   4.568   3.059  0.5640  0.0536  1.0674
13817TIP3    H262943   6.789   4.530   2.966  2.7375 -0.1016 -1.6187
13818TIP3   OH262944   0.815   3.729   6.243 -0.0223  0.0462 -0.6770
13818TIP3    H162945   0.790   3.644   6.208  2.3475 -0.5326 -1.1327
13818TIP3    H262946   0.910   3.733   6.232  0.0674  2.3278  0.2887
13819TIP3   OH262947   6.746   3.241   3.912  0.7008  0.4755  0.0930
13819TIP3    H162948   6.817   3.204   3.964  1.6512 -1.3890 -2.3449
13819TIP3    H262949   6.785   3.318   3.869  1.1402 -0.2383 -0.8262
13820TIP3   OH262950   1.189   6.553   3.997  0.5818 -0.0804  0.4031
13820TIP3    H162951   1.102   6.573   4.032  0.6793  0.7958  0.1711
13820TIP3    H262952   1.172   6.523   3.907  0.4358 -1.0353  0.7433
13821TIP3   OH262953   1.550   3.990   5.543 -0.7937  0.1403 -0.0391
13821TIP3    H162954   1.633   4.006   5.497 -0.5116 -2.5121 -0.6593
13821TIP3    H262955   1.504   4.074   5.541  1.1051  1.2222 -1.2810
13822TIP3   OH262956   3.705   4.302   1.654  0.2028  0.2575  0.1838
13822TIP3    H162957   3.716   4.207   1.643  1.0250  0.5248 -1.7706
13822TIP3    H262958   3.769   4.326   1.721  2.5824 -0.1313 -1.7967
13823TIP3   OH262959   2.521   6.866  15.200 -0.1956  0.2892 -0.1023
13823TIP3    H162960   2.493   6.833  15.286 -1.0895 -0.3554 -0.6173
13823TIP3    H262961   2.512   6.790  15.142  2.6257  0.0389 -0.3549
13824TIP3   OH262962   5.610   0.889   0.168  0.0090  0.2253 -0.1721
13824TIP3    H162963   5.686   0.928   0.125 -1.1172  0.5806 -1.9409
13824TIP3    H262964   5.630   0.895   0.262  1.2919  2.1183 -0.5056
13825TIP3   OH262965   5.245   4.388   2.225  0.1596 -0.2339 -0.0669
13825TIP3    H162966   5.332   4.358   2.255 -0.0673 -0.8536 -0.0104
13825TIP3    H262967   5.229   4.467   2.276 -0.4882 -1.6008  1.9742
13826TIP3   OH262968   1.375   2.924   5.739  0.6820 -0.6732  0.5779
13826TIP3    H162969   1.337   2.869   5.670 -1.4202 -0.3296  1.3986
13826TIP3    H262970   1.401   2.863   5.808 -1.8842 -0.7208  1.6000
13827TIP3   OH262971   5.727   0.416  16.632  0.1425 -0.0501  0.6521
13827TIP3    H162972   5.655   0.385  16.576 -0.6270 -1.1496  2.1721
13827TIP3    H262973   5.687   0.484  16.686  0.4387 -0.1634  1.0137
13828TIP3   OH262974   0.377   5.245   0.178 -0.4984  0.0120  0.2010
13828TIP3    H162975   0.333   5.226   0.095 -1.1814 -1.5941  0.8869
13828TIP3    H262976   0.469   5.221   0.161 -0.8393 -1.4354  0.2073
13829TIP3   OH262977   3.292   4.814  14.148  0.5099  0.1511 -0.8409
13829TIP3    H162978   3.213   4.859  14.178  1.5221  1.5811 -0.2382
13829TIP3    H262979   3.262   4.725  14.126 -1.1232  0.4554  0.0202
13830TIP3   OH262980   1.457   0.381   3.912 -0.0693  0.5684 -0.5808
13830TIP3    H162981   1.432   0.377   3.820 -0.1337  0.4791 -0.5595
13830TIP3    H262982   1.382   0.345   3.959  1.1842 -2.4386 -0.6934
13831TIP3   OH262983   3.985   3.016  13.954 -0.4562 -0.0436  0.2498
13831TIP3    H162984   3.910   3.039  14.009  0.1804  2.1179  0.2864
13831TIP3    H262985   4.054   3.075  13.981  1.2371 -1.8179  0.0388
13832TIP3   OH262986   1.275   5.200  16.059  0.2899  0.2668 -0.2755
13832TIP3    H162987   1.362   5.223  16.027  0.3769 -0.2593 -0.4323
13832TIP3    H262988   1.221   5.193  15.980 -0.0068  1.0242 -0.1491
13833TIP3   OH262989   6.799   1.140   0.556  0.0060  0.1105 -0.0831
13833TIP3    H162990   6.882   1.095   0.569 -0.2062  0.3264  2.5748
13833TIP3    H262991   6.805   1.218   0.611 -1.5159  0.7503 -0.7634
13834TIP3   OH262992   0.291   0.189   0.947 -0.2361  0.2889 -0.6245
13834TIP3    H162993   0.230   0.116   0.956  0.4071 -0.3106 -1.0074
13834TIP3    H262994   0.254   0.242   0.876 -0.2502 -0.1455 -0.9502
13835TIP3   OH262995   0.627   6.284   2.263 -0.1793 -0.3757  0.5331
13835TIP3    H162996   0.543   6.273   2.308 -0.4247  2.4644  0.9860
13835TIP3    H262997   0.686   6.318   2.330  0.7348 -0.3089 -0.2743
13836TIP3   OH262998   3.901   4.074   5.734  0.2233 -0.5142 -0.0288
13836TIP3    H162999   3.945   4.129   5.669  1.1311 -1.3513 -0.1463
13836TIP3    H263000   3.913   4.120   5.817  1.0255 -0.5589 -0.1145
13837TIP3   OH263001   4.284   5.250   6.210  0.5207  0.4880  0.0877
13837TIP3    H163002   4.258   5.342   6.217 -0.0687  0.3925 -0.6624
13837TIP3    H263003   4.228   5.215   6.140  1.4881 -0.1685 -0.3733
13838TIP3   OH263004   6.282   5.734   6.664  0.1011  0.0202  0.4547
13838TIP3    H163005   6.304   5.752   6.572  0.7295  0.3501  0.6711
13838TIP3    H263006   6.357   5.765   6.714 -0.3441  0.0686  1.1068
13839TIP3   OH263007   5.359   1.382  15.202 -0.2075  0.0153  0.1275
13839TIP3    H163008   5.334   1.458  15.149  0.3906  1.1029  1.3471
13839TIP3    H263009   5.419   1.333  15.146  1.6637  1.9656  0.3072
13840TIP3   OH263010   1.247   0.927   2.926  0.5336 -0.4891  0.6420
13840TIP3    H163011   1.285   0.926   2.839 -3.5117  1.2506 -1.4060
13840TIP3    H263012   1.182   0.856   2.925 -2.9398  2.4170  0.2710
13841TIP3   OH263013   0.621   5.584   4.457  0.5074 -0.0869  0.1753
13841TIP3    H163014   0.575   5.653   4.409 -0.8263 -0.5385  0.7621
13841TIP3    H263015   0.638   5.517   4.391  0.1917  0.0254 -0.0252
13842TIP3   OH263016   6.370   4.730   0.283 -0.3961 -0.5471  0.0746
13842TIP3    H163017   6.322   4.703   0.205  0.4203 -1.4611 -0.1327
13842TIP3    H263018   6.309   4.714   0.356 -1.8124  1.9466 -0.4761
13843TIP3   OH263019   2.120   1.095   4.538 -0.5112  0.2073  0.0852
13843TIP3    H163020   2.049   1.052   4.490 -0.2459  0.6243 -0.7095
13843TIP3    H263021   2.198   1.076   4.486 -0.1956  0.5554  0.4319
13844TIP3   OH263022   2.943   0.165   5.915  0.2374  0.0085  0.4045
13844TIP3    H163023   2.948   0.094   5.980  1.4643 -0.9489 -0.6837
13844TIP3    H263024   2.950   0.121   5.831  3.0481  1.5308 -0.2708
13845TIP3   OH263025   0.442   0.911  11.626 -0.1502 -0.2698  0.0103
13845TIP3    H163026   0.406   0.938  11.542 -1.3409  1.3706  0.9985
13845TIP3    H263027   0.387   0.955  11.691  0.4857 -1.8085  1.6672
13846TIP3   OH263028   2.785   5.715   3.118 -0.1903 -0.1290 -0.4216
13846TIP3    H163029   2.741   5.746   3.039 -1.5242  0.8454  0.6415
13846TIP3    H263030   2.787   5.620   3.109 -2.5955 -0.2271 -0.5402
13847TIP3   OH263031   5.682   1.163   1.689 -0.0869 -0.0993 -0.5854
13847TIP3    H163032   5.723   1.146   1.774 -1.3033 -0.1943 -0.0091
13847TIP3    H263033   5.599   1.205   1.710  0.1368  1.0178 -1.7843
13848TIP3   OH263034   4.819   3.938  11.456 -0.1768  0.2986  1.0949
13848TIP3    H163035   4.826   3.842  11.462 -0.1387  0.3873  3.1842
13848TIP3    H263036   4.901   3.966  11.415 -0.6370 -0.6146 -0.5219
13849TIP3   OH263037   3.799   1.829  14.737  0.3547  0.1591  0.5942
13849TIP3    H163038   3.773   1.872  14.656  1.8559 -0.2393 -0.1273
13849TIP3    H263039   3.854   1.893  14.782  1.5249 -0.5016  0.1320
13850TIP3   OH263040   4.100   4.571   5.016  0.2449 -0.8539  0.8563
13850TIP3    H163041   4.039   4.628   5.064  0.2265 -1.2676  1.3386
13850TIP3    H263042   4.186   4.596   5.049  0.3461 -0.2649  0.1691
13851TIP3   OH263043   1.608   5.460  15.094  0.2060  0.6718 -0.5405
13851TIP3    H163044   1.663   5.467  15.172 -1.2197  0.7730  0.4854
13851TIP3    H263045   1.556   5.540  15.094  0.2723  0.7369 -1.6890
13852TIP3   OH263046   5.574   3.455   0.625  0.0250  0.2225  0.2059
13852TIP3    H163047   5.559   3.450   0.720  1.8382 -1.3540  0.4775
13852TIP3    H263048   5.492   3.425   0.586 -0.5514  0.3401  1.3033
13853TIP3   OH263049   0.989   2.103  13.219 -0.3434 -0.5064 -0.3679
13853TIP3    H163050   1.025   2.185  13.187 -1.0830 -0.4440 -1.0424
13853TIP3    H263051   0.900   2.099  13.184  0.5758 -2.9260 -2.8327
13854TIP3   OH263052   1.717   5.342   2.440 -0.1444  0.6360  0.2511
13854TIP3    H163053   1.698   5.285   2.365 -0.3697 -0.0492  0.8194
13854TIP3    H263054   1.813   5.342   2.446  0.0269  2.5196 -1.4085
13855TIP3   OH263055   5.263   3.773  12.781 -0.1195 -0.2694  0.5058
13855TIP3    H163056   5.216   3.852  12.754 -0.0333 -0.1829  0.6107
13855TIP3    H263057   5.322   3.802  12.851  0.7841 -0.1796 -0.2616
13856TIP3   OH263058   2.378   4.560   0.058 -0.1453  0.0832 -0.6939
13856TIP3    H163059   2.353   4.540  -0.032 -1.0395  2.2557 -0.9968
13856TIP3    H263060   2.295   4.570   0.105  0.2965  0.0954  0.1101
13857TIP3   OH263061   2.806   5.188  11.529 -0.3293 -0.1783  0.1578
13857TIP3    H163062   2.750   5.127  11.481  2.3289 -1.5888 -1.3776
13857TIP3    H263063   2.839   5.248  11.461  1.9108 -0.9445  0.5001
13858TIP3   OH263064   0.692   0.314  16.830 -0.1411 -0.9231 -0.3603
13858TIP3    H163065   0.785   0.309  16.808  0.2228  1.7736  0.2215
13858TIP3    H263066   0.647   0.287  16.750  1.1431 -0.7348 -1.1794
13859TIP3   OH263067   0.523   2.023  11.348 -0.3690  0.0981  0.0452
13859TIP3    H163068   0.497   1.973  11.426  0.0394  1.9055  1.4205
13859TIP3    H263069   0.449   2.083  11.334 -0.4520 -0.2372 -1.0119
13860TIP3   OH263070   4.722   4.351  11.007 -0.1752 -0.1276  0.4348
13860TIP3    H163071   4.739   4.291  10.935 -0.8325  1.4820 -1.1328
13860TIP3    H263072   4.801   4.346  11.061  0.8858 -0.4476 -1.0787
13861TIP3   OH263073   0.274   2.656   5.661 -0.4431 -0.1039  0.4861
13861TIP3    H163074   0.347   2.598   5.638 -0.6684 -0.1941 -0.0257
13861TIP3    H263075   0.198   2.598   5.665 -0.1310 -0.4369  3.3749
13862TIP3   OH263076   3.495   2.078  10.498  0.0262  0.1000  0.3600
13862TIP3    H163077   3.491   2.120  10.584 -1.7227  2.2765 -0.6886
13862TIP3    H263078   3.572   2.117  10.457 -0.6687  1.1309 -0.0083
13863TIP3   OH263079   4.539   5.564  11.558  0.0650  0.2172 -0.5044
13863TIP3    H163080   4.452   5.594  11.581 -0.9036 -1.4898 -1.7211
13863TIP3    H263081   4.535   5.549  11.463  1.1212 -1.5983 -0.3004
13864TIP3   OH263082   1.960   4.931   2.700  0.5535  0.2972 -0.3560
13864TIP3    H163083   1.885   4.893   2.656 -0.4404  2.4057 -0.6130
13864TIP3    H263084   2.035   4.904   2.648 -0.4738  1.7740 -2.7409
13865TIP3   OH263085   4.254   0.485  16.457 -0.1396 -0.1873  0.0712
13865TIP3    H163086   4.275   0.572  16.423  0.3229 -0.2529  0.1905
13865TIP3    H263087   4.337   0.439  16.459 -0.5735 -1.0522 -1.1570
13866TIP3   OH263088   0.379   4.104   0.202  0.0575  0.5212  0.0486
13866TIP3    H163089   0.297   4.148   0.226  0.7170  1.8749 -0.0585
13866TIP3    H263090   0.447   4.162   0.237  0.9963  0.5951 -1.7864
13867TIP3   OH263091   5.838   5.353   1.711 -0.6563  0.1028  0.4852
13867TIP3    H163092   5.810   5.332   1.622 -0.5082 -0.4996  0.5730
13867TIP3    H263093   5.892   5.431   1.702  0.6185 -0.8225 -0.1621
13868TIP3   OH263094   3.311   1.230   0.222 -0.0073 -0.3491  0.0530
13868TIP3    H163095   3.310   1.261   0.131  3.2649 -2.6900 -0.9892
13868TIP3    H263096   3.327   1.308   0.274  0.0521  0.7877 -1.5944
13869TIP3   OH263097   1.893   0.594   2.349  0.1616 -0.2865  0.2257
13869TIP3    H163098   1.871   0.663   2.412  0.2753 -1.0472  1.1218
13869TIP3    H263099   1.932   0.640   2.275 -0.2982  0.6590  0.5621
13870TIP3   OH263100   2.592   3.714  12.690  0.3635  0.3195  0.0774
13870TIP3    H163101   2.676   3.741  12.728  0.2979 -1.1600  1.3909
13870TIP3    H263102   2.598   3.619  12.684 -0.7749  0.2929 -0.9607
13871TIP3   OH263103   2.954   6.242  12.852  0.5236  0.5951 -0.6906
13871TIP3    H163104   2.937   6.336  12.864 -1.4252  0.1771  0.2029
13871TIP3    H263105   3.034   6.226  12.901 -0.1876  1.4518  0.8237
13872TIP3   OH263106   3.862   5.114   1.614 -0.0610  0.4351 -0.1337
13872TIP3    H163107   3.946   5.070   1.608 -1.2540 -1.9860 -0.1303
13872TIP3    H263108   3.834   5.100   1.705 -0.7143  0.7182 -0.2859
13873TIP3   OH263109   6.810   0.309  13.928  0.1914 -0.1361  0.0682
13873TIP3    H163110   6.766   0.390  13.901  0.0144 -0.4775 -0.7074
13873TIP3    H263111   6.756   0.239  13.890  0.1281 -0.6292  1.0468
13874TIP3   OH263112   0.033   0.027  10.333 -0.0374  0.0037 -0.5099
13874TIP3    H163113  -0.027   0.099  10.353 -0.9261 -0.8469 -0.0037
13874TIP3    H263114   0.114   0.048  10.379 -0.6769  0.1170  0.5999
13875TIP3   OH263115   4.404   0.776  13.512 -0.7475 -0.3436 -0.1815
13875TIP3    H163116   4.396   0.736  13.425 -0.0723  0.2540 -0.5196
13875TIP3    H263117   4.347   0.853  13.509 -0.9304 -0.4665  0.0052
13876TIP3   OH263118   5.069   1.383  16.584 -0.5735 -0.1930  0.4702
13876TIP3    H163119   5.048   1.471  16.552 -0.9777 -0.5781 -0.3358
13876TIP3    H263120   5.021   1.324  16.527 -1.4781 -0.9090  1.9003
13877TIP3   OH263121   4.946   5.988  12.581  0.5493 -0.3680 -0.4405
13877TIP3    H163122   4.942   5.901  12.620  0.2031  0.0378  0.4720
13877TIP3    H263123   4.859   6.004  12.547  0.5739 -0.3307 -0.4860
13878TIP3   OH263124   2.912   1.683   3.843  0.7589 -0.1917 -0.1325
13878TIP3    H163125   2.954   1.603   3.874 -0.6184 -1.8222 -2.1643
13878TIP3    H263126   2.864   1.656   3.764 -1.4388  2.2007  0.2371
13879TIP3   OH263127   2.428   1.486  10.203 -0.2265  0.6911 -0.2529
13879TIP3    H163128   2.500   1.531  10.249 -0.2543  0.8533 -0.3665
13879TIP3    H263129   2.462   1.399  10.186 -1.0200 -0.1437  2.0669
13880TIP3   OH263130   2.473   4.459  13.792  0.1255 -0.0446  0.1122
13880TIP3    H163131   2.383   4.492  13.797  0.1964 -0.0794  2.1148
13880TIP3    H263132   2.505   4.490  13.707 -1.1025  1.7555  0.2574
13881TIP3   OH263133   0.301   6.092   5.456  0.0198 -0.0985  0.3735
13881TIP3    H163134   0.382   6.106   5.407  1.0375  1.1138  2.3029
13881TIP3    H263135   0.318   6.014   5.509 -0.7690 -0.8913 -0.4822
13882TIP3   OH263136   2.489   3.145  15.686  0.2417 -0.0274 -0.1390
13882TIP3    H163137   2.453   3.103  15.764  0.4303  1.1853  0.6306
13882TIP3    H263138   2.412   3.173  15.637  0.1126  0.4498  0.3217
13883TIP3   OH263139   0.374   1.345  14.782 -0.2421 -0.2623  0.2248
13883TIP3    H163140   0.468   1.343  14.765 -0.2058 -3.8694  0.0429
13883TIP3    H263141   0.340   1.410  14.721  2.0597  0.8246 -0.0101
13884TIP3   OH263142   4.877   4.874  10.445 -0.2970  0.6838 -0.3934
13884TIP3    H163143   4.843   4.948  10.394 -0.1080  0.2207 -1.2092
13884TIP3    H263144   4.965   4.902  10.471 -0.2864  0.8145 -0.5659
13885TIP3   OH263145   5.537   6.337   4.510  0.0580  0.1820  0.5959
13885TIP3    H163146   5.557   6.430   4.501 -1.6399  0.6542  1.3075
13885TIP3    H263147   5.620   6.297   4.533  0.6577  1.6540  1.1084
13886TIP3   OH263148   2.983   0.989   5.354  0.3458 -0.2160  0.0737
13886TIP3    H163149   2.966   1.083   5.363 -1.0355 -0.3918 -0.3346
13886TIP3    H263150   2.896   0.951   5.337  0.9510 -1.5030 -0.2695
13887TIP3   OH263151   5.757   5.761   0.869  0.4582 -0.3161  0.0421
13887TIP3    H163152   5.667   5.737   0.892  0.3833 -0.0157  0.0712
13887TIP3    H263153   5.802   5.677   0.857  0.1304 -0.4680 -0.1443
13888TIP3   OH263154   2.610   6.429   2.834  0.0753 -0.5387 -0.1376
13888TIP3    H163155   2.573   6.489   2.769  1.8471 -0.2784 -0.9675
13888TIP3    H263156   2.705   6.438   2.823  0.4722 -0.1831  2.7583
13889TIP3   OH263157   0.251   1.913  16.203 -0.6645 -0.4387  0.0670
13889TIP3    H163158   0.226   1.866  16.282  0.8828 -1.5377 -0.0617
13889TIP3    H263159   0.334   1.874  16.177 -0.8236  0.3415 -1.7480
13890TIP3   OH263160   1.551   2.406  13.153  0.1126 -0.2389  0.1489
13890TIP3    H163161   1.501   2.459  13.215  0.7438  0.1089  0.3674
13890TIP3    H263162   1.643   2.422  13.176  0.3300 -0.7874 -0.3138
13891TIP3   OH263163   5.450   5.556  13.713  0.1003 -0.2802 -0.3308
13891TIP3    H163164   5.411   5.549  13.800  0.4867  1.0401 -0.0243
13891TIP3    H263165   5.479   5.468  13.692  1.1150 -0.3938  1.4102
13892TIP3   OH263166   6.173   3.902  10.621 -0.5180  0.2290  1.5102
13892TIP3    H163167   6.255   3.852  10.629 -1.2501 -1.0447  1.3380
13892TIP3    H263168   6.196   3.990  10.651  0.4073 -0.6153  3.4799
13893TIP3   OH263169   6.112   3.625  14.837  0.3235 -0.1333 -0.2349
13893TIP3    H163170   6.165   3.657  14.911 -0.3217 -0.2552  0.2859
13893TIP3    H263171   6.028   3.601  14.876  0.2164 -0.8725 -0.8938
13894TIP3   OH263172   1.426   4.970  13.583 -0.1947 -0.1895 -0.1459
13894TIP3    H163173   1.456   4.880  13.594 -0.8495 -0.4991 -0.8031
13894TIP3    H263174   1.362   4.983  13.652 -0.9104 -0.6026 -0.7185
13895TIP3   OH263175   2.980   0.402  17.045 -0.2297  0.2207 -0.3065
13895TIP3    H163176   2.927   0.334  17.003  1.1568  0.1824 -2.1462
13895TIP3    H263177   2.996   0.370  17.133 -2.3059 -0.2673 -0.0664
13896TIP3   OH263178   2.548   5.277   6.367 -0.0077  0.2137  0.6085
13896TIP3    H163179   2.495   5.258   6.445 -0.1244  0.0729  0.4961
13896TIP3    H263180   2.495   5.338   6.316 -0.7015 -1.0351 -0.1984
13897TIP3   OH263181   0.951   2.412  15.632  0.2057  0.5579  0.6260
13897TIP3    H163182   0.927   2.487  15.687  0.1415  0.2620  1.0042
13897TIP3    H263183   1.047   2.416  15.627  0.3622 -0.4267  2.2253
13898TIP3   OH263184   1.548   3.586  16.637  0.2783  0.0976 -0.2179
13898TIP3    H163185   1.459   3.571  16.606 -0.5358  0.3220  1.8404
13898TIP3    H263186   1.594   3.503  16.623 -0.7976 -0.6132  0.3822
13899TIP3   OH263187   5.146   6.718  11.198  0.5096  0.0256  0.7373
13899TIP3    H163188   5.198   6.663  11.256 -0.9103 -0.2783  1.7742
13899TIP3    H263189   5.057   6.685  11.206  0.1746  0.3080 -1.2571
13900TIP3   OH263190   1.839   0.457  11.675 -0.1945  0.5348  0.0853
13900TIP3    H163191   1.817   0.549  11.668  0.7833  0.9020  1.5007
13900TIP3    H263192   1.932   0.452  11.653  1.0118  0.6489  4.2843
13901TIP3   OH263193   6.403   3.287  14.123 -0.1463 -0.2093  0.1996
13901TIP3    H163194   6.384   3.237  14.044  0.0656 -3.2489  1.9034
13901TIP3    H263195   6.497   3.303  14.120 -0.0473 -0.8024  0.0854
13902TIP3   OH263196   0.235   6.519  10.640 -0.1603  0.2205  0.3579
13902TIP3    H163197   0.290   6.586  10.600 -1.8708  2.1157  1.0153
13902TIP3    H263198   0.163   6.507  10.577 -0.6874  0.1734  0.9600
13903TIP3   OH263199   5.438   0.219  13.300  0.1256  0.2251  0.3308
13903TIP3    H163200   5.474   0.264  13.377 -2.4196 -1.2463  2.5565
13903TIP3    H263201   5.344   0.231  13.308 -0.2219  0.7572 -3.1534
13904TIP3   OH263202   4.112   2.897   2.369 -0.0013  0.1349  0.3291
13904TIP3    H163203   4.071   2.893   2.283  0.8630  1.1671 -0.1525
13904TIP3    H263204   4.067   2.968   2.414 -1.2791 -1.1768  1.2120
13905TIP3   OH263205   4.452   4.341  15.124  0.1341  0.6401 -0.3386
13905TIP3    H163206   4.514   4.412  15.110  2.3069 -1.3986 -1.8106
13905TIP3    H263207   4.422   4.353  15.214  0.1106  3.5774 -0.6438
13906TIP3   OH263208   0.241   0.379   4.496 -0.5651 -0.6255 -0.2449
13906TIP3    H163209   0.190   0.330   4.561  0.5395 -0.4025  0.8474
13906TIP3    H263210   0.182   0.449   4.467 -1.1718 -0.8649  0.3750
13907TIP3   OH263211   3.488   0.434   1.011  0.4050 -0.1974 -0.4689
13907TIP3    H163212   3.401   0.469   0.989  0.2695  0.2134  0.6366
13907TIP3    H263213   3.472   0.375   1.085  1.2223  0.9588  0.6769
13908TIP3   OH263214   2.416   5.561  14.717  0.1002 -0.3372 -0.7646
13908TIP3    H163215   2.448   5.541  14.629 -0.7979 -1.9121 -0.7624
13908TIP3    H263216   2.365   5.641  14.706  0.2050 -0.3832 -1.6251
13909TIP3   OH263217   5.284   6.016  12.654 -0.8460 -0.0065  0.0251
13909TIP3    H163218   5.286   5.951  12.583 -0.0260 -0.1968  0.2099
13909TIP3    H263219   5.325   6.094  12.616 -0.9812  0.0960  0.0912
13910TIP3   OH263220   6.226   2.649  16.777 -0.0054  0.2317 -0.4782
13910TIP3    H163221   6.293   2.643  16.709  0.1233  1.9404 -0.5277
13910TIP3    H263222   6.231   2.564  16.822  3.0252  0.7068  0.2788
13911TIP3   OH263223   4.318   4.681   3.501  0.5823 -0.3803 -0.0034
13911TIP3    H163224   4.245   4.638   3.547  1.5470 -2.0852  0.0082
13911TIP3    H263225   4.318   4.643   3.414  0.6992  0.5492 -0.4242
13912TIP3   OH263226   5.192   3.230   2.578  0.3168 -0.4385 -0.4696
13912TIP3    H163227   5.234   3.177   2.646 -1.5727 -0.6302  0.6220
13912TIP3    H263228   5.169   3.312   2.622 -0.4589 -0.3574 -1.0102
13913TIP3   OH263229   0.974   4.742  15.910  0.0495 -0.0884  0.5022
13913TIP3    H163230   0.891   4.694  15.909 -0.6245  1.0486  0.8010
13913TIP3    H263231   1.024   4.704  15.837  0.0543 -2.0906  1.4892
13914TIP3   OH263232   3.793   4.644  14.659  0.7923 -0.7545  0.6658
13914TIP3    H163233   3.833   4.558  14.670 -1.0219 -1.6403  0.7150
13914TIP3    H263234   3.705   4.626  14.625  0.2101  1.0446  1.0850
13915TIP3   OH263235   4.492   6.535   0.285  0.2796 -0.4893  0.0600
13915TIP3    H163236   4.554   6.509   0.353 -0.1011 -2.6692 -0.3434
13915TIP3    H263237   4.545   6.541   0.206  0.3603 -0.0429  0.1453
13916TIP3   OH263238   2.291   1.914  13.086 -0.4974 -0.3345 -0.8100
13916TIP3    H163239   2.207   1.877  13.058  0.2344 -0.1476 -3.5230
13916TIP3    H263240   2.350   1.839  13.091 -0.3141 -0.2039 -0.9962
13917TIP3   OH263241   5.108   1.799  13.753  0.7459 -0.2377  0.3894
13917TIP3    H163242   5.067   1.748  13.684 -1.9473  0.6412  1.2125
13917TIP3    H263243   5.142   1.733  13.815 -0.2828 -1.0215  0.1350
13918TIP3   OH263244   3.467   6.373  14.456  0.4453 -0.0289  0.5249
13918TIP3    H163245   3.436   6.429  14.384  0.6630  0.5265  0.8580
13918TIP3    H263246   3.463   6.284  14.420  0.1626  0.2028 -0.0366
13919TIP3   OH263247   0.601   1.489  10.553 -0.0908 -0.3240 -0.1301
13919TIP3    H163248   0.638   1.567  10.595 -2.6816  1.3888 -0.8244
13919TIP3    H263249   0.580   1.431  10.627 -0.9487  0.9666  0.6875
13920TIP3   OH263250   2.091   5.520   3.861 -0.1259 -0.6887  0.3305
13920TIP3    H163251   2.064   5.610   3.842  2.5452 -0.2357 -1.9455
13920TIP3    H263252   2.111   5.519   3.955 -1.3674  0.7027  0.6408
13921TIP3   OH263253   3.970   1.710  12.079  0.0290 -0.0122  0.0526
13921TIP3    H163254   4.007   1.794  12.108  2.2740 -0.9010 -0.0489
13921TIP3    H263255   3.947   1.664  12.160 -1.2670  0.6908  0.1071
13922TIP3   OH263256   6.750   2.185   3.751  0.2608 -0.1394 -0.0336
13922TIP3    H163257   6.784   2.272   3.770  0.2254 -0.0868 -0.2069
13922TIP3    H263258   6.761   2.175   3.656 -0.1910 -0.1270 -0.0900
13923TIP3   OH263259   2.997   5.313  13.523  0.3235 -0.8312  0.2667
13923TIP3    H163260   3.001   5.403  13.556  3.2525 -1.4107  1.8774
13923TIP3    H263261   3.034   5.260  13.593 -0.8484 -3.2535 -0.8514
13924TIP3   OH263262   4.202   5.813  16.549 -0.7733  0.4699 -0.0129
13924TIP3    H163263   4.129   5.826  16.610 -0.6037  1.5254 -0.0141
13924TIP3    H263264   4.281   5.824  16.603 -0.6035 -0.1894 -0.1102
13925TIP3   OH263265   2.202   2.007   5.107  0.1073 -0.0964  0.5803
13925TIP3    H163266   2.134   2.065   5.075  2.8943  1.5757 -2.9239
13925TIP3    H263267   2.222   1.950   5.033  1.3574 -1.7279  2.0842
13926TIP3   OH263268   6.142   3.308   4.858  0.1137  0.2450 -0.4457
13926TIP3    H163269   6.199   3.232   4.870 -0.5016 -0.3543 -1.1913
13926TIP3    H263270   6.096   3.291   4.775 -0.3401  1.2324 -0.4159
13927TIP3   OH263271   5.213   3.050  12.201 -0.3403 -0.3448  0.3614
13927TIP3    H163272   5.267   3.047  12.123 -0.4099 -0.9799  0.3321
13927TIP3    H263273   5.256   2.991  12.263 -0.9730 -0.8203  0.3558
13928TIP3   OH263274   0.441   0.185   2.419  0.0204  0.9828 -0.7542
13928TIP3    H163275   0.518   0.128   2.416  0.5872  1.5940  0.8301
13928TIP3    H263276   0.463   0.252   2.484 -1.2093  2.1590 -1.4950
13929TIP3   OH263277   5.641   4.875   3.797  0.4018  0.2286 -0.4206
13929TIP3    H163278   5.682   4.956   3.767  2.4924 -0.4518  0.4458
13929TIP3    H263279   5.664   4.868   3.889 -0.4641 -0.9483 -0.2680
13930TIP3   OH263280   2.324   3.106  15.889 -0.4682  0.2582  0.0321
13930TIP3    H163281   2.245   3.053  15.895 -0.4765  0.2419 -0.2061
13930TIP3    H263282   2.384   3.067  15.953 -0.0983 -0.6968 -0.8642
13931TIP3   OH263283   2.637   3.959  16.626 -0.6044 -0.5853 -0.0894
13931TIP3    H163284   2.670   4.039  16.587 -1.6590 -0.8003 -1.5232
13931TIP3    H263285   2.666   3.889  16.567 -0.0413 -1.2417  0.9200
13932TIP3   OH263286   0.759   5.565   4.708 -0.1595  0.1537 -0.4696
13932TIP3    H163287   0.852   5.580   4.693  0.1079 -1.6159 -0.7319
13932TIP3    H263288   0.716   5.593   4.627  0.1826  0.4791 -0.5407
13933TIP3   OH263289   5.756   6.327   1.325 -0.1204  0.1237 -0.0449
13933TIP3    H163290   5.829   6.365   1.373 -0.1359  0.6119 -0.3945
13933TIP3    H263291   5.793   6.302   1.241 -0.4567  0.8511 -0.4206
13934TIP3   OH263292   3.284   1.947   1.455  0.4409  0.2084  0.7057
13934TIP3    H163293   3.264   1.853   1.459  0.2895  0.1607 -0.7153
13934TIP3    H263294   3.334   1.957   1.374 -2.2204  1.7818 -0.8932
13935TIP3   OH263295   0.942   1.794   5.075 -0.0007 -0.4414 -0.3903
13935TIP3    H163296   0.935   1.745   5.157 -0.1354 -0.8693 -0.6515
13935TIP3    H263297   0.956   1.726   5.008 -0.7707 -0.1690 -0.8370
13936TIP3   OH263298   0.164   2.707   2.234 -0.1956  0.2114  0.0408
13936TIP3    H163299   0.220   2.770   2.279 -1.1122  1.6276 -0.7234
13936TIP3    H263300   0.076   2.725   2.267 -0.4863 -0.5978 -0.2748
13937TIP3   OH263301   6.238   2.110   0.160  0.4729  0.2964 -0.0046
13937TIP3    H163302   6.278   2.174   0.218  0.5612  2.5817 -2.4198
13937TIP3    H263303   6.148   2.142   0.148  0.2103 -0.5906 -0.4978
13938TIP3   OH263304   4.122   5.554  10.410  0.3936 -0.0330 -0.2967
13938TIP3    H163305   4.119   5.634  10.359 -0.5602  1.5242  2.0132
13938TIP3    H263306   4.144   5.486  10.347  1.6445  2.0703 -2.2865
13939TIP3   OH263307   4.981   3.159   3.634  0.1458 -0.1318  0.5901
13939TIP3    H163308   5.055   3.168   3.574 -0.7969  0.0634 -0.5738
13939TIP3    H263309   4.915   3.111   3.584 -1.3574  1.5989  0.7995
13940TIP3   OH263310   4.178   1.981   4.769 -0.0062  0.2949  0.6194
13940TIP3    H163311   4.177   1.895   4.812 -3.0153  0.7651  1.7167
13940TIP3    H263312   4.167   1.962   4.676 -0.6665 -0.5141  0.8538
13941TIP3   OH263313   2.805   3.245  15.690 -0.6585 -0.2312  0.0023
13941TIP3    H163314   2.893   3.227  15.721 -0.3202 -3.9809 -2.5350
13941TIP3    H263315   2.753   3.169  15.717 -1.7354 -0.7268 -3.0781
13942TIP3   OH263316   5.441   2.938  12.570 -0.8405  0.1671  0.4833
13942TIP3    H163317   5.440   2.846  12.543 -0.1248  0.8857 -2.3494
13942TIP3    H263318   5.449   2.935  12.665 -1.7714 -2.6791  0.5800
13943TIP3   OH263319   1.993   1.610   1.226 -0.3702 -0.0999  0.6162
13943TIP3    H163320   2.057   1.574   1.288  0.2189  0.8673  0.5827
13943TIP3    H263321   1.996   1.704   1.240 -2.5647 -0.0654  1.3686
13944TIP3   OH263322   5.969   5.163   5.218  0.0543 -0.9703  0.0937
13944TIP3    H163323   6.029   5.235   5.240  0.0702 -1.2172  0.9263
13944TIP3    H263324   6.014   5.114   5.150 -0.0389 -0.0913 -0.6182
13945TIP3   OH263325   2.689   4.626   1.405  0.4396 -0.2974 -0.5196
13945TIP3    H163326   2.642   4.704   1.376 -0.2280 -0.0586  1.1365
13945TIP3    H263327   2.760   4.617   1.341  0.5550  1.6695 -0.7513
13946TIP3   OH263328   3.347   2.929   2.752 -0.0800 -0.0187 -0.2866
13946TIP3    H163329   3.284   2.876   2.703 -0.5514 -0.2698  0.5544
13946TIP3    H263330   3.432   2.906   2.716 -0.2394 -1.6721  0.3350
13947TIP3   OH263331   6.680   1.804  11.672 -0.3245 -0.1249  0.6481
13947TIP3    H163332   6.739   1.729  11.678 -0.0492 -0.1840 -1.8801
13947TIP3    H263333   6.617   1.780  11.604 -1.6137  1.0599  1.3665
13948TIP3   OH263334   3.690   0.011   1.975 -0.2363 -0.1888 -0.2558
13948TIP3    H163335   3.781  -0.020   1.972 -0.3995 -0.8598  0.9612
13948TIP3    H263336   3.688   0.073   2.047 -0.4503  0.9270 -1.1929
13949TIP3   OH263337   1.082   6.849   5.288  0.2177 -0.8037 -0.2935
13949TIP3    H163338   1.043   6.926   5.330  0.7155 -0.5220 -0.3356
13949TIP3    H263339   1.047   6.775   5.337 -2.0009 -0.7123 -1.6379
13950TIP3   OH263340   1.254   0.100  16.117 -0.1195  0.0517 -0.2780
13950TIP3    H163341   1.321   0.166  16.098  0.9073 -1.4514 -2.1400
13950TIP3    H263342   1.276   0.069  16.205 -0.8928  2.4087  0.8495
13951TIP3   OH263343   6.039   4.410   5.623  0.4036  0.3154  0.4001
13951TIP3    H163344   6.127   4.411   5.585  0.2814  2.0507  0.0986
13951TIP3    H263345   5.980   4.410   5.548  0.1318 -0.4989  0.6038
13952TIP3   OH263346   3.274   5.275  13.399  0.6527  0.0626  0.2330
13952TIP3    H163347   3.192   5.306  13.437  0.3935 -0.4744  0.1085
13952TIP3    H263348   3.337   5.345  13.419  0.1283  0.5668  0.1546
13953TIP3   OH263349   3.919   0.380   5.120 -0.8516  0.2287 -0.3071
13953TIP3    H163350   3.987   0.318   5.146 -3.1829 -2.1960  0.5242
13953TIP3    H263351   3.944   0.408   5.032  0.8640 -1.1207 -0.3007
13954TIP3   OH263352   1.853   0.712   3.444 -0.5975 -0.1050  0.4785
13954TIP3    H163353   1.859   0.679   3.533  1.1978 -0.2369  0.3460
13954TIP3    H263354   1.759   0.713   3.424 -1.1117  0.9151  2.7211
13955TIP3   OH263355   3.720   0.030   2.868  0.7891 -0.2678  0.2104
13955TIP3    H163356   3.776   0.074   2.932  0.4998 -1.3747  1.2551
13955TIP3    H263357   3.641   0.084   2.865  1.1355  0.2469  0.1526
13956TIP3   OH263358   6.421   3.536   1.458  0.1248 -0.0855  0.5298
13956TIP3    H163359   6.395   3.451   1.421  1.5123 -0.6933  0.8434
13956TIP3    H263360   6.471   3.513   1.536  3.4294  0.7673 -1.1325
13957TIP3   OH263361   2.743   3.797   0.280  0.2029 -0.0996  0.4714
13957TIP3    H163362   2.744   3.736   0.207  0.0784  1.1928 -0.6434
13957TIP3    H263363   2.833   3.796   0.313  0.2460 -0.7249  0.3469
13958TIP3   OH263364   0.409   3.232  11.832 -0.0005  0.3820  0.0500
13958TIP3    H163365   0.333   3.231  11.891 -0.6882  1.3775 -0.7905
13958TIP3    H263366   0.482   3.202  11.887 -0.7574  0.6163  1.2167
13959TIP3   OH263367   1.958   5.785   0.310 -0.4238  0.1000  0.0182
13959TIP3    H163368   2.032   5.810   0.256 -0.5042  0.4066  0.0517
13959TIP3    H263369   1.881   5.811   0.260 -0.6199 -2.3652 -1.1518
13960TIP3   OH263370   4.616   1.112   1.472 -0.3555  0.4823 -0.1291
13960TIP3    H163371   4.679   1.042   1.456 -1.8081 -0.8309 -0.3260
13960TIP3    H263372   4.670   1.190   1.482  1.2358 -0.3560 -1.5367
13961TIP3   OH263373   6.148   5.433   1.117 -1.1344 -0.3452  0.1011
13961TIP3    H163374   6.149   5.488   1.039 -1.0395  1.7765  1.5136
13961TIP3    H263375   6.135   5.345   1.083 -0.5896  0.4157 -2.3377
13962TIP3   OH263376   2.800   1.119   3.676 -0.1677 -0.7080 -0.1515
13962TIP3    H163377   2.747   1.066   3.735  1.0875 -0.4384  1.2820
13962TIP3    H263378   2.857   1.057   3.631 -0.7806 -0.8609 -0.7338
13963TIP3   OH263379   6.820   2.660  15.087  0.5665  0.4055  0.2108
13963TIP3    H163380   6.828   2.575  15.130  1.8147 -0.0725 -0.8895
13963TIP3    H263381   6.907   2.677  15.051 -0.4160  0.6370 -2.2888
13964TIP3   OH263382   0.791   4.387  10.905  0.1017 -0.4031 -0.9799
13964TIP3    H163383   0.754   4.323  10.844 -0.4127 -0.0053 -1.0978
13964TIP3    H263384   0.715   4.421  10.952  0.5153 -0.8091 -0.0126
13965TIP3   OH263385   3.978   2.424  14.606  0.1208 -0.7711 -0.1211
13965TIP3    H163386   3.987   2.438  14.512  0.4087 -0.3802 -0.0358
13965TIP3    H263387   4.021   2.341  14.622  2.2840  0.3112  0.0406
13966TIP3   OH263388   4.303   4.936  12.439  0.1336 -0.2773  0.3100
13966TIP3    H163389   4.232   4.993  12.469  0.1759  0.1397 -0.3404
13966TIP3    H263390   4.383   4.975  12.475  0.0198 -0.9345  1.3171
13967TIP3   OH263391   2.535   0.227   4.152 -0.6292 -0.0558 -0.2613
13967TIP3    H163392   2.447   0.228   4.191 -1.6622 -0.4365 -2.4437
13967TIP3    H263393   2.567   0.138   4.169 -0.4993  0.1915  0.8460
13968TIP3   OH263394   6.057   6.669  14.040 -0.4853 -0.2992  0.1175
13968TIP3    H163395   6.084   6.613  14.113  2.7807  1.8780  0.8102
13968TIP3    H263396   6.015   6.745  14.082 -0.8256 -0.1684 -0.4480
13969TIP3   OH263397   2.100   4.401  12.068  0.3261  0.4916  0.0819
13969TIP3    H163398   2.050   4.460  12.011 -1.0950 -0.1750  0.5756
13969TIP3    H263399   2.150   4.347  12.008 -0.5979  0.2762 -0.5197
13970TIP3   OH263400   1.626   4.065   3.737 -0.3240  0.0823  0.6222
13970TIP3    H163401   1.585   4.072   3.651 -1.6567 -0.7358  1.1626
13970TIP3    H263402   1.610   4.150   3.778  2.0036  1.1981 -0.6010
13971TIP3   OH263403   0.024   2.633   4.522  0.6382 -0.1529 -0.2166
13971TIP3    H163404  -0.063   2.599   4.502  0.5490  0.0270 -0.1472
13971TIP3    H263405   0.017   2.662   4.613  0.9371 -0.6569 -0.0303
13972TIP3   OH263406   3.246   0.901   1.085 -0.1350 -0.4804 -0.5442
13972TIP3    H163407   3.269   0.810   1.103 -2.3041 -1.4089 -2.0661
13972TIP3    H263408   3.251   0.910   0.990 -0.3852  0.8763 -0.4616
13973TIP3   OH263409   6.386   4.341  15.037 -0.1483  0.1069  0.5028
13973TIP3    H163410   6.451   4.363  15.103  0.8817 -3.8200  1.0260
13973TIP3    H263411   6.319   4.292  15.084 -1.0678  0.0324 -0.8285
13974TIP3   OH263412   3.139   4.661  14.365  0.6513 -0.5131 -0.2247
13974TIP3    H163413   3.101   4.650  14.278 -0.9503  1.1761  0.2039
13974TIP3    H263414   3.063   4.669  14.423  1.6926 -0.0583  1.1187
13975TIP3   OH263415   6.426   5.977  14.631  0.5849 -0.2789 -0.0777
13975TIP3    H163416   6.421   6.009  14.541 -4.4014  0.4732  0.1555
13975TIP3    H263417   6.432   5.882  14.623 -1.0652 -0.3262 -1.3676
13976TIP3   OH263418   0.099   6.031   4.181  0.0485  0.0416  0.2421
13976TIP3    H163419   0.016   5.987   4.199 -0.2553  1.0381  1.3543
13976TIP3    H263420   0.161   5.991   4.241  0.1499 -0.0114  0.1030
13977TIP3   OH263421   0.496   1.465   4.128 -0.8698 -0.4328  0.1378
13977TIP3    H163422   0.427   1.514   4.081 -0.3003  0.8625  0.5969
13977TIP3    H263423   0.458   1.379   4.143 -2.8466  0.5530  1.3069
13978TIP3   OH263424   0.383   5.940  13.048  0.8488 -0.5202 -0.0220
13978TIP3    H163425   0.471   5.975  13.065  0.5415 -0.5593  1.8615
13978TIP3    H263426   0.326   5.992  13.104 -0.3953 -0.3773 -1.3528
13979TIP3   OH263427   5.182   6.422  16.326  0.1608  0.6096  0.1701
13979TIP3    H163428   5.149   6.341  16.366 -0.4840  0.7762 -0.0036
13979TIP3    H263429   5.129   6.491  16.365  1.1302  1.0304  0.7854
13980TIP3   OH263430   5.104   2.928  11.551  0.0783  0.1218  0.4877
13980TIP3    H163431   5.131   2.926  11.459 -0.5522  3.2091  0.1134
13980TIP3    H263432   5.184   2.911  11.600  1.1124  1.4064 -0.6583
13981TIP3   OH263433   5.228   6.245  14.672  0.5739 -0.3822  0.3305
13981TIP3    H163434   5.252   6.315  14.611  0.9090 -0.0518  0.8348
13981TIP3    H263435   5.169   6.287  14.735 -0.0345 -0.8012  0.0490
13982TIP3   OH263436   0.764   6.675   2.926 -0.6642 -0.3740  0.0644
13982TIP3    H163437   0.689   6.630   2.965 -0.2840 -0.7516  0.3768
13982TIP3    H263438   0.828   6.681   2.997 -1.5135  2.6351  0.6845
13983TIP3   OH263439   2.392   2.570   4.773  0.1422  0.1030 -0.1380
13983TIP3    H163440   2.483   2.588   4.751  0.5517 -1.0232  0.5706
13983TIP3    H263441   2.361   2.512   4.703  0.7809 -1.6525  0.9649
13984TIP3   OH263442   4.471   3.487  13.090  0.2192  0.4515  0.0475
13984TIP3    H163443   4.460   3.408  13.143  1.8270 -0.2412 -0.5645
13984TIP3    H263444   4.564   3.509  13.100 -0.7297  4.1330  2.7034
13985TIP3   OH263445   2.596   5.962   4.582  0.2111 -0.7310 -0.7702
13985TIP3    H163446   2.650   5.889   4.552  1.3252 -0.4315  0.4344
13985TIP3    H263447   2.657   6.036   4.589 -0.3597 -0.3640  0.5559
13986TIP3   OH263448   5.508   0.815  12.603 -0.0007 -0.2946 -0.2068
13986TIP3    H163449   5.574   0.879  12.632  0.5191 -0.6557 -0.5887
13986TIP3    H263450   5.517   0.742  12.664 -0.6326  0.0124  0.2629
13987TIP3   OH263451   3.128   0.158   1.958 -0.3176  0.5086 -0.1718
13987TIP3    H163452   3.064   0.133   1.891 -0.2806  1.6207 -0.6446
13987TIP3    H263453   3.089   0.128   2.040 -1.3839  1.0096 -0.4657
13988TIP3   OH263454   4.797   4.451   2.503  0.0333 -0.5315  0.5296
13988TIP3    H163455   4.869   4.395   2.473  0.6996  0.2968  0.5523
13988TIP3    H263456   4.754   4.400   2.572  1.8315 -0.2460  1.9208
13989TIP3   OH263457   2.856   4.901  13.320  0.1565  0.6085  0.8075
13989TIP3    H163458   2.763   4.880  13.312 -0.0396  1.3969  0.9479
13989TIP3    H263459   2.860   4.964  13.392  0.5392  2.0651 -0.4285
13990TIP3   OH263460   6.300   1.471  11.586 -0.4615 -0.4122 -0.0301
13990TIP3    H163461   6.339   1.383  11.583 -0.8215 -0.5841  0.2987
13990TIP3    H263462   6.222   1.465  11.531 -1.2632 -0.6914  1.1015
13991TIP3   OH263463   5.597   5.108   0.955  0.2419 -0.4258  0.3412
13991TIP3    H163464   5.596   5.037   1.020 -1.5251 -0.5678  0.2213
13991TIP3    H263465   5.555   5.070   0.878  3.1653 -0.5577 -1.2996
13992TIP3   OH263466   3.761   3.600  13.069 -0.3905  0.4790  0.3169
13992TIP3    H163467   3.762   3.552  13.151 -0.4229  1.3783  0.8576
13992TIP3    H263468   3.734   3.535  13.004 -0.7869 -0.1367  1.0764
13993TIP3   OH263469   1.061   2.247   5.101 -0.3434  0.0728  0.3150
13993TIP3    H163470   0.969   2.251   5.074 -0.8155 -0.8623  1.7214
13993TIP3    H263471   1.080   2.154   5.110  0.9283  0.2246 -0.4636
13994TIP3   OH263472   6.081   5.623  11.528 -0.1689 -0.0106  0.3125
13994TIP3    H163473   6.094   5.666  11.612  0.4874 -1.1905  0.8384
13994TIP3    H263474   6.145   5.662  11.470  0.6220 -0.4646  0.8657
13995TIP3   OH263475   2.622   0.630  16.653  0.4536 -0.6619 -0.3458
13995TIP3    H163476   2.713   0.658  16.645  0.1914  0.6278  0.7455
13995TIP3    H263477   2.608   0.621  16.748 -0.3399 -1.5965 -0.5319
13996TIP3   OH263478   2.932   5.344   2.285 -0.0974  0.0963 -0.0428
13996TIP3    H163479   2.908   5.266   2.335 -2.4502  0.3597 -0.6776
13996TIP3    H263480   2.960   5.310   2.200 -0.7136 -0.0930 -0.1734
13997TIP3   OH263481   6.159   5.995  13.402 -0.1716 -0.1284 -1.2994
13997TIP3    H163482   6.093   5.981  13.335 -0.5673 -0.3060 -0.8769
13997TIP3    H263483   6.170   5.909  13.443 -2.0979  0.5622  0.8448
13998TIP3   OH263484   6.276   4.438  17.004 -0.2561 -0.1756  0.0621
13998TIP3    H163485   6.304   4.357  17.046  0.9357 -1.1402 -2.4197
13998TIP3    H263486   6.357   4.490  16.998 -0.1710 -0.4508 -1.7580
13999TIP3   OH263487   2.601   4.045  15.326  0.2085 -0.3639 -0.4191
13999TIP3    H163488   2.549   4.122  15.350  1.8631 -0.0789  2.7646
13999TIP3    H263489   2.633   4.064  15.238 -0.9371  1.7211 -0.4388
14000TIP3   OH263490   1.068   2.934   1.131  0.1098  0.0399 -0.6474
14000TIP3    H163491   1.106   3.021   1.122  0.7152 -0.2321 -0.8576
14000TIP3    H263492   1.144   2.876   1.137 -0.2399 -0.6543 -2.2566
14001TIP3   OH263493   5.056   5.639  16.259 -0.4500  0.1884 -0.0615
14001TIP3    H163494   5.051   5.607  16.349  1.4546  0.6939  0.2649
14001TIP3    H263495   5.117   5.579  16.216 -1.6917 -0.3324 -1.1792
14002TIP3   OH263496   3.110   2.742   0.821 -0.2236  0.6884 -0.4174
14002TIP3    H163497   3.055   2.754   0.744 -1.5355  0.7263  0.4986
14002TIP3    H263498   3.154   2.826   0.833 -0.1415  0.7341 -1.0172
14003TIP3   OH263499   2.312   5.348  15.211  0.1795 -0.7610  0.2160
14003TIP3    H163500   2.321   5.378  15.121  0.0294  0.7079  0.6717
14003TIP3    H263501   2.264   5.266  15.204  2.0250 -1.8024 -1.1878
14004TIP3   OH263502   1.023   2.109  12.807  0.4190 -0.3000  0.1929
14004TIP3    H163503   1.059   2.183  12.856  2.6999 -1.7610  0.9006
14004TIP3    H263504   0.969   2.149  12.739  1.5102  2.0115  0.5856
14005TIP3   OH263505   0.208   2.188  11.675  0.2763 -0.2613 -0.5715
14005TIP3    H163506   0.259   2.149  11.604 -1.5824  0.5443 -2.4474
14005TIP3    H263507   0.242   2.277  11.684 -1.2542  0.5723 -2.4191
14006TIP3   OH263508   1.690   6.100   4.063 -0.8816 -0.2340  0.2035
14006TIP3    H163509   1.753   6.033   4.090 -0.7785  0.4135  1.6388
14006TIP3    H263510   1.742   6.162   4.012 -0.4431  0.0629  1.0038
14007TIP3   OH263511   2.054   4.041   1.517 -0.0911 -0.3606  0.0141
14007TIP3    H163512   1.988   4.056   1.585  0.1843  1.5504 -0.1035
14007TIP3    H263513   2.110   3.973   1.554 -0.2374  0.2886  1.5049
14008TIP3   OH263514   0.788   6.809  16.650 -0.1016  0.1224 -0.2122
14008TIP3    H163515   0.779   6.812  16.745  0.5902 -1.6655 -0.0567
14008TIP3    H263516   0.849   6.880  16.629 -1.4398  1.5194  0.4806
14009TIP3   OH263517   5.754   2.520  13.540 -0.2462  0.0133  0.1274
14009TIP3    H163518   5.800   2.529  13.623  0.0681  0.5933 -0.0988
14009TIP3    H263519   5.811   2.464  13.487  0.4044  1.0379 -0.2832
14010TIP3   OH263520   1.000   3.770  10.956  0.5472 -0.0716 -0.0837
14010TIP3    H163521   1.094   3.786  10.950  0.5638 -0.3416 -0.6054
14010TIP3    H263522   0.993   3.678  10.980  0.4211  0.1214  0.6475
14011TIP3   OH263523   3.376   3.912  15.918 -0.0163 -0.0711 -0.4052
14011TIP3    H163524   3.317   3.961  15.861 -0.3477 -1.0153 -0.8977
14011TIP3    H263525   3.342   3.823  15.917 -0.7584  0.1251  2.2967
14012TIP3   OH263526   0.995   6.101  12.316 -0.4023  0.2281  0.0902
14012TIP3    H163527   1.048   6.155  12.373  1.1657  0.3584 -1.4166
14012TIP3    H263528   1.003   6.013  12.352 -0.1411  0.4404  0.5570
14013TIP3   OH263529   3.057   3.499   5.908 -0.0517  0.5073  0.3252
14013TIP3    H163530   3.070   3.491   5.814 -2.5391  0.3455 -0.0640
14013TIP3    H263531   3.040   3.409   5.937 -0.1862  0.6766  0.7742
14014TIP3   OH263532   2.621   2.856  16.703 -0.8653  0.5216 -0.2413
14014TIP3    H163533   2.620   2.906  16.622 -0.0367 -2.6471 -2.4025
14014TIP3    H263534   2.542   2.801  16.698  0.0655 -0.9310  0.1798
14015TIP3   OH263535   2.359   4.272  15.613 -0.1528 -0.1331 -0.4232
14015TIP3    H163536   2.408   4.289  15.533  0.6228 -0.0104  0.0642
14015TIP3    H263537   2.424   4.283  15.683 -1.1416  1.2524  0.3210
14016TIP3   OH263538   6.306   0.883  13.817 -0.3491 -0.8552 -0.0542
14016TIP3    H163539   6.289   0.952  13.754  2.2439 -0.9925 -1.0001
14016TIP3    H263540   6.372   0.920  13.876  1.1687 -2.4868 -0.6481
14017TIP3   OH263541   6.645   0.225   0.586 -0.6246  0.1696  0.4692
14017TIP3    H163542   6.736   0.247   0.608 -0.7093 -0.0114  1.0384
14017TIP3    H263543   6.605   0.308   0.562 -0.3885  0.3011  0.5308
14018TIP3   OH263544   5.166   4.986  14.857  0.4385 -0.2018 -0.1229
14018TIP3    H163545   5.156   5.078  14.832  1.5017 -0.2991 -0.9852
14018TIP3    H263546   5.260   4.970  14.850  0.1604 -1.6090 -0.9014
14019TIP3   OH263547   5.954   2.406  16.888 -0.0864 -0.3114  0.0179
14019TIP3    H163548   5.899   2.477  16.920 -0.8149 -0.6416 -0.4897
14019TIP3    H263549   6.022   2.397  16.955  1.5568  2.5463 -1.1078
14020TIP3   OH263550   4.495   6.088  14.886  0.5969  0.2731  0.2004
14020TIP3    H163551   4.514   6.176  14.852  0.6190  0.0357 -0.3981
14020TIP3    H263552   4.415   6.100  14.937  0.8679  0.7383  0.5320
14021TIP3   OH263553   2.297   4.348   3.411  0.0491  0.0555  0.6485
14021TIP3    H163554   2.316   4.264   3.454  1.6720  0.6989  1.2673
14021TIP3    H263555   2.371   4.361   3.352  0.3487  1.5375  1.3209
14022TIP3   OH263556   6.494   1.872   3.907  0.3117 -0.1218  0.1915
14022TIP3    H163557   6.401   1.890   3.917 -0.2037 -0.8603 -2.3444
14022TIP3    H263558   6.507   1.789   3.952 -0.4026 -0.3008  0.0843
14023TIP3   OH263559   3.866   1.024  11.819 -0.4542 -0.1525  0.2288
14023TIP3    H163560   3.824   1.074  11.889  0.7566  1.0067  0.1649
14023TIP3    H263561   3.921   1.088  11.773  1.7811 -1.6623  0.6304
14024TIP3   OH263562   1.800   5.535  16.566 -0.1982  0.3961 -0.1313
14024TIP3    H163563   1.779   5.455  16.517 -1.1801 -0.0931  1.0474
14024TIP3    H263564   1.720   5.555  16.614  0.4115  1.4588  0.4659
14025TIP3   OH263565   0.342   3.473   2.816  0.4006  0.0317 -0.7351
14025TIP3    H163566   0.377   3.455   2.729 -1.3765 -0.3189 -1.4245
14025TIP3    H263567   0.274   3.539   2.801 -0.6607 -0.8124  0.2141
14026TIP3   OH263568   0.312   6.095  13.452 -0.4039 -0.8290  0.1212
14026TIP3    H163569   0.273   6.121  13.535 -1.3643 -0.9292 -0.2782
14026TIP3    H263570   0.406   6.108  13.464 -0.6915  1.3746  0.4485
14027TIP3   OH263571   6.295   2.073   2.704 -0.4756  0.0958  0.3226
14027TIP3    H163572   6.361   2.129   2.745 -0.5746 -0.0333  0.6575
14027TIP3    H263573   6.227   2.135   2.675  1.3395  0.7005 -3.1978
14028TIP3   OH263574   3.036   3.347   2.510  0.2021 -0.0005  0.1922
14028TIP3    H163575   3.086   3.378   2.585  0.7158 -2.1689  0.8378
14028TIP3    H263576   2.993   3.266   2.541 -0.3122 -0.4636 -1.5707
14029TIP3   OH263577   4.762   0.874   5.052  0.3386 -0.1023  0.3243
14029TIP3    H163578   4.808   0.831   4.980  0.7423 -1.3034  1.2561
14029TIP3    H263579   4.816   0.854   5.129  2.1863  4.4566  0.5180
14030TIP3   OH263580   0.268   5.686   2.598 -0.6847  0.4436  0.6882
14030TIP3    H163581   0.268   5.604   2.549  1.1351  0.4942  0.5319
14030TIP3    H263582   0.245   5.661   2.687  1.8068 -0.6276  1.1153
14031TIP3   OH263583   0.993   2.356   4.651 -0.5597  0.3514 -0.3054
14031TIP3    H163584   0.980   2.285   4.714 -2.1985 -1.3430 -2.3863
14031TIP3    H263585   1.067   2.327   4.598  0.3021  1.3986  0.2657
14032TIP3   OH263586   6.794   4.585   1.371 -0.0825  0.1548  0.7776
14032TIP3    H163587   6.835   4.666   1.341  0.7850 -0.0894  1.2539
14032TIP3    H263588   6.735   4.560   1.300 -0.1289  1.0380  0.4958
14033TIP3   OH263589   4.003   0.059  16.502  0.0029 -0.2703 -0.0358
14033TIP3    H163590   4.046   0.134  16.542 -0.9853  1.9156 -2.7000
14033TIP3    H263591   4.072   0.013  16.455  0.5560 -0.9269  1.3555
14034TIP3   OH263592   1.749   6.315  16.351  0.5491 -0.1253 -0.2722
14034TIP3    H163593   1.657   6.298  16.329  0.6720 -0.0353 -0.8823
14034TIP3    H263594   1.784   6.230  16.376  0.2995 -0.1575 -0.0200
14035TIP3   OH263595   1.775   1.149  14.682 -0.0028 -0.2657 -0.0538
14035TIP3    H163596   1.725   1.160  14.601 -0.3518  1.6941  0.3914
14035TIP3    H263597   1.734   1.208  14.745  1.0429 -0.8162  1.2028
14036TIP3   OH263598   2.754   5.148   3.008  0.4470  0.6864 -0.1582
14036TIP3    H163599   2.752   5.114   2.919  0.0650  0.2912 -0.0022
14036TIP3    H263600   2.796   5.079   3.059  0.6645  0.9106 -0.0303
14037TIP3   OH263601   3.080   5.348  10.841 -0.1960  0.0182 -0.5967
14037TIP3    H163602   3.108   5.388  10.923  1.3681 -0.4064 -0.9003
14037TIP3    H263603   3.123   5.400  10.773  1.3388 -1.7066 -1.0149
14038TIP3   OH263604   6.175   4.137   1.583  0.2286  0.0064 -0.6042
14038TIP3    H163605   6.201   4.193   1.509 -1.3540 -0.5614 -1.6407
14038TIP3    H263606   6.157   4.052   1.544  0.3328 -0.5952  0.6080
14039TIP3   OH263607   2.396   1.766  15.665  0.8050  0.3850 -0.0810
14039TIP3    H163608   2.309   1.729  15.648  0.5290  1.3060 -0.7856
14039TIP3    H263609   2.415   1.742  15.756 -0.1839  0.1683  0.0803
14040TIP3   OH263610   0.379   4.358   6.745  0.0854  0.0800 -0.2481
14040TIP3    H163611   0.399   4.266   6.731 -1.1671  0.0166 -1.9552
14040TIP3    H263612   0.304   4.357   6.805 -0.1836 -0.0458 -0.5810
14041TIP3   OH263613   6.811   1.268   4.213 -0.4748 -0.0710 -0.1564
14041TIP3    H163614   6.866   1.252   4.136 -1.4221 -0.8006 -0.7127
14041TIP3    H263615   6.833   1.197   4.273  0.3368  0.5553  0.3015
14042TIP3   OH263616   5.128   0.912   2.008  1.0122  0.3581  0.4780
14042TIP3    H163617   5.209   0.940   1.965  0.1972 -0.7517 -1.9360
14042TIP3    H263618   5.062   0.975   1.981  0.4869 -0.3291  0.1126
14043TIP3   OH263619   4.382   3.047  16.635  0.1470  0.3456  0.2114
14043TIP3    H163620   4.347   2.975  16.583  0.2355  1.3575 -1.3066
14043TIP3    H263621   4.450   3.086  16.580  0.0029  1.6780  0.9280
14044TIP3   OH263622   3.810   0.430  15.329 -0.2759  0.8391  0.2573
14044TIP3    H163623   3.876   0.436  15.398 -1.1775 -2.1766  1.5560
14044TIP3    H263624   3.853   0.384  15.258 -0.9326 -1.3534  1.2020
14045TIP3   OH263625   1.045   2.882  14.537 -0.5422 -0.0989  0.3658
14045TIP3    H163626   1.050   2.860  14.444  0.1258  0.9002  0.1566
14045TIP3    H263627   1.112   2.949  14.550 -0.9053  0.0691  1.4844
14046TIP3   OH263628   3.480   4.173   1.157 -0.0599  0.1761 -0.4125
14046TIP3    H163629   3.407   4.225   1.123  0.5674  1.0557 -0.4375
14046TIP3    H263630   3.475   4.091   1.108 -1.0557  0.2060 -0.3848
14047TIP3   OH263631   6.130   3.194  11.884 -0.4128  0.0766  0.1813
14047TIP3    H163632   6.118   3.104  11.914 -2.6091  0.1755 -0.2590
14047TIP3    H263633   6.138   3.245  11.964  0.9685 -0.4907  0.4339
14048TIP3   OH263634   2.018   3.956   0.754  0.0844 -0.0544  0.7865
14048TIP3    H163635   2.040   3.870   0.790 -1.5154 -0.7621  0.1797
14048TIP3    H263636   1.973   4.001   0.825 -1.3205 -0.7106  0.3610
14049TIP3   OH263637   3.269   0.007   2.184 -0.5263 -0.4134 -0.1443
14049TIP3    H163638   3.313   0.079   2.230 -0.8052 -0.4785  0.2295
14049TIP3    H263639   3.304   0.011   2.095  0.7331 -0.8776  0.3020
14050TIP3   OH263640   4.565   0.616  12.847  0.1298 -0.3511  0.7008
14050TIP3    H163641   4.588   0.709  12.847  0.8426 -0.4950 -0.9480
14050TIP3    H263642   4.528   0.600  12.760  1.5328 -1.9370  0.3228
14051TIP3   OH263643   2.573   1.914   1.170  0.8203  0.2610  0.1803
14051TIP3    H163644   2.658   1.932   1.130  0.9062  0.4795  0.4559
14051TIP3    H263645   2.562   1.985   1.234  0.0764  0.6927 -0.4085
14052TIP3   OH263646   4.637   5.272  13.684  0.5291 -0.6563  0.1698
14052TIP3    H163647   4.700   5.200  13.694 -1.1794 -2.4420 -1.3066
14052TIP3    H263648   4.644   5.297  13.592  0.9689  1.0346  0.6168
14053TIP3   OH263649   4.279   1.484  12.756 -0.6904  0.0558  0.4535
14053TIP3    H163650   4.363   1.452  12.724  0.3383  1.6489  1.4338
14053TIP3    H263651   4.227   1.405  12.770  0.9601 -1.0318  0.6919
14054TIP3   OH263652   6.850   5.609  13.254  0.0325  0.3823 -0.0420
14054TIP3    H163653   6.908   5.683  13.274  1.4989 -0.4308 -1.0605
14054TIP3    H263654   6.784   5.610  13.323  2.1123  0.4745  2.0489
14055TIP3   OH263655   6.641   4.688  13.694 -0.4243  0.0723 -0.0125
14055TIP3    H163656   6.577   4.626  13.657  0.1347 -0.9547  0.6790
14055TIP3    H263657   6.619   4.692  13.787  0.7305 -0.5965  0.3120
14056TIP3   OH263658   3.285   3.910  14.834 -0.0102 -0.6227 -0.0457
14056TIP3    H163659   3.305   3.991  14.787 -1.8843 -0.3966 -0.5294
14056TIP3    H263660   3.296   3.841  14.768  0.9650 -0.7143  0.1985
14057TIP3   OH263661   3.877   2.097  16.880 -0.7314 -0.1089  0.0718
14057TIP3    H163662   3.782   2.085  16.874 -1.0241  0.5693  2.5784
14057TIP3    H263663   3.904   2.045  16.955  1.2205 -1.6309 -1.5439
14058TIP3   OH263664   2.796   0.994   2.625  0.5807  0.1702  0.1845
14058TIP3    H163665   2.747   1.043   2.559  0.5443 -1.0676 -0.7626
14058TIP3    H263666   2.736   0.988   2.699  1.1524  2.8212  0.9610
14059TIP3   OH263667   1.843   0.877  14.603  0.5128 -0.2898 -0.2473
14059TIP3    H163668   1.935   0.899  14.591  0.3769  1.0243  0.8613
14059TIP3    H263669   1.808   0.949  14.655 -1.1347 -0.7987 -0.6039
14060TIP3   OH263670   6.153   3.718  10.866 -0.0318  0.7261  0.7318
14060TIP3    H163671   6.190   3.761  10.789  1.0231  1.8402  1.8175
14060TIP3    H263672   6.089   3.656  10.831  1.5330  0.0703 -1.1211
14061TIP3   OH263673   0.666   3.421   3.997  0.1255  0.2237  0.9616
14061TIP3    H163674   0.735   3.478   3.964  0.7237 -1.6259 -1.2584
14061TIP3    H263675   0.708   3.335   4.005 -1.2729 -0.3937  2.1506
14062TIP3   OH263676   5.902   3.964   4.148 -0.4961 -0.7332 -0.0125
14062TIP3    H163677   5.883   3.930   4.236 -1.3177  0.1749  0.1671
14062TIP3    H263678   5.887   3.889   4.090 -0.8922 -1.0712  0.5162
14063TIP3   OH263679   2.036   2.717   3.815 -0.2095 -0.3249  0.4760
14063TIP3    H163680   2.020   2.624   3.831  0.1085 -1.0109 -2.5957
14063TIP3    H263681   1.955   2.761   3.842 -0.9001 -1.6827  0.6603
14064TIP3   OH263682   6.638   4.229   2.976 -0.3468 -0.4802 -0.4784
14064TIP3    H163683   6.671   4.181   3.052  0.2278  0.3242 -0.2092
14064TIP3    H263684   6.552   4.191   2.959 -1.0787  0.2307  1.3999
14065TIP3   OH263685   4.562   0.121  10.376  0.3433  0.2444  0.5011
14065TIP3    H163686   4.629   0.175  10.334 -0.4611 -0.6931 -2.1985
14065TIP3    H263687   4.612   0.053  10.421  1.2710  1.7521  1.8541
14066TIP3   OH263688   3.963   6.366  11.278 -0.0152 -0.1999  0.1188
14066TIP3    H163689   4.045   6.402  11.310 -0.8299  0.8311  1.1558
14066TIP3    H263690   3.896   6.428  11.308 -1.1291 -0.7587 -1.0989
14067TIP3   OH263691   4.173   5.978   3.217 -0.1326 -0.0763  0.1100
14067TIP3    H163692   4.168   5.948   3.127 -0.5004  2.4465 -0.7973
14067TIP3    H263693   4.243   6.043   3.217  0.5785 -0.7607  1.9194
14068TIP3   OH263694   3.258   0.866   2.554 -0.0751 -0.3535  0.4058
14068TIP3    H163695   3.246   0.959   2.534 -1.1976 -0.6829 -0.5680
14068TIP3    H263696   3.243   0.860   2.648 -0.2162  0.4197  0.4411
14069TIP3   OH263697   1.077   2.907   0.786 -0.1001  0.2795  0.1372
14069TIP3    H163698   1.018   2.962   0.733 -0.7434  0.6854  1.2497
14069TIP3    H263699   1.019   2.845   0.831  0.6109 -1.3869 -1.1163
14070TIP3   OH263700   4.025   4.280   5.188  0.1136 -0.4917  0.6070
14070TIP3    H163701   3.965   4.303   5.259  1.3827 -1.0238  1.9085
14070TIP3    H263702   3.988   4.322   5.110 -2.0588 -1.0373  1.2991
14071TIP3   OH263703   0.453   6.316  11.626  0.0496 -0.3720 -0.2972
14071TIP3    H163704   0.405   6.368  11.561  1.2393 -0.3568 -1.1912
14071TIP3    H263705   0.450   6.369  11.706 -0.6092  0.0584 -0.5977
14072TIP3   OH263706   3.711   1.188   3.915 -0.1925 -0.0693  0.3355
14072TIP3    H163707   3.627   1.147   3.895  0.0889 -1.2112  1.3820
14072TIP3    H263708   3.757   1.124   3.970  1.7730  0.1039 -1.0091
14073TIP3   OH263709   2.785   4.246   0.952  0.5071  0.2479 -0.3186
14073TIP3    H163710   2.712   4.186   0.967  1.1762 -0.8015 -1.0872
14073TIP3    H263711   2.839   4.202   0.886  1.4908  1.2969 -0.2486
14074TIP3   OH263712   0.740   4.265   2.245  0.3359 -0.0665  0.1554
14074TIP3    H163713   0.780   4.189   2.289  0.4577 -1.8833 -2.8169
14074TIP3    H263714   0.703   4.229   2.165 -0.9340  2.8354 -0.6862
14075TIP3   OH263715   5.408   1.489   4.726 -0.1116  0.4197 -0.2396
14075TIP3    H163716   5.451   1.416   4.682  0.2396  1.0006 -0.8835
14075TIP3    H263717   5.453   1.495   4.811  0.9777  0.8896 -0.8241
14076TIP3   OH263718   5.305   5.089   2.591 -0.0518  0.0915 -0.0436
14076TIP3    H163719   5.279   5.060   2.679  2.1167 -0.4898  0.4742
14076TIP3    H263720   5.290   5.014   2.535  0.4269 -0.2090  0.2275
14077TIP3   OH263721   3.029   4.577   3.930  0.4735 -0.1876 -0.7558
14077TIP3    H163722   3.109   4.567   3.982  1.9478 -1.3404 -3.0725
14077TIP3    H263723   2.995   4.663   3.955  2.6817  0.5497  0.0122
14078TIP3   OH263724   1.016   0.236  11.486 -0.1548  0.9231  0.0578
14078TIP3    H163725   1.083   0.188  11.533 -0.0381 -0.0363 -1.0497
14078TIP3    H263726   0.940   0.178  11.485 -0.0625  0.7891 -1.1549
14079TIP3   OH263727   1.791   1.514   5.107  0.2505 -0.9930  0.3881
14079TIP3    H163728   1.716   1.541   5.158  0.2676  0.4352 -0.2953
14079TIP3    H263729   1.753   1.472   5.029  0.1961 -1.3185  0.5859
14080TIP3   OH263730   4.894   3.857   2.510 -0.2794  0.0737  0.1737
14080TIP3    H163731   4.960   3.899   2.565 -0.2859  0.5785 -0.2011
14080TIP3    H263732   4.811   3.878   2.554 -0.3483  1.1346 -0.4394
14081TIP3   OH263733   5.849   2.949   2.494  0.1756 -0.1815  0.0781
14081TIP3    H163734   5.781   3.017   2.491 -0.5323 -0.7952  1.3757
14081TIP3    H263735   5.815   2.884   2.555 -0.1067 -2.7715 -2.6012
14082TIP3   OH263736   5.833   6.477   3.600 -0.2601  0.2839  0.3203
14082TIP3    H163737   5.797   6.416   3.536 -2.0343 -0.4431  1.9207
14082TIP3    H263738   5.919   6.440   3.622 -0.1980 -0.1702 -0.6418
14083TIP3   OH263739   5.699   2.871  13.360  0.3632  0.4113 -0.1060
14083TIP3    H163740   5.738   2.955  13.335 -1.5399  1.0886 -1.0789
14083TIP3    H263741   5.694   2.874  13.455  0.7359  1.2113 -0.1013
14084TIP3   OH263742   0.147   0.037   6.102  0.3911  0.0015  0.5288
14084TIP3    H163743   0.056   0.066   6.097  0.3865 -0.2311 -2.5017
14084TIP3    H263744   0.143  -0.058   6.086  1.2502  0.3716 -2.6304
14085TIP3   OH263745   2.801   3.358  11.096  0.4543 -0.2481  0.6676
14085TIP3    H163746   2.845   3.435  11.060 -0.0491  0.1403  0.8654
14085TIP3    H263747   2.788   3.300  11.020  1.3799 -0.4214  0.6241
14086TIP3   OH263748   2.015   4.481   1.604  0.2146  0.1343 -0.0376
14086TIP3    H163749   1.997   4.458   1.513 -3.1024  0.1913  0.4841
14086TIP3    H263750   2.009   4.577   1.606  1.8503  0.2741  0.0351
14087TIP3   OH263751   2.808   0.333   5.759  0.1971 -0.7663  0.2914
14087TIP3    H163752   2.866   0.303   5.829 -0.5707  0.8494  1.6917
14087TIP3    H263753   2.812   0.429   5.765 -1.0491 -0.6164 -0.9069
14088TIP3   OH263754   2.278   6.089  11.938  0.2744  0.2725 -0.0699
14088TIP3    H163755   2.228   6.150  11.884 -1.5183 -1.9030 -1.0624
14088TIP3    H263756   2.255   6.111  12.028 -1.6218  0.1127 -0.4691
14089TIP3   OH263757   0.382   5.472   5.929 -0.0222 -0.4044 -0.4765
14089TIP3    H163758   0.393   5.546   5.871 -0.1721  2.0323  2.3755
14089TIP3    H263759   0.461   5.419   5.916  0.0262  0.1337 -2.6568
14090TIP3   OH263760   6.766   4.691  14.465  0.1278 -0.2493  0.5534
14090TIP3    H163761   6.671   4.694  14.463  0.0464 -2.1235 -0.5191
14090TIP3    H263762   6.791   4.644  14.385  2.0653  1.7531 -0.1397
14091TIP3   OH263763   2.019   2.903  12.978  0.1329 -0.6833  0.1732
14091TIP3    H163764   1.956   2.929  13.045 -0.6942 -0.1825 -0.7724
14091TIP3    H263765   2.100   2.947  13.003 -1.1911  3.1286 -1.3910
14092TIP3   OH263766   0.621   6.461  14.710  0.3261  0.2940  0.4022
14092TIP3    H163767   0.635   6.496  14.798  1.6422  0.0654  0.3038
14092TIP3    H263768   0.709   6.435  14.680 -0.5419 -3.7510  0.7557
14093TIP3   OH263769   1.636   4.852  14.518 -0.5446  0.0753 -0.5990
14093TIP3    H163770   1.618   4.909  14.593  0.3790 -0.4864  0.0736
14093TIP3    H263771   1.555   4.852  14.468 -1.1786  0.4873  0.3886
14094TIP3   OH263772   3.453   5.618   2.080  0.3630 -0.0641  0.1946
14094TIP3    H163773   3.462   5.558   2.154 -2.2596 -0.0486  0.5947
14094TIP3    H263774   3.386   5.579   2.024  1.0986  0.7749 -1.3395
14095TIP3   OH263775   2.234   2.824   0.873  0.3309  0.2310  0.4713
14095TIP3    H163776   2.305   2.784   0.823 -0.2168 -0.1128 -0.0458
14095TIP3    H263777   2.205   2.898   0.818  0.4057  0.4760  0.7617
14096TIP3   OH263778   0.403   6.441   3.348  0.5121 -0.1999  0.4893
14096TIP3    H163779   0.378   6.388   3.272 -0.3507  0.8849 -0.0039
14096TIP3    H263780   0.443   6.378   3.409  0.6898 -1.1849 -0.6072
14097TIP3   OH263781   0.186   3.689  12.082 -0.0080 -0.6506  0.6296
14097TIP3    H163782   0.249   3.757  12.105  0.7121 -1.1086  0.0517
14097TIP3    H263783   0.101   3.726  12.107  0.3555  0.5000  0.2233
14098TIP3   OH263784   0.183   5.442  16.869 -0.3229  0.4827 -0.1313
14098TIP3    H163785   0.164   5.482  16.954  0.8961 -2.5430  1.7244
14098TIP3    H263786   0.100   5.400  16.843 -0.1189 -0.4865  0.7336
14099TIP3   OH263787   3.976   5.121  14.337  0.8143 -0.1880 -0.4317
14099TIP3    H163788   3.896   5.171  14.353 -0.1056 -2.0651  1.3436
14099TIP3    H263789   4.017   5.165  14.263 -1.8831  0.8118 -1.4624
14100TIP3   OH263790   3.327   4.466   6.019  0.4580  0.3248 -0.0232
14100TIP3    H163791   3.267   4.533   6.053 -0.1649 -0.5598  0.6604
14100TIP3    H263792   3.335   4.403   6.090 -0.0927 -1.0702 -1.1549
14101TIP3   OH263793   0.598   1.427  13.050 -0.3103 -0.0260  0.1601
14101TIP3    H163794   0.673   1.482  13.072 -0.6848  1.3621 -1.6951
14101TIP3    H263795   0.543   1.429  13.129  0.2778  1.2910  0.5713
14102TIP3   OH263796   5.651   1.177   0.589 -0.2390 -0.4299  0.5005
14102TIP3    H163797   5.577   1.147   0.641  0.4541 -0.2601  1.6169
14102TIP3    H263798   5.719   1.110   0.603 -0.7599 -1.6414 -2.0485
14103TIP3   OH263799   3.976   4.087  11.672  0.3505  0.2024  0.4515
14103TIP3    H163800   4.072   4.095  11.675  0.4396 -0.8402  0.8465
14103TIP3    H263801   3.960   3.994  11.683 -0.7654  0.5144  1.7001
14104TIP3   OH263802   0.897   3.668  13.346 -0.3428  0.9914 -0.4289
14104TIP3    H163803   0.885   3.635  13.257 -0.2805  1.4351 -0.6013
14104TIP3    H263804   0.990   3.653  13.364 -0.4644  0.4204 -0.2383
14105TIP3   OH263805   4.808   3.109   6.168  0.2286  0.7612  0.0789
14105TIP3    H163806   4.744   3.178   6.149 -0.3923  0.3634  0.6844
14105TIP3    H263807   4.803   3.051   6.092 -0.2981  0.6069  0.2313
14106TIP3   OH263808   1.586   4.128  15.245 -0.4066 -0.3858 -0.2594
14106TIP3    H163809   1.619   4.054  15.295 -0.3754 -0.4832 -0.4235
14106TIP3    H263810   1.595   4.101  15.154  0.8087  0.3169 -0.3730
14107TIP3   OH263811   6.290   3.133   1.153 -0.3143  0.9800 -0.1434
14107TIP3    H163812   6.228   3.061   1.147 -0.6856  1.2378  0.4592
14107TIP3    H263813   6.276   3.183   1.073 -1.1676  1.2413  0.1497
14108TIP3   OH263814   6.258   0.476   0.283  0.2240 -0.1747  0.1255
14108TIP3    H163815   6.197   0.440   0.347  1.2037 -1.9375  0.1228
14108TIP3    H263816   6.289   0.558   0.322 -0.1733 -0.5788  1.3152
14109TIP3   OH263817   3.667   6.173   3.537  0.5291 -0.1329  0.6299
14109TIP3    H163818   3.588   6.137   3.497  0.1635  0.1199  1.1227
14109TIP3    H263819   3.681   6.120   3.615  0.5526  0.1564  0.8218
14110TIP3   OH263820   3.306   5.571   5.711  0.0285  0.1997 -0.1716
14110TIP3    H163821   3.368   5.643   5.713  1.7234 -1.2035  1.4748
14110TIP3    H263822   3.248   5.588   5.785 -0.5302  0.6258 -0.6945
14111TIP3   OH263823   3.832   4.641  16.333  0.3293  0.0604 -0.2587
14111TIP3    H163824   3.760   4.697  16.359 -2.2888 -2.3983 -1.6066
14111TIP3    H263825   3.814   4.619  16.242  2.3469 -1.3118 -0.4042
14112TIP3   OH263826   4.620   5.806   2.302 -0.0678 -0.1730  0.1024
14112TIP3    H163827   4.585   5.830   2.388 -1.7618  0.1503 -0.6447
14112TIP3    H263828   4.694   5.749   2.322  0.5676  1.1441  1.8063
14113TIP3   OH263829   3.297   5.573  14.752  0.1206 -0.1160  0.3658
14113TIP3    H163830   3.208   5.549  14.723  0.3690  0.4853 -0.9770
14113TIP3    H263831   3.319   5.506  14.817 -0.5050 -1.5675 -0.8256
14114TIP3   OH263832   5.335   6.657   1.446  0.0566  0.5238 -1.1253
14114TIP3    H163833   5.242   6.681   1.443  0.1252  1.0483  0.0394
14114TIP3    H263834   5.366   6.667   1.356 -1.0839  0.0516 -1.5794
14115TIP3   OH263835   6.633   6.431   2.586  0.6096  0.6003 -0.0826
14115TIP3    H163836   6.683   6.441   2.505  0.7112  1.1291  0.0374
14115TIP3    H263837   6.611   6.338   2.590 -1.8776  0.9993 -2.1708
14116TIP3   OH263838   5.391   3.418  16.493  0.0109 -0.3227 -0.1061
14116TIP3    H163839   5.300   3.407  16.522  0.6960 -0.0349  2.4762
14116TIP3    H263840   5.420   3.498  16.537  1.2931  0.0199 -1.5201
14117TIP3   OH263841   2.725   3.613  14.670 -0.1327  0.3527 -0.2639
14117TIP3    H163842   2.631   3.619  14.651  0.0469  0.6649 -1.1025
14117TIP3    H263843   2.731   3.553  14.744 -0.6941 -3.0412 -2.7320
14118TIP3   OH263844   2.406   3.245  10.498 -0.8963 -0.6224  0.3822
14118TIP3    H163845   2.323   3.280  10.467 -0.3884 -1.1700 -1.7269
14118TIP3    H263846   2.391   3.151  10.508 -0.0751 -1.0425 -1.8446
14119TIP3   OH263847   3.928   3.986  15.962  0.0812 -0.0117  0.1927
14119TIP3    H163848   3.897   3.954  15.877  0.7273 -1.9482  0.6398
14119TIP3    H263849   3.954   4.077  15.945 -0.9773  0.0409 -1.3652
14120TIP3   OH263850   1.519   1.935  12.524  0.5873  0.1569  0.7480
14120TIP3    H163851   1.591   1.956  12.464 -0.1210 -1.6071 -0.8360
14120TIP3    H263852   1.486   2.020  12.553  1.5750  1.0542 -0.6302
14121TIP3   OH263853   6.645   4.265   6.213  0.2866  0.4167  0.4116
14121TIP3    H163854   6.632   4.203   6.285 -0.1142 -0.7168 -0.6180
14121TIP3    H263855   6.709   4.222   6.156 -1.1200  0.2458 -1.0877
14122TIP3   OH263856   1.956   6.042   6.107  0.6028 -0.4163 -0.2360
14122TIP3    H163857   2.011   6.110   6.068 -0.0466  0.2427 -0.0281
14122TIP3    H263858   1.993   5.960   6.075  0.5292  0.0730 -1.6620
14123TIP3   OH263859   6.324   1.777  14.663 -0.0373 -1.1171  0.7233
14123TIP3    H163860   6.415   1.799  14.642 -0.5543  0.0769 -0.4005
14123TIP3    H263861   6.329   1.691  14.704  1.4745 -1.6547 -0.5009
14124TIP3   OH263862   1.588   0.518  13.550 -0.2084  0.2532  0.1781
14124TIP3    H163863   1.652   0.475  13.607 -0.6841 -1.5567 -0.6113
14124TIP3    H263864   1.606   0.484  13.463  0.0981  2.5216 -0.7214
14125TIP3   OH263865   0.085   3.184   2.966 -0.9001 -0.2141  0.1592
14125TIP3    H163866   0.165   3.229   2.993 -1.2205 -0.4143  1.5360
14125TIP3    H263867   0.075   3.205   2.874  0.6391 -0.0381  0.0171
14126TIP3   OH263868   0.613   4.336  14.203  0.4327 -0.0519 -0.4114
14126TIP3    H163869   0.627   4.352  14.110 -0.4618  0.3430 -0.4821
14126TIP3    H263870   0.565   4.254  14.207 -1.1048  0.8123 -0.4085
14127TIP3   OH263871   3.827   6.329  16.911 -0.2311  0.1904  0.0417
14127TIP3    H163872   3.765   6.304  16.843 -0.8300  0.8416  0.3404
14127TIP3    H263873   3.797   6.414  16.941  1.6202  1.1883 -0.7788
14128TIP3   OH263874   0.311   2.363   5.616  0.0727  0.3455  0.3228
14128TIP3    H163875   0.384   2.322   5.570 -0.9952 -0.5530 -0.6624
14128TIP3    H263876   0.286   2.299   5.683 -1.2812 -0.4943 -0.8976
14129TIP3   OH263877   6.236   1.811   6.390 -0.3514  0.5730 -0.5216
14129TIP3    H163878   6.164   1.872   6.403 -0.4415  0.4187 -0.2839
14129TIP3    H263879   6.199   1.726   6.415  0.2900  0.6743  0.8335
14130TIP3   OH263880   3.618   5.519  12.620 -0.3740  0.2785 -0.4486
14130TIP3    H163881   3.537   5.570  12.618 -0.9345 -0.5138  0.6016
14130TIP3    H263882   3.679   5.568  12.566 -1.1803  1.5421 -0.2608
14131TIP3   OH263883   6.272   3.471  16.413 -0.4591 -0.0672 -0.0064
14131TIP3    H163884   6.206   3.541  16.419  0.8781  1.3057 -0.6722
14131TIP3    H263885   6.224   3.391  16.434 -1.6311  1.2653  2.9251
14132TIP3   OH263886   5.466   4.249   2.332  0.2987 -0.0625  0.1805
14132TIP3    H163887   5.502   4.226   2.246 -1.4982  1.0499 -0.9274
14132TIP3    H263888   5.532   4.306   2.370  1.0404 -0.4142 -0.5279
14133TIP3   OH263889   6.687   1.845  16.008  0.8761  0.1844  0.0672
14133TIP3    H163890   6.763   1.897  15.982  1.4494 -1.4411 -1.7825
14133TIP3    H263891   6.665   1.795  15.929 -1.3360 -0.3303  0.9474
14134TIP3   OH263892   0.239   1.012  14.056  0.0366  0.0348  0.1289
14134TIP3    H163893   0.209   1.084  14.111 -2.0336 -0.3462 -0.4049
14134TIP3    H263894   0.159   0.967  14.030  1.2307 -2.0489 -0.1284
14135TIP3   OH263895   5.718   2.370   1.124 -0.3762 -0.0256 -0.5105
14135TIP3    H163896   5.718   2.334   1.213 -0.6263  1.5040  0.1320
14135TIP3    H263897   5.692   2.461   1.135  1.3723  0.7055 -1.9401
14136TIP3   OH263898   5.326   0.914   2.959 -0.0023  0.3188  0.3267
14136TIP3    H163899   5.352   0.854   2.888  0.2858 -1.6260  1.9879
14136TIP3    H263900   5.395   0.905   3.024 -1.6445 -0.1187  2.0918
14137TIP3   OH263901   6.096   0.905   2.665 -0.6692  0.1221  0.0334
14137TIP3    H163902   6.137   0.991   2.673 -2.2656  0.9757 -0.4254
14137TIP3    H263903   6.106   0.865   2.751 -2.7161  2.1259  1.3222
14138TIP3   OH263904   4.593   2.231  16.729 -0.0262  0.0963 -0.0749
14138TIP3    H163905   4.521   2.199  16.675 -1.2364  0.6959  1.1256
14138TIP3    H263906   4.562   2.316  16.762  1.5028  0.6680 -0.0462
14139TIP3   OH263907   3.910   0.907   0.922 -0.3742 -0.0674  0.2315
14139TIP3    H163908   3.878   0.997   0.930  0.5758  0.2863  0.1709
14139TIP3    H263909   3.864   0.872   0.846 -0.7617  0.3616  0.2622
14140TIP3   OH263910   1.014   6.169  11.719 -0.0567 -0.5953 -0.7519
14140TIP3    H163911   1.072   6.175  11.643  1.4493 -0.0116  0.3787
14140TIP3    H263912   1.057   6.222  11.786 -2.3929  0.6157 -0.1200
14141TIP3   OH263913   5.540   6.533  16.617 -0.4372 -0.5853 -0.5306
14141TIP3    H163914   5.577   6.547  16.530  0.7349 -1.5843 -0.2219
14141TIP3    H263915   5.455   6.491  16.601 -0.9830  0.7067 -1.2177
14142TIP3   OH263916   6.292   5.755  16.970  0.2480  0.1944 -0.1030
14142TIP3    H163917   6.383   5.786  16.972 -0.7255  3.5145  2.7581
14142TIP3    H263918   6.257   5.793  16.889  0.7909  1.1159  0.0727
14143TIP3   OH263919   3.212   3.265   3.977  0.5648  0.5086 -0.1916
14143TIP3    H163920   3.257   3.193   4.021 -1.4530 -0.1918  0.8284
14143TIP3    H263921   3.168   3.224   3.903 -1.3870  0.4581  0.9456
14144TIP3   OH263922   1.221   0.971   4.393 -0.3995 -0.7488  0.3417
14144TIP3    H163923   1.278   0.931   4.328  2.5377  1.7509  1.1502
14144TIP3    H263924   1.228   0.913   4.470  0.6615 -0.7921  0.2333
14145TIP3   OH263925   3.031   1.955  11.431  0.5458 -0.2151 -0.3096
14145TIP3    H163926   2.969   2.028  11.439  1.6029  0.9799 -2.0948
14145TIP3    H263927   2.996   1.902  11.359  1.1764  0.0455 -0.8176
14146TIP3   OH263928   1.732   1.505   4.827  0.1628  0.3657  0.0334
14146TIP3    H163929   1.752   1.598   4.817  2.5227  0.3666  3.0150
14146TIP3    H263930   1.818   1.462   4.822 -0.5826 -1.3414  0.9788
14147TIP3   OH263931   6.338   6.523   4.716 -0.0860  0.2055  0.1293
14147TIP3    H163932   6.394   6.596   4.743  2.9226 -2.5570  2.1439
14147TIP3    H263933   6.377   6.492   4.634  0.3979 -0.7448  0.6980
14148TIP3   OH263934   3.367   4.472  13.922 -0.4592 -0.5093  0.5061
14148TIP3    H163935   3.291   4.419  13.942 -0.1741 -1.3971 -0.6318
14148TIP3    H263936   3.340   4.525  13.847 -0.7366  0.9783  1.6210
14149TIP3   OH263937   1.255   3.162   4.789  0.2739 -0.4407  0.5944
14149TIP3    H163938   1.226   3.247   4.756  2.4090  0.0262 -0.2108
14149TIP3    H263939   1.266   3.176   4.883  0.1823  0.0321  0.5384
14150TIP3   OH263940   0.147   5.888  14.379 -0.3210  0.0435 -0.2133
14150TIP3    H163941   0.181   5.952  14.441  2.2875 -2.9110  1.6828
14150TIP3    H263942   0.184   5.913  14.295  1.8032  0.2855  0.7490
14151TIP3   OH263943   4.019   1.907   3.526  0.0912  0.0239 -0.1127
14151TIP3    H163944   3.932   1.869   3.527 -0.0802  0.3044  2.1565
14151TIP3    H263945   4.076   1.839   3.491 -0.9782 -0.2498 -1.3729
14152TIP3   OH263946   4.910   2.066  15.182 -0.2528 -0.3653  0.5794
14152TIP3    H163947   4.920   2.005  15.109 -0.5108  0.3143 -0.0356
14152TIP3    H263948   4.949   2.021  15.256 -1.3995 -1.7436  0.3959
14153TIP3   OH263949   4.020   5.454  16.199 -0.4585 -0.2555  0.6567
14153TIP3    H163950   3.972   5.379  16.236 -0.9396 -0.0976  0.3702
14153TIP3    H263951   4.028   5.515  16.273 -2.3988  0.5452  0.2908
14154TIP3   OH263952   0.619   1.821  16.296 -0.1278 -0.5778  0.2617
14154TIP3    H163953   0.547   1.875  16.329  1.1070  1.4570 -0.1818
14154TIP3    H263954   0.697   1.872  16.317  0.9981 -1.3980 -1.7219
14155TIP3   OH263955   5.999   1.813  11.516 -0.1276 -0.4675  0.0044
14155TIP3    H163956   6.067   1.810  11.450  0.7404 -1.4124  0.8934
14155TIP3    H263957   5.945   1.888  11.493  0.6830 -0.2468 -1.2346
14156TIP3   OH263958   0.721   3.651   2.668  0.3980 -0.3956 -0.3150
14156TIP3    H163959   0.744   3.655   2.575 -2.1699 -0.9029 -1.0650
14156TIP3    H263960   0.720   3.558   2.689  1.2189 -0.2729  0.3206
14157TIP3   OH263961   1.138   5.129   2.753 -0.0247  0.0776 -0.1148
14157TIP3    H163962   1.210   5.093   2.805 -0.9829 -1.4858  0.1976
14157TIP3    H263963   1.061   5.120   2.809 -0.5803  1.1335 -0.6825
14158TIP3   OH263964   3.995   0.404   0.653 -0.1831 -0.5851 -0.1368
14158TIP3    H163965   4.052   0.471   0.690 -1.9782 -0.2463  2.2373
14158TIP3    H263966   3.990   0.336   0.720  0.8354 -2.7412 -2.0948
14159TIP3   OH263967   5.454   2.949   4.463  0.5003  0.3843 -0.6081
14159TIP3    H163968   5.545   2.973   4.448  0.4029  0.5496 -0.9506
14159TIP3    H263969   5.416   2.944   4.375  0.2651 -0.0250 -0.4888
14160TIP3   OH263970   3.593   2.142  13.664 -0.4196  0.1410 -0.2293
14160TIP3    H163971   3.544   2.173  13.740  1.2032  0.1297  0.8656
14160TIP3    H263972   3.631   2.059  13.692 -0.6275 -0.3657 -1.4144
14161TIP3   OH263973   3.057   5.327   1.893  0.3811  0.0261 -0.1839
14161TIP3    H163974   2.985   5.391   1.896  1.0251  0.7398  1.0116
14161TIP3    H263975   3.022   5.250   1.936  0.0690  0.0850 -0.3279
14162TIP3   OH263976   4.392   3.825  10.919  0.2230 -0.1347 -0.1506
14162TIP3    H163977   4.432   3.799  10.836 -2.8501 -1.1932 -1.4510
14162TIP3    H263978   4.361   3.743  10.957 -0.0665  0.5439  1.1460
14163TIP3   OH263979   3.365   4.307  15.137 -0.6324  0.3218 -0.0972
14163TIP3    H163980   3.319   4.361  15.074 -0.2478 -0.1843 -0.8240
14163TIP3    H263981   3.399   4.234  15.086  1.4359  0.9405  0.2792
14164TIP3   OH263982   0.776   0.075   1.967  0.3529 -0.4315 -0.2760
14164TIP3    H163983   0.713   0.042   1.903  1.7991 -0.7733 -1.5546
14164TIP3    H263984   0.721   0.117   2.034 -1.2369 -0.8789 -1.2387
14165TIP3   OH263985   2.926   3.628   0.871  0.1141 -0.0186  0.4089
14165TIP3    H163986   3.003   3.669   0.911  1.0473 -0.6625 -0.6554
14165TIP3    H263987   2.890   3.572   0.940  0.0121  1.0198  1.2267
14166TIP3   OH263988   6.754   6.606   4.098  0.3597 -0.1865  0.1231
14166TIP3    H163989   6.840   6.564   4.101 -0.3216 -1.7122 -0.5354
14166TIP3    H263990   6.752   6.662   4.176  2.8542  1.8261 -1.1194
14167TIP3   OH263991   1.637   4.671   2.578 -0.3543 -0.2279  0.3274
14167TIP3    H163992   1.559   4.710   2.540 -1.9329 -3.0107  0.4377
14167TIP3    H263993   1.710   4.718   2.537 -2.0560  1.5298 -0.8288
14168TIP3   OH263994   2.136   3.553  16.268  0.5634 -0.7626  0.4688
14168TIP3    H163995   2.148   3.512  16.182  0.3780 -2.1496  1.0722
14168TIP3    H263996   2.048   3.526  16.295  0.8984 -0.9611  1.4022
14169TIP3   OH263997   4.532   3.910   0.062 -0.0308  0.2002  0.1704
14169TIP3    H163998   4.550   3.942   0.151 -1.4081 -2.6937  1.6163
14169TIP3    H263999   4.451   3.955   0.037  0.5860  1.3479  0.1359
14170TIP3   OH264000   4.784   1.576   1.036  0.2786  0.0665  0.1891
14170TIP3    H164001   4.854   1.539   0.983 -0.7994 -0.5209 -0.8751
14170TIP3    H264002   4.709   1.579   0.977 -0.4333  1.2421  1.1259
14171TIP3   OH264003   0.731   0.952  13.534  0.4306 -0.0162  0.2188
14171TIP3    H164004   0.699   0.896  13.604 -1.2211  0.3779 -0.1912
14171TIP3    H264005   0.662   0.950  13.468  1.4425  0.5411 -0.8907
14172TIP3   OH264006   6.380   3.950  13.987 -0.2522  0.0445  0.3907
14172TIP3    H164007   6.339   4.033  13.966 -0.9711 -0.8042 -1.8754
14172TIP3    H264008   6.307   3.892  14.012 -0.2515 -0.8585 -1.5362
14173TIP3   OH264009   2.509   2.242   1.701 -0.3436  0.8369  0.2252
14173TIP3    H164010   2.465   2.267   1.782 -0.3094  0.5856  0.3211
14173TIP3    H264011   2.524   2.325   1.656  0.3130  1.0455  0.8175
14174TIP3   OH264012   3.581   2.404  13.522 -0.0634  0.1361  0.8049
14174TIP3    H164013   3.487   2.415  13.507 -0.0088  0.5204  0.7351
14174TIP3    H264014   3.590   2.315  13.556 -0.3235 -0.3175 -0.2747
14175TIP3   OH264015   3.911   3.887  11.159 -0.7664  0.2193 -0.2231
14175TIP3    H164016   3.851   3.819  11.191 -0.6849 -0.7062 -1.9221
14175TIP3    H264017   3.888   3.965  11.210 -1.8704 -0.6964  0.7405
14176TIP3   OH264018   3.001   0.147   2.926  0.2342 -0.0063  0.1938
14176TIP3    H164019   2.963   0.234   2.915 -1.5259 -0.9015 -1.1242
14176TIP3    H264020   2.970   0.119   3.012 -0.0755  0.2274  0.1612
14177TIP3   OH264021   3.466   4.487  16.933  0.1691 -0.5810  0.4714
14177TIP3    H164022   3.378   4.463  16.904 -0.4300  0.6356  1.1759
14177TIP3    H264023   3.488   4.564  16.880 -0.2263  0.5997  1.9284
14178TIP3   OH264024   2.792   4.680  15.689  0.0613  0.5933 -0.3244
14178TIP3    H164025   2.700   4.703  15.675  0.0157  0.7266  0.2092
14178TIP3    H264026   2.808   4.695  15.782  0.8716  1.4540 -0.5761
14179TIP3   OH264027   0.137   0.289  11.851 -0.8690  0.2620 -0.4742
14179TIP3    H164028   0.163   0.347  11.780 -0.2998  1.2810  0.5352
14179TIP3    H264029   0.133   0.345  11.928 -2.3711 -0.6371  0.1460
14180TIP3   OH264030   6.044   5.994  16.330 -0.2241  0.3544 -0.3016
14180TIP3    H164031   5.982   6.051  16.284 -0.3226 -0.7790 -1.6473
14180TIP3    H264032   6.130   6.029  16.308 -0.2702 -0.1764 -1.4029
14181TIP3   OH264033   3.889   4.556  17.096 -0.1615 -0.1103 -0.3118
14181TIP3    H164034   3.845   4.498  17.158  0.5711 -1.5284 -1.0637
14181TIP3    H264035   3.934   4.496  17.035  0.6635  1.2514 -1.0894
14182TIP3   OH264036   6.673   2.263   3.276  0.1844  0.4228 -0.0052
14182TIP3    H164037   6.578   2.248   3.276  0.1567  0.5489  1.0177
14182TIP3    H264038   6.684   2.340   3.220 -0.2704  0.1665 -0.4626
14183TIP3   OH264039   0.022   0.123  12.111 -0.7457  0.3551  0.2531
14183TIP3    H164040   0.013   0.107  12.205 -0.3479 -0.6416  0.1371
14183TIP3    H264041   0.052   0.214  12.104 -1.8880  0.8120  1.0235
14184TIP3   OH264042   0.733   3.564   0.196 -0.2800  0.5828 -0.4402
14184TIP3    H164043   0.770   3.600   0.116 -1.5670  1.5993 -0.6148
14184TIP3    H264044   0.697   3.640   0.242 -1.3141 -0.2310  0.1450
14185TIP3   OH264045   1.476   4.643   0.250  0.4585  0.0316  0.7139
14185TIP3    H164046   1.555   4.604   0.288  1.7542  0.0881 -1.7420
14185TIP3    H264047   1.486   4.630   0.156 -2.8184 -0.5376  0.3572
14186TIP3   OH264048   0.119   4.434   4.135 -0.3682 -0.2465  0.3307
14186TIP3    H164049   0.052   4.388   4.186 -1.5131 -0.1228 -1.0289
14186TIP3    H264050   0.084   4.521   4.120  1.0724  0.5890  1.4395
14187TIP3   OH264051   5.392   0.122   1.313 -0.1071  0.6492 -0.5607
14187TIP3    H164052   5.421   0.157   1.229  1.5615 -1.2124 -0.8306
14187TIP3    H264053   5.473   0.104   1.361 -0.8787 -1.6751 -0.0048
14188TIP3   OH264054   3.311   5.512   3.138 -0.4749  0.0818 -0.1780
14188TIP3    H164055   3.391   5.560   3.119 -0.3562 -0.1061 -0.1642
14188TIP3    H264056   3.289   5.537   3.228  0.2939 -0.8510  0.2987
14189TIP3   OH264057   6.456   5.632  11.317 -0.0198  0.1623 -0.4634
14189TIP3    H164058   6.515   5.688  11.367 -1.1371  1.0240 -0.0533
14189TIP3    H264059   6.494   5.544  11.324 -0.2759  0.1831  2.1550
14190TIP3   OH264060   0.259   0.843  13.206  0.0620 -0.4515  0.3718
14190TIP3    H164061   0.175   0.889  13.200  0.1566 -0.3687 -0.3803
14190TIP3    H264062   0.307   0.871  13.128  0.4004 -1.2759  0.2806
14191TIP3   OH264063   0.335   6.382   5.344 -0.0024  0.5224 -0.4311
14191TIP3    H164064   0.295   6.468   5.357  0.4383  0.7332 -0.4443
14191TIP3    H264065   0.413   6.384   5.400 -0.3447 -0.1153  0.0791
14192TIP3   OH264066   5.806   4.384   1.160  0.2611 -0.0360 -0.2455
14192TIP3    H164067   5.834   4.469   1.194  2.4032 -0.6146 -0.4214
14192TIP3    H264068   5.845   4.321   1.220 -0.1112 -0.9241 -0.9302
14193TIP3   OH264069   3.612   0.686   6.406  0.2835 -0.6368 -0.1116
14193TIP3    H164070   3.533   0.686   6.352  0.7426 -2.9719 -0.9470
14193TIP3    H264071   3.599   0.612   6.466  0.3133  1.1786  2.2547
14194TIP3   OH264072   4.800   4.493   5.586 -0.3194 -0.2104 -0.2224
14194TIP3    H164073   4.741   4.502   5.511 -0.2017  0.7858 -0.2110
14194TIP3    H264074   4.752   4.437   5.647 -0.1200 -1.6350 -1.3200
14195TIP3   OH264075   4.721   3.363  13.278  0.3081  0.8310 -0.2864
14195TIP3    H164076   4.776   3.441  13.268 -0.1385  0.8623 -3.7455
14195TIP3    H264077   4.772   3.292  13.239 -0.9153  0.2983 -0.9920
14196TIP3   OH264078   2.830   1.715   3.067  0.2862  0.1242  0.5324
14196TIP3    H164079   2.840   1.648   3.135 -1.5038 -1.3964 -0.6098
14196TIP3    H264080   2.787   1.669   2.994  2.8052  1.4663 -1.9852
14197TIP3   OH264081   1.404   2.778   0.614 -0.1368  0.6946  0.4052
14197TIP3    H164082   1.321   2.776   0.567 -0.8971  0.5434  1.7329
14197TIP3    H264083   1.396   2.850   0.676  0.7657  0.7391  0.4858
14198TIP3   OH264084   3.923   5.549  12.084 -0.3159  0.0258 -0.3708
14198TIP3    H164085   3.966   5.523  12.002 -1.0776  0.1441 -0.8207
14198TIP3    H264086   3.834   5.572  12.058 -0.5904 -0.0007  0.5072
14199TIP3   OH264087   2.975   2.879  10.602 -0.2903 -0.0151  0.0920
14199TIP3    H164088   3.008   2.876  10.512 -0.3735  0.3975  0.0445
14199TIP3    H264089   2.926   2.798  10.613 -2.2210  0.9336 -0.9885
14200TIP3   OH264090   1.755   0.181   1.142 -0.0960  0.2003 -0.6002
14200TIP3    H164091   1.746   0.092   1.177  1.1407 -0.3990 -1.7390
14200TIP3    H264092   1.665   0.214   1.138 -0.5549 -0.8950  0.0776
14201TIP3   OH264093   4.469   6.201  11.527  0.0824  0.1614  0.0029
14201TIP3    H164094   4.433   6.289  11.537  0.5125  0.3425 -0.0063
14201TIP3    H264095   4.514   6.203  11.442  1.0471  0.2838  0.4960
14202TIP3   OH264096   6.708   3.533   0.451  0.3953 -0.1391 -0.0091
14202TIP3    H164097   6.757   3.452   0.437  3.8285  1.1721  2.9410
14202TIP3    H264098   6.678   3.528   0.541 -1.5776  0.8667 -0.5525
14203TIP3   OH264099   2.691   1.681   4.032 -1.0783  0.0120 -0.3263
14203TIP3    H164100   2.758   1.664   3.965 -0.3789  0.7662  0.1578
14203TIP3    H264101   2.611   1.641   3.997 -1.0654  1.4833 -2.2343
14204TIP3   OH264102   2.417   3.293  12.746  0.1143  0.5029 -0.2491
14204TIP3    H164103   2.444   3.336  12.665  2.8003 -0.7807 -0.1341
14204TIP3    H264104   2.489   3.310  12.807 -0.2250 -1.4566  0.7646
14205TIP3   OH264105   5.487   0.883  16.866  0.8860  0.5188  0.7310
14205TIP3    H164106   5.577   0.853  16.874  0.7136 -0.0395  0.6030
14205TIP3    H264107   5.441   0.811  16.823  0.4215  0.8805  0.6118
14206TIP3   OH264108   0.403   5.211   2.588  0.5890  0.0704  0.2015
14206TIP3    H164109   0.384   5.304   2.573  2.4008  0.3809 -0.4382
14206TIP3    H264110   0.329   5.180   2.640 -0.2025  1.7969  0.1999
14207TIP3   OH264111   0.536   2.640  13.175 -0.3839  0.2554  0.2927
14207TIP3    H164112   0.554   2.676  13.088 -2.8119  2.1467  0.4617
14207TIP3    H264113   0.443   2.660  13.190 -1.0139 -3.2507  1.8557
14208TIP3   OH264114   1.871   1.719   4.439  0.0371 -0.1916  0.0326
14208TIP3    H164115   1.912   1.691   4.357 -0.1836 -3.2158  0.8358
14208TIP3    H264116   1.944   1.741   4.497  0.2381  0.5267 -0.4785
14209TIP3   OH264117   4.037   4.225  16.170 -0.6141 -0.3953 -0.1846
14209TIP3    H164118   4.088   4.229  16.251 -1.7704 -1.2124  0.6126
14209TIP3    H264119   3.965   4.287  16.184  1.4917  2.9287 -2.3805
14210TIP3   OH264120   1.765   2.888  15.024 -0.0844  0.9986 -0.5108
14210TIP3    H164121   1.687   2.849  14.986 -0.1378 -0.6983  1.1686
14210TIP3    H264122   1.733   2.965  15.070 -0.5661  1.0197 -0.8738
14211TIP3   OH264123   5.519   3.101   5.984 -0.0887  0.0361  0.6184
14211TIP3    H164124   5.579   3.155   5.933  1.1614 -0.6963  1.2615
14211TIP3    H264125   5.452   3.074   5.921 -0.5590  2.0108  0.2060
14212TIP3   OH264126   3.804   5.569  14.765  0.2267 -0.2449 -0.8487
14212TIP3    H164127   3.842   5.534  14.685 -0.8133  0.7634 -1.8228
14212TIP3    H264128   3.878   5.610  14.810  0.8030 -0.7030 -1.3539
14213TIP3   OH264129   4.631   0.478   1.519 -0.7181  0.1255 -0.0457
14213TIP3    H164130   4.630   0.391   1.558 -1.0317  0.5282  0.8619
14213TIP3    H264131   4.608   0.463   1.427 -1.5971 -0.6628  0.2843
14214TIP3   OH264132   3.043   0.526  14.028  0.2743  0.2672  0.2253
14214TIP3    H164133   2.966   0.528  14.084  1.5201  1.8662  2.0065
14214TIP3    H264134   3.036   0.606  13.975 -0.1792 -0.5173 -0.9285
14215TIP3   OH264135   2.559   5.334  16.576  0.2200 -0.0319  0.1128
14215TIP3    H164136   2.564   5.406  16.639  0.0194  1.0634 -1.0763
14215TIP3    H264137   2.470   5.302  16.583  0.5600 -0.7888  1.2820
14216TIP3   OH264138   2.500   2.639   3.382  0.3392  0.4861 -0.4681
14216TIP3    H164139   2.477   2.722   3.424 -0.7005  0.7603 -1.5388
14216TIP3    H264140   2.582   2.614   3.424  0.0946  1.4744  0.6814
14217TIP3   OH264141   4.438   4.475  14.082 -0.1907 -0.8452  0.3514
14217TIP3    H164142   4.400   4.560  14.106 -3.3534 -2.0480  0.1066
14217TIP3    H264143   4.448   4.480  13.987  2.4807  0.2134  0.6009
14218TIP3   OH264144   0.715   3.209  12.728 -0.0447  0.0602 -0.0883
14218TIP3    H164145   0.706   3.291  12.776  1.4815  1.0753 -1.4534
14218TIP3    H264146   0.793   3.167  12.765 -1.1261 -1.0983  0.9878
14219TIP3   OH264147   1.249   1.901  15.658 -0.2868  0.2033 -0.2199
14219TIP3    H164148   1.186   1.830  15.645  0.2103 -0.3309  0.2592
14219TIP3    H264149   1.270   1.931  15.569  0.6119 -1.2364 -0.5176
14220TIP3   OH264150   5.821   3.059   4.243 -0.0309 -0.3521 -0.0668
14220TIP3    H164151   5.785   3.073   4.331  1.1701 -0.1107  0.4066
14220TIP3    H264152   5.746   3.067   4.185 -0.6069  0.8851  0.8117
14221TIP3   OH264153   0.054   4.425   1.819  0.0182 -0.5709 -0.0005
14221TIP3    H164154  -0.020   4.466   1.864 -0.0150 -0.3004 -0.3011
14221TIP3    H264155   0.049   4.458   1.730  0.0501 -1.1524 -0.2193
14222TIP3   OH264156   4.813   4.669   1.964 -0.1821 -0.3011  0.2758
14222TIP3    H164157   4.870   4.610   2.014  2.0399  0.8805 -0.7244
14222TIP3    H264158   4.869   4.742   1.939 -1.7333  0.1975 -2.1323
14223TIP3   OH264159   3.742   4.059  12.137  0.0229 -0.2178  0.3954
14223TIP3    H164160   3.778   4.059  12.225  0.2135 -1.7835  0.3477
14223TIP3    H264161   3.663   4.005  12.142 -0.1505 -0.0492 -0.3073
14224TIP3   OH264162   6.593   2.961   3.036 -0.0961 -0.4683 -0.6316
14224TIP3    H164163   6.563   3.045   3.003 -0.1206  0.0707  0.6965
14224TIP3    H264164   6.524   2.900   3.013 -1.4121  0.4193  0.8060
14225TIP3   OH264165   1.495   1.421  14.240 -0.1096 -0.0941  0.1654
14225TIP3    H164166   1.503   1.339  14.288 -0.0929 -0.2629 -0.1188
14225TIP3    H264167   1.585   1.453  14.232 -0.1146 -0.0549  0.2633
14226TIP3   OH264168   1.544   6.160  12.856 -0.3321 -0.1687 -0.0783
14226TIP3    H164169   1.637   6.173  12.834 -0.6556  2.0237 -0.3858
14226TIP3    H264170   1.544   6.139  12.949  0.4625 -0.1985 -0.0781
14227TIP3   OH264171   4.243   0.262  15.786  0.4172 -0.0270 -0.1665
14227TIP3    H164172   4.336   0.238  15.785  0.7087  1.0605 -0.3222
14227TIP3    H264173   4.236   0.335  15.725 -0.3557  0.5504  0.5851
14228TIP3   OH264174   5.965   3.156   6.159 -0.1658  0.0849  0.8619
14228TIP3    H164175   5.958   3.224   6.226 -0.1763  0.6098  0.3423
14228TIP3    H264176   6.054   3.166   6.124 -0.6882  0.9023 -0.3115
14229TIP3   OH264177   6.715   2.877  14.260  0.3678  0.0711  0.1486
14229TIP3    H164178   6.659   2.889  14.336  0.4781  1.8107 -0.0112
14229TIP3    H264179   6.689   2.946  14.199  2.4307  0.7636 -0.0474
14230TIP3   OH264180   4.649   3.258   4.782  0.2392 -0.2812 -0.1685
14230TIP3    H164181   4.635   3.351   4.800 -1.0034 -0.9687  3.2426
14230TIP3    H264182   4.587   3.238   4.712  1.4167  1.6177 -1.8831
14231TIP3   OH264183   0.853   6.060  11.223  0.1041  0.2561 -0.1275
14231TIP3    H164184   0.774   6.112  11.238  0.0162 -0.0641  0.5824
14231TIP3    H264185   0.867   6.064  11.128 -0.2465  1.0545 -0.1524
14232TIP3   OH264186   3.972   6.662   0.413  0.1578  0.1712  0.1699
14232TIP3    H164187   4.047   6.696   0.364 -0.3887  0.0115 -0.7938
14232TIP3    H264188   3.977   6.567   0.401 -1.5395  0.2684 -1.9726
14233TIP3   OH264189   0.324   5.125   5.997  0.3500  0.5596  0.2184
14233TIP3    H164190   0.234   5.125   5.964  0.4191 -0.9242 -0.0381
14233TIP3    H264191   0.327   5.051   6.058  1.5533  0.2314 -0.2136
14234TIP3   OH264192   3.418   6.591  13.768 -0.3019 -0.1251  0.0340
14234TIP3    H164193   3.404   6.682  13.743  0.2484 -0.0864 -0.1264
14234TIP3    H264194   3.339   6.568  13.818 -0.1187  0.6528  0.6921
14235TIP3   OH264195   1.701   2.509   1.043  0.6024 -0.2573  0.0584
14235TIP3    H164196   1.726   2.574   1.109  2.6756 -0.2183 -0.6842
14235TIP3    H264197   1.741   2.428   1.074 -1.0155 -0.9518  0.3925
14236TIP3   OH264198   4.037   6.071   5.047  0.0194 -0.2514 -0.6607
14236TIP3    H164199   4.097   6.145   5.053  0.6442 -0.8540  1.4302
14236TIP3    H264200   4.075   6.014   4.980 -0.6134  1.3817 -2.4920
14237TIP3   OH264201   0.456   5.240   3.015  0.0627 -0.1083 -0.5834
14237TIP3    H164202   0.520   5.300   3.053  0.1185  0.2155 -1.1718
14237TIP3    H264203   0.505   5.158   3.002 -0.4979 -0.9357  1.9684
14238TIP3   OH264204   5.002   1.026   4.402  0.3123  0.5998 -0.5243
14238TIP3    H164205   4.943   1.080   4.349 -0.2929  0.7793  0.3248
14238TIP3    H264206   5.074   1.084   4.425  1.3982  0.1064 -2.4304
14239TIP3   OH264207   6.428   5.224  12.354  0.0392  0.0783 -0.1338
14239TIP3    H164208   6.458   5.136  12.379  0.8665  0.8196  1.7345
14239TIP3    H264209   6.500   5.282  12.382  0.6134  1.1889 -3.4980
14240TIP3   OH264210   1.000   4.603   0.394 -0.1655 -0.2992  0.1889
14240TIP3    H164211   1.031   4.580   0.306  2.6364  0.9870  0.7429
14240TIP3    H264212   0.912   4.566   0.398  0.2874 -1.9707 -2.5002
14241TIP3   OH264213   3.838   0.221  11.453  0.4152  0.2766  0.5525
14241TIP3    H164214   3.782   0.260  11.387 -0.9939  0.8990  2.0493
14241TIP3    H264215   3.925   0.222  11.414 -0.5448 -0.5450 -1.7660
14242TIP3   OH264216   0.296   5.485   0.284 -0.1327  0.3326  0.0883
14242TIP3    H164217   0.346   5.403   0.276  0.1115  0.4504  0.4170
14242TIP3    H264218   0.209   5.462   0.252 -0.2693 -0.2462  0.8601
14243TIP3   OH264219   0.219   0.951  10.676  0.3554  0.0126  0.4908
14243TIP3    H164220   0.256   0.872  10.715 -1.2936 -0.0854  1.9602
14243TIP3    H264221   0.187   0.923  10.590 -0.0859 -0.8866  0.9453
14244TIP3   OH264222   3.277   4.578   4.082 -0.2045 -0.1313  0.3108
14244TIP3    H164223   3.278   4.523   4.160 -1.3680 -0.5288  0.0782
14244TIP3    H264224   3.363   4.566   4.043  0.2700 -0.1965  1.3441
14245TIP3   OH264225   4.815   1.369  10.684  0.5641 -0.3738 -0.0107
14245TIP3    H164226   4.889   1.322  10.648  1.0111 -0.3430  0.8388
14245TIP3    H264227   4.822   1.457  10.647  0.6147 -0.5380 -0.3914
14246TIP3   OH264228   1.770   5.701   4.530 -0.5138  0.0862 -0.0868
14246TIP3    H164229   1.689   5.675   4.485 -2.2227  2.4798  1.3754
14246TIP3    H264230   1.768   5.650   4.611  1.2006 -2.2337 -1.3792
14247TIP3   OH264231   4.549   6.291  15.350 -0.1204  0.0191 -0.1780
14247TIP3    H164232   4.533   6.354  15.420 -2.7762  0.7323 -1.3083
14247TIP3    H264233   4.560   6.344  15.271 -1.6018 -0.8679 -1.0278
14248TIP3   OH264234   0.395   1.333  10.998  0.2449  0.1958 -0.3287
14248TIP3    H164235   0.334   1.275  10.953 -0.2504 -0.9437  1.6996
14248TIP3    H264236   0.378   1.419  10.959  1.3007 -0.9740 -3.7185
14249TIP3   OH264237   1.580   5.030  16.162 -0.3066 -0.5692 -0.3882
14249TIP3    H164238   1.674   5.041  16.179 -0.7618  2.3059  0.8809
14249TIP3    H264239   1.567   5.065  16.074 -0.2363 -0.6681 -0.4385
14250TIP3   OH264240   6.455   2.201   6.020 -0.3054  0.4944  0.0851
14250TIP3    H164241   6.484   2.114   5.994  0.3845  0.3439  1.2696
14250TIP3    H264242   6.425   2.189   6.111  0.5644  1.6360  0.5445
14251TIP3   OH264243   4.219   2.851  10.893  0.0899 -1.0985 -0.4763
14251TIP3    H164244   4.221   2.898  10.809  1.0877 -3.1581 -1.6747
14251TIP3    H264245   4.295   2.883  10.940  0.0176 -0.5688 -0.7087
14252TIP3   OH264246   0.441   0.848   3.315  0.6648 -1.0073  0.2253
14252TIP3    H164247   0.481   0.778   3.365  2.0353 -0.8429 -0.5886
14252TIP3    H264248   0.452   0.822   3.224  0.1028 -0.3061 -0.0529
14253TIP3   OH264249   1.239   0.561  15.344 -0.0573 -0.2784 -0.4181
14253TIP3    H164250   1.272   0.477  15.312  2.2430  0.2804  0.2378
14253TIP3    H264251   1.178   0.539  15.413  1.1956 -1.4487  0.3626
14254TIP3   OH264252   6.224   5.045  12.298 -0.6084 -0.1040  0.5170
14254TIP3    H164253   6.289   5.112  12.316  1.1679 -1.5258 -0.2059
14254TIP3    H264254   6.179   5.076  12.220 -0.6052  0.7851  0.8631
14255TIP3   OH264255   2.077   2.760   0.297  0.0786  0.0100  0.4528
14255TIP3    H164256   2.023   2.772   0.375  1.1531 -0.1034  1.2509
14255TIP3    H264257   2.161   2.728   0.332  0.7784  0.5369 -0.7000
14256TIP3   OH264258   3.950   0.052   6.240  0.0976  0.5987  0.0672
14256TIP3    H164259   4.037   0.045   6.281 -0.2657 -1.2976  0.6367
14256TIP3    H264260   3.909  -0.033   6.257 -0.8528  0.4586 -2.5335
14257TIP3   OH264261   4.062   2.875  14.227 -0.2911 -0.2942  0.0468
14257TIP3    H164262   4.062   2.968  14.251 -1.5786 -0.4503  0.7238
14257TIP3    H264263   4.123   2.869  14.153  1.0308  0.8114  0.9865
14258TIP3   OH264264   0.110   4.300   2.906  0.0014  0.1411  0.0007
14258TIP3    H164265   0.066   4.296   2.822 -0.4576  0.1758  0.2382
14258TIP3    H264266   0.078   4.381   2.946 -0.4150 -0.2909  0.5569
14259TIP3   OH264267   6.374   3.914   4.851 -0.1825  0.3826 -0.9102
14259TIP3    H164268   6.380   3.819   4.847 -0.1454  0.3809 -0.8013
14259TIP3    H264269   6.436   3.945   4.785  1.5408  0.3815  0.6195
14260TIP3   OH264270   0.709   0.307   6.023 -0.2608 -0.2570  0.2954
14260TIP3    H164271   0.724   0.285   5.931 -0.9349  0.9866 -0.1344
14260TIP3    H264272   0.668   0.394   6.020  1.2833  0.5853  1.8365
14261TIP3   OH264273   3.435   3.345   1.843 -0.2110 -0.5179 -0.1136
14261TIP3    H164274   3.467   3.367   1.930 -0.0560 -0.7853 -0.1027
14261TIP3    H264275   3.364   3.284   1.857 -0.2177 -0.5244 -0.1728
14262TIP3   OH264276   4.277   3.584  10.972  0.1298  0.3374  0.1425
14262TIP3    H164277   4.296   3.530  10.895 -1.4628  1.0713 -0.8346
14262TIP3    H264278   4.238   3.523  11.035 -0.5562  0.1025 -0.4920
14263TIP3   OH264279   2.534   5.032   2.759 -0.1790 -0.7288  0.3720
14263TIP3    H164280   2.628   5.042   2.747 -0.4490 -0.8242 -2.2783
14263TIP3    H264281   2.499   5.121   2.755 -0.3584 -0.8294 -0.4222
14264TIP3   OH264282   2.623   5.741  16.524  0.9220 -0.2008 -0.5244
14264TIP3    H164283   2.589   5.696  16.601  0.8771  0.2910 -0.2480
14264TIP3    H264284   2.593   5.689  16.449 -0.5983  0.3034 -0.3011
14265TIP3   OH264285   6.602   5.228  11.063  0.5578 -0.4222  0.3280
14265TIP3    H164286   6.578   5.145  11.022  1.8287  0.4708 -2.4762
14265TIP3    H264287   6.613   5.288  10.989  2.2977  1.5351  2.0833
14266TIP3   OH264288   2.786   2.517   5.973 -0.5295 -0.1073 -0.1295
14266TIP3    H164289   2.781   2.484   5.884 -1.9312  0.3738 -0.2515
14266TIP3    H264290   2.802   2.611   5.963  1.2697 -0.3475  0.1803
14267TIP3   OH264291   6.861   4.307   2.627 -0.3662 -0.5745 -0.1257
14267TIP3    H164292   6.955   4.322   2.641 -0.4227 -0.1267 -0.2266
14267TIP3    H264293   6.823   4.394   2.623 -0.8003 -0.7576 -0.0224
14268TIP3   OH264294   3.859   0.369   2.033  0.0113 -0.5590  0.2944
14268TIP3    H164295   3.766   0.391   2.037  0.0847 -0.2957  0.6293
14268TIP3    H264296   3.868   0.295   2.094  0.1649 -0.0548  0.8909
14269TIP3   OH264297   4.432   0.741  11.075 -0.5797  0.2060  0.9379
14269TIP3    H164298   4.509   0.685  11.076 -0.9806 -0.3728  3.0649
14269TIP3    H264299   4.386   0.717  10.994  1.3250  0.4310 -0.2711
14270TIP3   OH264300   0.641   1.074   5.869 -0.4008 -0.0941  0.0938
14270TIP3    H164301   0.606   1.050   5.955 -1.8668 -0.0073 -0.4648
14270TIP3    H264302   0.734   1.053   5.875 -0.5855 -0.6061  1.5161
14271TIP3   OH264303   6.104   5.749   2.653 -0.2213  0.3013 -0.2542
14271TIP3    H164304   6.071   5.717   2.737 -0.1080 -2.0166 -1.0276
14271TIP3    H264305   6.025   5.780   2.607 -1.0133 -2.5533 -0.9755
14272TIP3   OH264306   0.447   2.046  12.283 -0.1548  0.3437  0.0856
14272TIP3    H164307   0.374   1.986  12.266 -0.2248  0.5359 -0.3121
14272TIP3    H264308   0.422   2.127  12.237  0.4351  0.3161 -0.2940
14273TIP3   OH264309   4.908   2.277   3.304  0.0064  0.2780  0.0823
14273TIP3    H164310   4.909   2.212   3.374  0.4657 -1.6093 -1.5910
14273TIP3    H264311   4.826   2.262   3.258  1.2492 -0.9594 -1.8794
14274TIP3   OH264312   5.177   5.500   2.657  0.3834 -0.1502  0.3233
14274TIP3    H164313   5.252   5.554   2.636  0.4230  0.1123  1.1292
14274TIP3    H264314   5.193   5.418   2.610  1.1540 -0.0844  0.4597
14275TIP3   OH264315   3.286   4.650  12.171 -0.0017  0.5474  0.0344
14275TIP3    H164316   3.349   4.606  12.115 -0.0356 -0.4899  0.7933
14275TIP3    H264317   3.206   4.655  12.118  0.2506  0.4450 -0.3573
14276TIP3   OH264318   2.196   2.158   3.523 -0.1776 -0.2189 -0.6629
14276TIP3    H164319   2.103   2.172   3.539  0.2796  0.5630  1.7016
14276TIP3    H264320   2.228   2.242   3.491  0.0805  0.2374  0.6992
14277TIP3   OH264321   0.569   0.178   6.213  0.1084 -0.2840 -0.2592
14277TIP3    H164322   0.613   0.232   6.148  0.9921 -2.1263 -1.2623
14277TIP3    H264323   0.638   0.152   6.274 -0.6963  1.3799  1.4527
14278TIP3   OH264324   0.907   5.456   1.880  0.2503 -0.4960  0.1199
14278TIP3    H164325   0.975   5.496   1.826  0.7532  0.2231  1.2474
14278TIP3    H264326   0.825   5.481   1.838  0.5560  1.7156  0.7510
14279TIP3   OH264327   6.505   4.556   2.617 -0.3626  0.8393 -0.0219
14279TIP3    H164328   6.518   4.465   2.643 -0.2019  0.0632 -2.5810
14279TIP3    H264329   6.411   4.564   2.602 -0.2007  0.6200 -1.2733
14280TIP3   OH264330   2.416   5.823  13.298  0.1974  0.3896  0.6095
14280TIP3    H164331   2.361   5.755  13.336 -1.7504  1.7530  0.3731
14280TIP3    H264332   2.355   5.883  13.255  1.9616  1.4208 -0.6214
14281TIP3   OH264333   3.689   2.288  16.051  0.2907  0.0184 -0.3303
14281TIP3    H164334   3.693   2.382  16.066  1.9848  0.0254 -0.5456
14281TIP3    H264335   3.780   2.264  16.031  0.2136 -1.9406  1.3617
14282TIP3   OH264336   6.577   2.432  13.954 -0.1616  0.2880 -0.3893
14282TIP3    H164337   6.583   2.337  13.965  0.5708  0.3447 -0.2580
14282TIP3    H264338   6.493   2.455  13.995 -0.7410 -0.3975 -1.1505
14283TIP3   OH264339   1.196   3.363   0.787 -0.0220 -0.0725 -0.2547
14283TIP3    H164340   1.137   3.356   0.862  0.1693  1.2309  0.0402
14283TIP3    H264341   1.140   3.392   0.715  0.1458  0.7021 -0.0894
14284TIP3   OH264342   3.603   1.248   5.772 -0.3369 -0.0501  0.1858
14284TIP3    H164343   3.571   1.317   5.830 -0.5881 -0.2817  0.3311
14284TIP3    H264344   3.661   1.292   5.710 -0.5247  0.2945  0.2542
14285TIP3   OH264345   2.770   2.886  16.062  0.0191 -0.1961 -0.2935
14285TIP3    H164346   2.825   2.920  15.991 -1.3125  0.7289 -0.9285
14285TIP3    H264347   2.809   2.802  16.085  1.1427  0.0104 -1.3413
14286TIP3   OH264348   2.745   2.127  15.057 -0.2153 -0.2783  0.4540
14286TIP3    H164349   2.686   2.159  14.988 -0.5493  0.2675  0.9869
14286TIP3    H264350   2.770   2.039  15.028 -0.3111 -0.0338 -0.3896
14287TIP3   OH264351   3.183   5.523  12.220 -0.5501 -0.0768  0.0622
14287TIP3    H164352   3.217   5.589  12.160  0.8184 -0.9088 -0.1247
14287TIP3    H264353   3.224   5.543  12.304 -0.9899 -0.0459  0.2738
14288TIP3   OH264354   6.672   1.600  14.216  0.1441  0.5846  0.2549
14288TIP3    H164355   6.751   1.606  14.270 -0.1232  0.0134  0.7151
14288TIP3    H264356   6.671   1.682  14.166  0.6809  0.8798  0.7176
14289TIP3   OH264357   2.850   2.517  15.263  0.0735  0.1989  0.1192
14289TIP3    H164358   2.860   2.608  15.238  0.2245 -0.0933 -0.9415
14289TIP3    H264359   2.865   2.468  15.182 -0.6343 -0.7342  0.5333
14290TIP3   OH264360   2.026   0.605  12.191 -0.2284  0.1500  0.3454
14290TIP3    H164361   2.081   0.546  12.138  0.3396 -0.5357  1.6487
14290TIP3    H264362   2.064   0.692  12.178  0.6546 -0.1933  0.5647
14291TIP3   OH264363   1.800   5.143  11.703 -0.1786  0.2259 -0.1431
14291TIP3    H164364   1.721   5.197  11.703 -0.7341 -0.3975 -2.9598
14291TIP3    H264365   1.803   5.104  11.790 -2.8046  0.5533  0.1706
14292TIP3   OH264366   5.067   0.052  12.505  0.4470  0.6227  0.4225
14292TIP3    H164367   5.099  -0.038  12.515 -0.7088  0.2511  0.9072
14292TIP3    H264368   5.060   0.085  12.594 -1.2501  0.4149  0.3929
14293TIP3   OH264369   5.377   5.355  15.881 -0.5621  0.1399  0.0562
14293TIP3    H164370   5.346   5.420  15.944 -2.0823 -0.0969 -0.4156
14293TIP3    H264371   5.455   5.317  15.922  0.0304  1.8421  0.5943
14294TIP3   OH264372   5.876   4.223   1.379 -0.6128 -0.3192 -0.9494
14294TIP3    H164373   5.968   4.199   1.365 -0.7380 -1.2139 -0.2972
14294TIP3    H264374   5.826   4.150   1.345 -1.0596 -0.2115 -0.5367
14295TIP3   OH264375   3.629   0.633  15.295 -0.6722  0.9238  0.3205
14295TIP3    H164376   3.589   0.612  15.211 -2.1863  0.0937  1.2204
14295TIP3    H264377   3.709   0.580  15.298 -1.1712  0.1329 -0.1399
14296TIP3   OH264378   6.616   5.905  14.852 -0.8009 -0.0920 -0.2367
14296TIP3    H164379   6.521   5.893  14.858 -1.2784  1.5617 -2.8163
14296TIP3    H264380   6.647   5.828  14.806 -0.7489 -0.9477  1.1773
14297TIP3   OH264381   2.173   2.793   3.131 -0.3407  0.0367 -0.4664
14297TIP3    H164382   2.229   2.859   3.172 -2.2756  0.4259  1.7877
14297TIP3    H264383   2.224   2.712   3.135  0.6183  0.6522  0.1955
14298TIP3   OH264384   5.787   0.865  16.977 -0.4882  0.2803 -0.1868
14298TIP3    H164385   5.867   0.867  16.925  2.4550 -0.3850  3.8504
14298TIP3    H264386   5.796   0.940  17.036 -2.0307 -0.7879  1.4777
14299TIP3   OH264387   6.385   1.887  15.100 -0.1900  0.0969 -0.1172
14299TIP3    H164388   6.405   1.818  15.164 -1.8423 -0.7935 -0.4818
14299TIP3    H264389   6.444   1.870  15.027  1.4399  0.8827  0.9643
14300TIP3   OH264390   2.761   4.125  15.100 -0.0408 -0.2258  0.7271
14300TIP3    H164391   2.817   4.096  15.172  1.2024 -0.7555 -0.4298
14300TIP3    H264392   2.795   4.211  15.076  1.4021 -1.2269 -1.0538
14301TIP3   OH264393   4.256   1.218   4.726 -0.1899 -0.1815  0.2614
14301TIP3    H164394   4.189   1.233   4.659 -0.3716  1.9394  0.8295
14301TIP3    H264395   4.207   1.195   4.804 -0.0463 -1.5002 -0.0158
14302TIP3   OH264396   5.270   2.741   5.038  0.0211  0.4778 -0.7325
14302TIP3    H164397   5.353   2.708   5.071  0.3371  0.8029 -1.2032
14302TIP3    H264398   5.293   2.818   4.986 -0.3610 -0.5101 -2.4591
14303TIP3   OH264399   1.432   4.219  11.254 -0.7524  0.2218 -0.2592
14303TIP3    H164400   1.489   4.205  11.178 -0.4951  1.3017 -0.2911
14303TIP3    H264401   1.454   4.308  11.283  0.6454 -0.8827  2.3578
14304TIP3   OH264402   5.909   0.698  11.355 -0.3454  0.4536 -0.2501
14304TIP3    H164403   5.885   0.787  11.381 -1.3036  0.4157 -0.9339
14304TIP3    H264404   5.876   0.690  11.265 -0.6238 -0.7116 -0.0630
14305TIP3   OH264405   2.833   0.604   1.796  0.3669 -0.1790  0.4894
14305TIP3    H164406   2.895   0.597   1.723 -0.2739 -0.3657 -0.0524
14305TIP3    H264407   2.813   0.513   1.818  0.2351 -0.1192  0.6145
14306TIP3   OH264408   3.680   6.395  13.616 -0.3232 -0.1587  0.5854
14306TIP3    H164409   3.766   6.374  13.652  0.4395  1.7440 -0.0393
14306TIP3    H264410   3.683   6.362  13.527 -0.7775 -1.3340  0.9851
14307TIP3   OH264411   4.994   6.668  13.074  0.3499  0.7041 -0.6455
14307TIP3    H164412   4.933   6.595  13.070  1.3782 -0.2964  0.6553
14307TIP3    H264413   4.962   6.730  13.010 -1.5764 -0.1136 -0.5473
14308TIP3   OH264414   4.364   5.451  11.207  0.1966  0.6294 -0.1466
14308TIP3    H164415   4.352   5.381  11.272  2.3903  0.6159  0.2962
14308TIP3    H264416   4.314   5.420  11.131 -0.2401 -0.6256  0.6015
14309TIP3   OH264417   4.058   4.480  16.348 -0.0915  0.4019  0.4506
14309TIP3    H164418   4.085   4.517  16.432  1.1790 -0.3533  0.4023
14309TIP3    H264419   3.970   4.514  16.334 -0.0529  1.1000  1.7528
14310TIP3   OH264420   3.142   6.442   3.925  0.1391  0.2370 -0.0563
14310TIP3    H164421   3.199   6.501   3.877 -0.5350 -0.0453 -1.2283
14310TIP3    H264422   3.073   6.419   3.863 -1.2553  0.5627  1.3208
14311TIP3   OH264423   6.619   1.774   0.020 -0.3387  0.5770 -0.6696
14311TIP3    H164424   6.550   1.714   0.049  0.4962 -0.3298 -0.5303
14311TIP3    H264425   6.615   1.770  -0.076  0.4641 -0.6055 -0.6719
14312TIP3   OH264426   3.689   5.312  14.610 -0.1402  0.1103  0.1291
14312TIP3    H164427   3.653   5.225  14.595 -0.5180  0.3270 -0.2330
14312TIP3    H264428   3.776   5.296  14.646  0.7594 -0.4495 -2.1098
14313TIP3   OH264429   0.544   4.924  14.810  0.5014  0.1609  0.6097
14313TIP3    H164430   0.583   4.928  14.898  1.7854 -0.2421  0.0805
14313TIP3    H264431   0.568   4.838  14.777 -0.6239  0.0130  0.1406
14314TIP3   OH264432   4.067   3.786   1.447  0.1885  0.0615 -0.5236
14314TIP3    H164433   4.113   3.859   1.406  1.2139 -0.3833 -0.2173
14314TIP3    H264434   4.010   3.752   1.378 -1.5469  2.1326 -0.1939
14315TIP3   OH264435   4.025   1.494   5.776  0.0567 -0.2490  0.4857
14315TIP3    H164436   3.966   1.546   5.831  0.2113 -0.2490  0.6536
14315TIP3    H264437   3.991   1.505   5.687 -0.0428 -0.0403  0.5494
14316TIP3   OH264438   6.028   3.429   5.882  0.1256 -0.5110  0.1439
14316TIP3    H164439   6.085   3.372   5.934  0.8626  0.6929  0.7143
14316TIP3    H264440   6.006   3.501   5.941  1.0336  0.9330 -1.2005
14317TIP3   OH264441   4.905   3.726   5.550  0.2884  0.1092  0.1066
14317TIP3    H164442   4.984   3.731   5.497  0.3303 -0.9280  0.0496
14317TIP3    H264443   4.863   3.812   5.539 -0.3252 -0.4517 -2.6119
14318TIP3   OH264444   3.467   3.028  15.722  0.3939 -0.6134 -0.1391
14318TIP3    H164445   3.546   2.993  15.763 -0.0204 -0.4655  0.8343
14318TIP3    H264446   3.481   3.017  15.628  0.9168 -2.0224  0.0688
14319TIP3   OH264447   1.028   2.585   3.294  0.0680 -0.1973 -0.4851
14319TIP3    H164448   1.026   2.622   3.383  0.0289  0.7997 -0.8844
14319TIP3    H264449   1.115   2.605   3.262  0.0983 -0.6018 -0.6564
14320TIP3   OH264450   6.343   4.394  12.047  0.1698  0.2129 -0.0192
14320TIP3    H164451   6.285   4.408  12.122  0.1643  0.3128 -0.0408
14320TIP3    H264452   6.297   4.436  11.974 -0.5891 -1.2525 -0.4248
14321TIP3   OH264453   5.389   6.097  15.668 -0.3521 -0.1311  0.0084
14321TIP3    H164454   5.445   6.170  15.641 -1.1311  0.0147 -1.2959
14321TIP3    H264455   5.301   6.134  15.667 -0.6272 -0.7553  0.6326
14322TIP3   OH264456   3.516   6.132   2.823  0.1913  0.5998 -0.1580
14322TIP3    H164457   3.497   6.178   2.904  1.1394  0.3549  0.2142
14322TIP3    H264458   3.457   6.172   2.758 -1.3108  0.0997  0.8490
14323TIP3   OH264459   0.877   5.857  16.904  0.2611 -0.4083  0.2576
14323TIP3    H164460   0.912   5.770  16.882 -1.2925 -0.8572 -0.6158
14323TIP3    H264461   0.848   5.893  16.820 -0.9859  0.0871  0.8736
14324TIP3   OH264462   3.412   2.809  14.156  0.5365  0.6671  0.0340
14324TIP3    H164463   3.320   2.795  14.179  1.1692 -1.5145  1.5667
14324TIP3    H264464   3.409   2.860  14.075 -2.0182  0.1755 -0.2677
14325TIP3   OH264465   1.943   0.246  14.212  0.3765  0.1237 -0.5318
14325TIP3    H164466   2.022   0.299  14.199 -0.4941  1.5936 -0.1272
14325TIP3    H264467   1.872   0.310  14.214 -0.6530 -1.0098  0.8170
14326TIP3   OH264468   0.192   0.267  17.016 -0.1270 -0.2200  0.6144
14326TIP3    H164469   0.283   0.295  17.007 -0.6908  1.3070 -1.2053
14326TIP3    H264470   0.180   0.252  17.110  1.3709  1.9156  1.2305
14327TIP3   OH264471   5.608   0.326   1.593 -0.3896  0.0641 -0.0149
14327TIP3    H164472   5.655   0.308   1.675  1.9390  1.5452 -0.9261
14327TIP3    H264473   5.521   0.355   1.621 -0.4480 -1.6156  1.7999
14328TIP3   OH264474   4.971   4.877   4.797  0.5431 -0.3837 -0.8384
14328TIP3    H164475   5.019   4.815   4.742 -1.0069 -1.0293 -1.5151
14328TIP3    H264476   4.996   4.855   4.886 -0.0840 -2.1101 -1.0601
14329TIP3   OH264477   4.106   2.990   5.500  0.3018 -0.2343  0.2508
14329TIP3    H164478   4.044   3.063   5.503 -1.2793 -1.5561  0.9044
14329TIP3    H264479   4.185   3.028   5.459 -0.8022  1.5713 -0.3364
14330TIP3   OH264480   3.951   3.770  12.971  0.1617 -0.3874 -0.1111
14330TIP3    H164481   3.889   3.722  13.027  0.5226 -1.0006 -0.2242
14330TIP3    H264482   3.945   3.726  12.886  0.1021  0.1193 -0.3702
14331TIP3   OH264483   5.307   3.915  17.037 -0.2781 -0.2993  0.1713
14331TIP3    H164484   5.254   3.880  16.966 -0.3109  1.5413 -0.7651
14331TIP3    H264485   5.394   3.876  17.023 -1.0120 -2.3860  1.0141
14332TIP3   OH264486   4.066   2.578  12.467  0.2092 -0.4980  0.1121
14332TIP3    H164487   4.119   2.508  12.506  0.3086 -0.4373  0.0875
14332TIP3    H264488   4.125   2.654  12.464 -0.0130 -0.3081  0.4832
14333TIP3   OH264489   2.322   5.253  11.617 -0.1273  0.1840 -0.2328
14333TIP3    H164490   2.320   5.157  11.609 -1.2549  0.1385  0.4190
14333TIP3    H264491   2.391   5.269  11.682 -0.7617 -0.2711  0.5697
14334TIP3   OH264492   3.741   4.471  15.464 -0.6653 -0.4857 -0.4394
14334TIP3    H164493   3.653   4.434  15.461 -1.7094  1.4493  2.5569
14334TIP3    H264494   3.787   4.420  15.530 -1.1898  1.4941  1.5759
14335TIP3   OH264495   3.696   6.593  12.822 -0.7870 -0.3484  0.3465
14335TIP3    H164496   3.789   6.614  12.831 -1.1483  1.3404  0.6048
14335TIP3    H264497   3.652   6.677  12.836 -2.2994 -0.9142 -0.7744
14336TIP3   OH264498   3.165   3.796  15.716  0.7513  0.2532  0.3794
14336TIP3    H164499   3.142   3.888  15.730 -0.4236  0.3455 -1.7205
14336TIP3    H264500   3.085   3.756  15.681  1.3838 -1.4777  0.7890
14337TIP3   OH264501   4.283   5.836  14.959  0.2062  0.1001  0.4389
14337TIP3    H164502   4.233   5.900  15.010 -0.5922 -0.4363  0.3504
14337TIP3    H264503   4.339   5.792  15.023 -0.3351 -0.1357  0.7619
14338TIP3   OH264504   4.440   5.239   5.018  0.1195  0.7564  0.0843
14338TIP3    H164505   4.392   5.301   4.963 -1.2203 -0.3343 -0.0141
14338TIP3    H264506   4.424   5.269   5.107 -2.4103 -0.6685  0.1877
14339TIP3   OH264507   3.602   3.347   2.704  0.2898  0.3747 -0.5358
14339TIP3    H164508   3.537   3.310   2.643 -1.3461  1.3555  0.5605
14339TIP3    H264509   3.587   3.441   2.700  0.9226  0.5239  0.5441
14340TIP3   OH264510   6.202   3.229   2.441  0.0048  0.0083  0.7732
14340TIP3    H164511   6.190   3.312   2.488  1.4027  0.7112 -0.0541
14340TIP3    H264512   6.136   3.171   2.479  0.7212  0.6715  3.2461
14341TIP3   OH264513   0.656   3.617   4.856  0.0201  0.2933 -0.0141
14341TIP3    H164514   0.673   3.533   4.812 -0.3045  0.6686 -0.8805
14341TIP3    H264515   0.600   3.665   4.795 -2.8255 -0.2229  1.9744
14342TIP3   OH264516   2.735   4.705   2.220  0.2285 -0.0855 -0.2024
14342TIP3    H164517   2.784   4.782   2.248  1.5714 -1.2444  0.8020
14342TIP3    H264518   2.769   4.634   2.275  0.9488 -1.9455 -2.8432
14343TIP3   OH264519   2.120   5.184  12.053  0.0897 -0.5276  0.3443
14343TIP3    H164520   2.135   5.272  12.020 -0.9771 -0.5407 -0.2229
14343TIP3    H264521   2.189   5.131  12.014  1.2040  0.1858  1.3032
14344TIP3   OH264522   2.555   3.490  15.209  0.1645  0.1421  0.0056
14344TIP3    H164523   2.512   3.532  15.135 -0.8174  1.0324  1.0443
14344TIP3    H264524   2.635   3.542  15.224  1.0933 -0.8555 -1.2350
14345TIP3   OH264525   3.709   0.030   5.793  0.0571  0.1762 -0.5667
14345TIP3    H164526   3.646  -0.025   5.747 -1.7923  1.4076  0.3793
14345TIP3    H264527   3.698   0.007   5.885  1.7546 -0.3048 -0.4431
14346TIP3   OH264528   1.520   2.836  10.456  0.0261 -0.1760 -0.4159
14346TIP3    H164529   1.598   2.886  10.429  0.6000 -0.9789 -0.2993
14346TIP3    H264530   1.450   2.868  10.400  0.3939  0.7123 -0.3857
14347TIP3   OH264531   5.092   0.198  11.985 -0.0943 -0.8784 -0.3324
14347TIP3    H164532   5.122   0.109  11.964  1.5303  0.2445 -3.2719
14347TIP3    H264533   5.020   0.213  11.924  1.7881  0.9087 -2.2509
14348TIP3   OH264534   0.580   2.169   2.909 -0.7804 -0.0936  0.2238
14348TIP3    H164535   0.487   2.174   2.887 -1.8864 -0.4069  4.2034
14348TIP3    H264536   0.596   2.077   2.925 -0.1537  0.1226  0.8909
14349TIP3   OH264537   2.827   3.542   0.090  0.3218  0.1613 -0.0222
14349TIP3    H164538   2.764   3.495   0.035 -0.5139  1.3914 -0.1664
14349TIP3    H264539   2.905   3.486   0.091  0.2860 -0.0300 -2.2765
14350TIP3   OH264540   1.335   3.434  12.752 -0.6109 -0.6303 -0.5564
14350TIP3    H164541   1.343   3.492  12.676 -0.4986  0.1762  0.0552
14350TIP3    H264542   1.398   3.468  12.815  0.1324 -1.9927 -0.5206
14351TIP3   OH264543   6.517   3.006  13.923  0.3971  0.3421 -0.5637
14351TIP3    H164544   6.574   3.016  13.846  0.4007  0.1676 -0.5831
14351TIP3    H264545   6.577   3.013  13.998  0.3972  0.4849 -0.5766
14352TIP3   OH264546   4.387   4.422   0.398  0.3885  0.0966 -0.6410
14352TIP3    H164547   4.309   4.448   0.446  1.0348  0.0648  0.4787
14352TIP3    H264548   4.386   4.476   0.319 -0.5819  0.3288 -0.4833
14353TIP3   OH264549   3.015   5.870  14.782  0.5489  0.4450 -0.0583
14353TIP3    H164550   3.071   5.868  14.704  1.7383 -2.0816  0.7836
14353TIP3    H264551   2.926   5.861  14.747  0.9276  0.8315 -1.1809
14354TIP3   OH264552   5.186   3.243  12.870  0.4306 -0.1817  0.1663
14354TIP3    H164553   5.242   3.188  12.816  0.4562 -0.4910  0.5062
14354TIP3    H264554   5.101   3.242  12.825  0.3490 -0.7362  0.3275
14355TIP3   OH264555   6.160   5.217  11.638 -0.0796 -0.3056 -0.1025
14355TIP3    H164556   6.178   5.303  11.675  0.6233 -0.8632  0.9200
14355TIP3    H264557   6.179   5.226  11.544 -3.2425  1.5230 -0.6920
14356TIP3   OH264558   2.615   2.980   5.502  0.1298  0.1296  0.4937
14356TIP3    H164559   2.708   3.002   5.496  0.4517 -1.1666  0.5095
14356TIP3    H264560   2.594   2.991   5.594  0.4285 -0.1732  0.6014
14357TIP3   OH264561   3.235   6.016   0.652 -0.5814  0.1370 -0.5400
14357TIP3    H164562   3.318   6.035   0.606  0.3994  0.6943  1.3615
14357TIP3    H264563   3.170   6.070   0.606  0.1239 -0.1722 -1.9658
14358TIP3   OH264564   2.035   2.692   2.573 -0.3392 -0.4283 -0.1070
14358TIP3    H164565   1.975   2.724   2.640 -2.2067 -2.1014 -0.8690
14358TIP3    H264566   2.092   2.766   2.553 -1.4607  0.8897  1.4318
14359TIP3   OH264567   4.288   0.763   2.300  1.1682 -0.0704 -0.2250
14359TIP3    H164568   4.239   0.738   2.379 -1.0930  0.1432 -1.4795
14359TIP3    H264569   4.275   0.691   2.239  0.6193  0.9086 -1.3224
14360TIP3   OH264570   1.215   1.917   4.089 -0.8397  0.1683 -0.0276
14360TIP3    H164571   1.223   1.821   4.084 -2.5255  0.0544 -3.2482
14360TIP3    H264572   1.300   1.950   4.061 -0.2817 -0.3578  0.9956
14361TIP3   OH264573   6.504   4.512  16.288 -0.0974  0.1685 -0.6210
14361TIP3    H164574   6.504   4.588  16.229  0.1342  0.1965 -0.5865
14361TIP3    H264575   6.591   4.475  16.278 -1.1998 -2.0889 -3.1891
14362TIP3   OH264576   4.682   2.936  17.023 -0.0943  0.2777 -0.3080
14362TIP3    H164577   4.721   2.916  17.108  0.0973  0.6041 -0.3168
14362TIP3    H264578   4.627   2.861  17.004 -0.3901  0.3432  0.2562
14363TIP3   OH264579   6.350   4.686   3.634  0.0331  0.0798 -0.7516
14363TIP3    H164580   6.361   4.771   3.676 -0.4217 -0.6074  0.8432
14363TIP3    H264581   6.299   4.634   3.697 -0.8086 -0.9714 -2.2342
14364TIP3   OH264582   5.879   2.053   2.007 -0.1228 -0.2547 -0.4655
14364TIP3    H164583   5.880   2.056   1.911 -2.6471 -0.9647 -0.5917
14364TIP3    H264584   5.820   2.125   2.032 -0.2941 -0.7119  0.4907
14365TIP3   OH264585   6.120   2.027   0.398 -0.2296 -0.4740 -0.1067
14365TIP3    H164586   6.101   2.019   0.491 -0.4621 -1.3488 -0.2236
14365TIP3    H264587   6.214   2.010   0.392  0.1445  1.2724  0.1542
14366TIP3   OH264588   4.402   3.947   1.509 -0.6755  0.4289 -0.3788
14366TIP3    H164589   4.432   3.888   1.439 -1.1780 -0.5950  0.2497
14366TIP3    H264590   4.312   3.968   1.485 -1.3657 -1.1077  0.6714
14367TIP3   OH264591   5.942   0.252   5.271 -0.3800  0.6604 -0.7255
14367TIP3    H164592   5.948   0.345   5.249  0.6534  1.2190  1.6405
14367TIP3    H264593   5.997   0.208   5.206 -0.4948  1.7290 -1.5649
14368TIP3   OH264594   4.533   0.765  17.040  0.2228  0.2809  0.1770
14368TIP3    H164595   4.459   0.814  17.002  0.0198  0.0147  0.2262
14368TIP3    H264596   4.492   0.689  17.080  0.6282 -0.3620 -0.6109
14369TIP3   OH264597   6.303   4.847   6.060  0.8509 -0.2314  0.1880
14369TIP3    H164598   6.387   4.883   6.090  0.7111  0.3433 -0.1040
14369TIP3    H264599   6.237   4.899   6.105  0.6455 -1.1182  0.9306
14370TIP3   OH264600   3.126   6.804   0.494 -0.5987  0.4366 -0.2889
14370TIP3    H164601   3.049   6.858   0.512  1.9356  3.8704  1.6837
14370TIP3    H264602   3.176   6.854   0.429 -0.4066 -2.2331 -2.3598
14371TIP3   OH264603   6.105   5.044  15.297 -0.0597 -0.6048  0.3181
14371TIP3    H164604   6.078   5.070  15.209  3.0735  0.6064 -0.4275
14371TIP3    H264605   6.066   5.110  15.354 -2.6826 -1.7809  0.0089
14372TIP3   OH264606   5.237   6.101   2.839 -0.4326 -0.3026 -0.2236
14372TIP3    H164607   5.238   6.174   2.901  0.5977  1.0325 -1.7514
14372TIP3    H264608   5.157   6.115   2.787  1.2358  1.5824 -2.5069
14373TIP3   OH264609   0.856   1.834  12.628  0.1145  0.3778 -0.4065
14373TIP3    H164610   0.910   1.802  12.556  1.2163 -0.4355  0.7194
14373TIP3    H264611   0.816   1.914  12.595  1.1481  0.4044 -1.6756
14374TIP3   OH264612   2.360   1.162   4.994  0.0662  0.1912  0.4805
14374TIP3    H164613   2.345   1.173   4.900  1.6578  2.2643  0.3937
14374TIP3    H264614   2.310   1.233   5.034 -0.9951 -0.9743  1.2715
14375TIP3   OH264615   3.983   3.377  15.397  0.3625 -0.1844  0.4390
14375TIP3    H164616   3.930   3.321  15.453  0.8826  0.6370  1.8165
14375TIP3    H264617   4.070   3.337  15.400  0.5005  0.1245  0.6149
14376TIP3   OH264618   1.020   2.737   5.168  0.4617  0.4510  0.1294
14376TIP3    H164619   1.036   2.681   5.092  0.7767  1.4341 -0.5521
14376TIP3    H264620   1.108   2.763   5.197  0.4553  4.6156 -2.6671
14377TIP3   OH264621   1.699   4.497  12.590  0.3081 -0.3084  0.0747
14377TIP3    H164622   1.635   4.475  12.523  0.4676 -2.8438  0.6620
14377TIP3    H264623   1.672   4.448  12.667  0.6792  1.7808  1.6412
14378TIP3   OH264624   1.259   0.553   4.183  0.1808  0.8273 -0.2591
14378TIP3    H164625   1.273   0.467   4.143 -0.9517  0.8693 -0.7831
14378TIP3    H264626   1.176   0.545   4.230  1.2890  0.8980  1.8406
14379TIP3   OH264627   3.514   3.088   3.914 -0.5110  0.2866  0.0225
14379TIP3    H164628   3.437   3.068   3.862 -1.8396  1.7134  1.3666
14379TIP3    H264629   3.520   3.183   3.913  0.1562  0.2828  1.4459
14380TIP3   OH264630   4.381   2.907  14.158 -0.3992 -0.1034 -0.0657
14380TIP3    H164631   4.325   2.898  14.081  1.4778  0.2089 -1.5485
14380TIP3    H264632   4.417   2.820  14.172  1.9905  0.5202 -1.7998
14381TIP3   OH264633   3.378   4.530  11.050  0.1903 -0.1612  0.0700
14381TIP3    H164634   3.332   4.612  11.036  1.3935  0.5198 -0.0443
14381TIP3    H264635   3.444   4.550  11.116  0.2691 -1.1330  0.3023
14382TIP3   OH264636   1.211   2.338   2.444 -0.4114  0.0183  0.4615
14382TIP3    H164637   1.158   2.373   2.372 -0.4902 -1.7219 -0.3925
14382TIP3    H264638   1.248   2.257   2.409  3.4405  1.4484  0.7617
14383TIP3   OH264639   3.557   5.784   5.155  0.3356 -0.8875  0.0071
14383TIP3    H164640   3.462   5.793   5.147  0.3888 -0.9494 -0.7766
14383TIP3    H264641   3.576   5.804   5.247 -0.5310 -1.7399  0.3907
14384TIP3   OH264642   5.699   6.648  13.069 -0.4999 -0.6483  0.3855
14384TIP3    H164643   5.665   6.559  13.057  0.4216 -0.9356 -0.2090
14384TIP3    H264644   5.754   6.662  12.992  0.9811 -0.3289  1.4785
14385TIP3   OH264645   1.977   0.049  17.031  0.3258  0.1475 -0.5686
14385TIP3    H164646   1.925   0.126  17.007 -1.2546 -0.9439 -0.8162
14385TIP3    H264647   1.923   0.002  17.094  1.0220 -1.0252 -0.8078
14386TIP3   OH264648   0.149   0.857  12.602 -0.5575  0.1020  0.0058
14386TIP3    H164649   0.196   0.940  12.596  1.6603 -1.1239 -0.5621
14386TIP3    H264650   0.137   0.843  12.696  3.5985 -1.2277  0.5370
14387TIP3   OH264651   5.304   5.529   1.271  0.3229  0.2221 -0.2961
14387TIP3    H164652   5.327   5.584   1.346  0.7584  0.0071 -0.2712
14387TIP3    H264653   5.225   5.570   1.234  0.2235  0.4431  0.1567
14388TIP3   OH264654   0.933   4.543   6.003 -0.1122 -0.2556 -0.7976
14388TIP3    H164655   0.995   4.507   5.938  0.0998 -0.7988 -0.3000
14388TIP3    H264656   0.942   4.486   6.079  1.4090  1.7428  0.6411
14389TIP3   OH264657   0.638   0.795  13.766 -0.0732  0.1059 -0.0753
14389TIP3    H164658   0.630   0.705  13.734  1.8872  0.0630 -0.5587
14389TIP3    H264659   0.558   0.838  13.736 -0.1063 -0.9618 -1.6517
14390TIP3   OH264660   6.016   4.531   2.060 -0.0638  0.0601 -0.0825
14390TIP3    H164661   6.058   4.480   1.991  0.1742 -0.1403  0.2049
14390TIP3    H264662   6.038   4.622   2.039  1.0098 -0.0785  0.3768
14391TIP3   OH264663   4.995   4.872   0.650  0.9315  0.0166 -0.3704
14391TIP3    H164664   4.943   4.950   0.667  1.4979  0.3287 -0.0402
14391TIP3    H264665   4.942   4.821   0.589  1.0619  1.2033 -1.5273
14392TIP3   OH264666   6.650   0.191   0.267  0.6643 -0.0091 -0.2951
14392TIP3    H164667   6.570   0.236   0.294 -0.4777 -1.0948 -1.7169
14392TIP3    H264668   6.698   0.257   0.216  0.2639  0.3969 -0.1509
14393TIP3   OH264669   4.777   3.458  14.987 -0.4740  0.0493  0.9104
14393TIP3    H164670   4.701   3.427  14.939  1.2520 -0.1248 -1.9631
14393TIP3    H264671   4.756   3.549  15.010 -1.8569 -0.2592  0.9103
14394TIP3   OH264672   1.957   3.118  12.018  0.0782 -0.3020  0.0898
14394TIP3    H164673   1.994   3.194  12.063 -1.4519 -0.0339  0.9771
14394TIP3    H264674   1.979   3.131  11.926 -0.3078  1.3416  0.2003
14395TIP3   OH264675   5.254   1.811   0.977 -0.3526  0.1707 -0.5006
14395TIP3    H164676   5.243   1.796   1.071  0.2735 -1.7914 -0.6767
14395TIP3    H264677   5.244   1.724   0.938  2.5521  0.3347 -1.8995
14396TIP3   OH264678   6.743   6.052  11.719  0.1865 -0.1382  0.3698
14396TIP3    H164679   6.830   6.045  11.759  0.8658 -2.1054 -1.2350
14396TIP3    H264680   6.740   6.141  11.683  1.7063 -0.1476  0.1439
14397TIP3   OH264681   5.458   6.455  16.264  0.4685  0.1464  0.4177
14397TIP3    H164682   5.372   6.415  16.278  0.3705  0.7137  1.5596
14397TIP3    H264683   5.446   6.547  16.290  1.1670  0.4813 -0.3685
14398TIP3   OH264684   0.826   4.294   4.768  0.1306  0.1892 -0.3590
14398TIP3    H164685   0.862   4.364   4.713 -0.2997  0.4586 -0.2995
14398TIP3    H264686   0.885   4.220   4.754  2.1589  1.3159  1.5707
14399TIP3   OH264687   0.804   6.712   0.713  0.1288 -0.0457 -0.4118
14399TIP3    H164688   0.842   6.633   0.751 -1.4649 -0.2035  0.9763
14399TIP3    H264689   0.786   6.768   0.789 -0.9935  0.6237 -1.1480
14400TIP3   OH264690   6.223   0.225  11.828 -0.5534  0.0961  0.4795
14400TIP3    H164691   6.308   0.238  11.870 -0.4254 -1.3542  0.7145
14400TIP3    H264692   6.178   0.162  11.883 -1.0218 -0.6141 -0.6733
14401TIP3   OH264693   6.774   3.108   2.462  0.0830 -0.0808  0.1170
14401TIP3    H164694   6.833   3.104   2.537 -0.0118  1.4237  0.3054
14401TIP3    H264695   6.707   3.043   2.480  1.0571 -1.0356  0.4321
14402TIP3   OH264696   5.212   5.707   5.419 -0.0629 -0.7621  0.0337
14402TIP3    H164697   5.123   5.675   5.407  0.0443 -1.4972  1.0303
14402TIP3    H264698   5.244   5.659   5.496  0.6770  0.5554  0.5762
14403TIP3   OH264699   3.206   2.369   3.699 -0.2843 -0.0128  0.0662
14403TIP3    H164700   3.258   2.364   3.619 -1.2675  0.5589 -0.6318
14403TIP3    H264701   3.262   2.416   3.761  0.7851 -1.1311 -0.0155
14404TIP3   OH264702   5.408   5.645   2.613  0.5558 -0.3760 -0.2556
14404TIP3    H164703   5.498   5.657   2.585  1.0505 -0.1100  1.3307
14404TIP3    H264704   5.380   5.733   2.640 -0.2876 -0.3999 -1.0069
14405TIP3   OH264705   6.305   4.713   2.343  0.1534 -0.1131 -0.4079
14405TIP3    H164706   6.285   4.696   2.435 -0.7917  0.5323 -0.4799
14405TIP3    H264707   6.270   4.636   2.297  0.7252 -0.4887 -0.2283
14406TIP3   OH264708   4.018   1.569  13.779  0.2468  0.1707 -0.2584
14406TIP3    H164709   3.963   1.624  13.835 -0.6371 -0.7906 -0.1685
14406TIP3    H264710   4.077   1.525  13.840 -1.0749 -1.2944  0.0289
14407TIP3   OH264711   2.443   5.807  14.422  0.1712 -0.4216  0.2175
14407TIP3    H164712   2.493   5.734  14.459 -1.2101 -0.5152  2.0388
14407TIP3    H264713   2.481   5.885  14.463  0.8175 -0.1948 -0.7702
14408TIP3   OH264714   5.390   4.093   1.815  0.4211 -0.4237 -0.0887
14408TIP3    H164715   5.344   4.057   1.739  0.5897  1.1635 -0.9967
14408TIP3    H264716   5.456   4.151   1.777  0.5550  0.3554  1.2792
14409TIP3   OH264717   2.795   1.831   1.005 -0.3412  0.0632 -0.0225
14409TIP3    H164718   2.832   1.873   0.927 -0.4399  0.2793  0.0486
14409TIP3    H264719   2.808   1.737   0.989  1.3864  0.1587  0.5633
14410TIP3   OH264720   5.067   0.769  11.678 -0.1208  0.1391  0.1626
14410TIP3    H164721   5.001   0.721  11.628 -0.4157 -0.5588  1.1935
14410TIP3    H264722   5.130   0.703  11.705  1.4514  0.9060 -1.4179
14411TIP3   OH264723   2.435   2.864   4.425  0.2349  0.4085 -0.1416
14411TIP3    H164724   2.424   2.847   4.332  0.2928  0.8186 -0.2268
14411TIP3    H264725   2.426   2.959   4.433  0.5843  0.4169  0.2180
14412TIP3   OH264726   4.951   3.257  14.291  0.3398 -0.2483 -0.4247
14412TIP3    H164727   4.889   3.245  14.363  0.5721  1.8376  0.1965
14412TIP3    H264728   4.913   3.207  14.218 -1.3333 -0.1773  0.3439
14413TIP3   OH264729   0.964   0.134  16.658  0.3120 -0.0960  0.7476
14413TIP3    H164730   1.050   0.106  16.688  0.4764 -0.0565  0.3260
14413TIP3    H264731   0.949   0.218  16.703  0.5494 -0.0431  0.7301
14414TIP3   OH264732   6.188   4.979  10.427 -0.0363  0.4632 -0.2513
14414TIP3    H164733   6.111   5.016  10.470  1.5686  0.3857  2.9541
14414TIP3    H264734   6.203   5.037  10.352 -0.8703  2.9612  1.3917
14415TIP3   OH264735   3.737   3.747  14.561  0.1532  0.2512  0.3634
14415TIP3    H164736   3.757   3.711  14.647  0.0343 -0.0912  0.2500
14415TIP3    H264737   3.796   3.821  14.551  1.3138 -0.6819  0.0634
14416TIP3   OH264738   2.180   5.863   2.807 -0.2037 -0.1151  0.2335
14416TIP3    H164739   2.219   5.916   2.875  0.3805  0.9988 -0.9278
14416TIP3    H264740   2.254   5.834   2.753 -0.7783  0.4311 -0.8928
14417TIP3   OH264741   0.673   6.562  12.063  0.1866 -0.0792  0.4307
14417TIP3    H164742   0.718   6.478  12.068  0.8578  0.2781  0.4417
14417TIP3    H264743   0.633   6.573  12.150  3.1259  1.2737  1.7288
14418TIP3   OH264744   0.883   3.235   4.214  0.2751  0.1988  0.1110
14418TIP3    H164745   0.812   3.275   4.264 -0.0351  0.4501 -0.5268
14418TIP3    H264746   0.924   3.175   4.276  0.6530  1.3720  1.0408
14419TIP3   OH264747   0.089   4.104  16.552  0.4452  0.1202  0.0066
14419TIP3    H164748   0.156   4.061  16.499  1.6437  0.8881  0.8377
14419TIP3    H264749   0.028   4.034  16.574 -0.1743 -0.1949 -2.4390
14420TIP3   OH264750   1.724   6.007   3.653  0.3520 -0.3222 -0.0726
14420TIP3    H164751   1.659   6.067   3.618  0.2411 -0.0328  0.6205
14420TIP3    H264752   1.673   5.938   3.695  0.4811 -0.7910 -0.6617
14421TIP3   OH264753   5.652   5.781   2.520 -0.4075 -0.0086 -0.0596
14421TIP3    H164754   5.654   5.752   2.428 -0.0848 -1.5614  0.4039
14421TIP3    H264755   5.744   5.795   2.543 -0.5733  1.9648 -0.4019
14422TIP3   OH264756   2.141   5.210  13.494 -0.3696 -0.1939  0.1709
14422TIP3    H164757   2.083   5.270  13.446 -0.7542 -0.7584 -0.0862
14422TIP3    H264758   2.149   5.134  13.436  0.8421 -0.0200  0.0893
14423TIP3   OH264759   3.845   1.828  14.378  0.4945 -0.0597  0.3205
14423TIP3    H164760   3.774   1.763  14.382  0.9117 -0.5522 -0.1647
14423TIP3    H264761   3.802   1.907  14.345 -0.1070  0.0530  1.3157
14424TIP3   OH264762   5.095   3.259   3.962 -0.7575 -0.0571 -0.0402
14424TIP3    H164763   5.097   3.234   4.054  0.6701  0.7682  0.1820
14424TIP3    H264764   5.178   3.305   3.947 -1.5567  1.0488 -1.3950
14425TIP3   OH264765   1.743   3.726   5.512 -0.0305  0.1090 -0.5927
14425TIP3    H164766   1.763   3.762   5.599  0.2338 -2.8148  0.6727
14425TIP3    H264767   1.690   3.794   5.470  0.2624  1.8551  1.6419
14426TIP3   OH264768   4.866   5.545   6.043 -0.4241  0.0276  0.6633
14426TIP3    H164769   4.900   5.495   5.969 -1.0889 -0.5191  0.7130
14426TIP3    H264770   4.940   5.552   6.104  0.1967  0.6744 -0.1307
14427TIP3   OH264771   0.101   6.768  10.675 -0.1030  0.5036 -0.3891
14427TIP3    H164772   0.127   6.839  10.616  1.4988  1.2256  1.0683
14427TIP3    H264773   0.156   6.781  10.753 -0.5739 -1.6852  0.3777
14428TIP3   OH264774   4.210   6.664   0.587  0.2950 -0.6128 -0.6323
14428TIP3    H164775   4.273   6.687   0.519  0.6544  0.1608 -0.0556
14428TIP3    H264776   4.126   6.695   0.554  0.5546  0.2539 -0.4884
14429TIP3   OH264777   3.403   5.724   1.285  0.0048  0.7898  0.0179
14429TIP3    H164778   3.463   5.657   1.251  0.2903  0.0877  1.7843
14429TIP3    H264779   3.316   5.686   1.272  0.1035  0.5579  0.0237
14430TIP3   OH264780   1.084   0.829   3.482  0.3131 -0.1616 -0.3194
14430TIP3    H164781   1.087   0.924   3.490 -0.1633  0.0683 -2.4267
14430TIP3    H264782   1.033   0.800   3.558  1.4351  1.1272  0.9827
14431TIP3   OH264783   0.284   6.863  10.870  0.0221  0.3527 -0.4798
14431TIP3    H164784   0.355   6.799  10.857  2.2787  2.2349  1.5273
14431TIP3    H264785   0.309   6.937  10.814 -0.3566  1.0168  0.2117
14432TIP3   OH264786   2.643   0.434   3.868 -0.2126  0.1943 -0.4002
14432TIP3    H164787   2.644   0.340   3.883 -0.4909  0.2416 -0.0874
14432TIP3    H264788   2.676   0.444   3.778 -0.7705 -0.2415 -0.6578
14433TIP3   OH264789   1.457   3.610  12.910  0.0786  0.4444 -0.7626
14433TIP3    H164790   1.520   3.633  12.978  0.1142  0.0323 -0.6560
14433TIP3    H264791   1.462   3.683  12.847  0.7894  0.3321 -0.8478
14434TIP3   OH264792   4.946   0.983   2.541  0.0621 -0.1000  0.3729
14434TIP3    H164793   4.925   0.896   2.508 -0.0656 -0.4299  1.2931
14434TIP3    H264794   5.035   0.976   2.574 -0.8159 -0.6491  2.8568
14435TIP3   OH264795   2.780   3.944   3.749 -0.0064  0.3873  0.7121
14435TIP3    H164796   2.829   3.925   3.669 -0.2903 -1.8669  0.9898
14435TIP3    H264797   2.844   3.983   3.808  0.8366 -0.2160  0.2234
14436TIP3   OH264798   0.387   5.707  15.412  0.9940  0.5169  0.0044
14436TIP3    H164799   0.354   5.790  15.447 -2.3070 -2.1232  4.0847
14436TIP3    H264800   0.313   5.670  15.364  0.7854 -1.8063  1.9218
14437TIP3   OH264801   1.775   4.566   4.772  0.1997 -0.0861  0.3368
14437TIP3    H164802   1.759   4.653   4.808  0.0825  0.4311 -0.9509
14437TIP3    H264803   1.842   4.579   4.706  0.2434 -0.9984  0.1883
14438TIP3   OH264804   4.163   4.130  15.576  0.6678 -0.3881 -0.6308
14438TIP3    H164805   4.243   4.083  15.601  1.1668  1.4044  1.5041
14438TIP3    H264806   4.166   4.210  15.629 -2.2859 -0.0061 -0.9195
14439TIP3   OH264807   1.482   0.356  14.610  0.0384 -0.0783 -0.2195
14439TIP3    H164808   1.548   0.289  14.594 -0.6617 -0.8494  0.0303
14439TIP3    H264809   1.474   0.402  14.527  2.8396  1.8929  0.4362
14440TIP3   OH264810   6.568   1.400  15.203 -0.3488  0.0389  0.3283
14440TIP3    H164811   6.581   1.418  15.296 -0.0691  1.4989  0.0243
14440TIP3    H264812   6.484   1.354  15.199  1.4114 -3.7197  1.6662
14441TIP3   OH264813   2.712   1.272  15.798  0.3360 -0.0185 -0.2732
14441TIP3    H164814   2.768   1.194  15.802 -1.3570 -1.2683  1.2102
14441TIP3    H264815   2.623   1.236  15.791 -0.6883  1.6302  2.5070
14442TIP3   OH264816   3.597   5.275  10.686  0.2927  0.2600  0.2072
14442TIP3    H164817   3.568   5.317  10.767 -1.0443 -0.7159  0.2624
14442TIP3    H264818   3.681   5.234  10.710 -0.9840 -1.6992  1.7505
14443TIP3   OH264819   6.068   5.218   0.765  0.4825 -0.4414  0.2904
14443TIP3    H164820   6.043   5.217   0.858  0.2670 -1.5911  0.2321
14443TIP3    H264821   6.122   5.141   0.754  2.4001  0.8876 -0.0691
14444TIP3   OH264822   5.348   2.215  12.727  0.2392  0.4376  0.0121
14444TIP3    H164823   5.440   2.192  12.743 -0.0077  0.5799  1.9104
14444TIP3    H264824   5.347   2.311  12.724  0.2491  0.4157 -0.6976
14445TIP3   OH264825   4.034   1.209   4.564 -0.0001  0.4240 -0.2847
14445TIP3    H164826   4.015   1.117   4.585  1.3299  0.2985  0.4632
14445TIP3    H264827   3.947   1.249   4.555 -0.6095 -0.7156  0.2445
14446TIP3   OH264828   1.564   0.183  15.247 -0.1200 -0.0211  0.0270
14446TIP3    H164829   1.589   0.185  15.340  0.2090  0.2885 -0.0635
14446TIP3    H264830   1.647   0.195  15.200 -0.3769  0.5763 -0.2901
14447TIP3   OH264831   5.191   4.642   3.079 -0.1265 -0.1499  0.0290
14447TIP3    H164832   5.145   4.716   3.120 -1.4827 -0.9914  0.0515
14447TIP3    H264833   5.185   4.572   3.144  0.8006 -0.4238 -0.1681
14448TIP3   OH264834   3.703   0.336   1.756 -0.4114 -0.4414  0.2792
14448TIP3    H164835   3.785   0.286   1.757 -0.5887 -0.7316  0.4842
14448TIP3    H264836   3.724   0.418   1.801  0.1180  0.0625 -0.8476
14449TIP3   OH264837   4.319   1.101  11.824 -0.2861 -0.0986 -0.1401
14449TIP3    H164838   4.315   1.010  11.796 -2.6219 -0.1657  0.1977
14449TIP3    H264839   4.277   1.150  11.754  1.1254  0.7753 -0.4121
14450TIP3   OH264840   2.442   1.544   3.251  0.4990  0.0371 -0.5321
14450TIP3    H164841   2.471   1.495   3.173  1.2322 -0.9276  0.3156
14450TIP3    H264842   2.418   1.630   3.217  0.3085 -0.5195 -1.9043
14451TIP3   OH264843   5.821   2.657  15.732 -1.0410 -0.3352 -0.5763
14451TIP3    H164844   5.789   2.735  15.686 -1.2548  0.0585  0.2066
14451TIP3    H264845   5.748   2.632  15.790 -0.4899 -0.3176  0.1439
14452TIP3   OH264846   0.885   2.671  15.777  0.0438  0.0095  0.3693
14452TIP3    H164847   0.835   2.753  15.780 -0.1229 -0.0861  0.2339
14452TIP3    H264848   0.952   2.686  15.711 -1.1999 -0.6358 -1.1111
14453TIP3   OH264849   2.555   3.745  13.484 -0.3159 -0.0878  0.1022
14453TIP3    H164850   2.561   3.769  13.392 -1.4116 -0.2169 -0.0159
14453TIP3    H264851   2.533   3.826  13.529 -0.7301 -0.2066  0.1214
14454TIP3   OH264852   6.069   3.578  11.084 -0.4966  0.1183  0.2502
14454TIP3    H164853   6.103   3.643  11.022 -1.9004 -1.3065 -2.2007
14454TIP3    H264854   5.975   3.596  11.088 -0.5085 -0.1323  1.6718
14455TIP3   OH264855   2.110   2.136  13.128 -0.0983 -0.0597  0.2490
14455TIP3    H164856   2.136   2.109  13.040  0.9999  1.1025  0.1765
14455TIP3    H264857   2.154   2.220  13.141 -0.5266 -0.0362  1.7777
14456TIP3   OH264858   0.359   2.426   3.942  0.6133 -0.3302 -0.1393
14456TIP3    H164859   0.320   2.392   4.022 -0.8095 -0.8221 -0.9903
14456TIP3    H264860   0.445   2.459   3.968 -0.3756  0.8638  1.8728
14457TIP3   OH264861   3.087   5.888   2.807  0.3036  0.1457  0.0468
14457TIP3    H164862   3.072   5.876   2.901  1.7362  2.8879  0.7212
14457TIP3    H264863   3.141   5.813   2.782  0.9887  0.0210  1.7305
14458TIP3   OH264864   4.297   2.874  12.043  0.3570  0.4218  0.2470
14458TIP3    H164865   4.265   2.800  11.992  2.1332 -0.8281  0.8351
14458TIP3    H264866   4.290   2.845  12.134 -3.5403  2.9122  0.9698
14459TIP3   OH264867   3.187   2.268  11.534 -0.1563  0.0223  0.2076
14459TIP3    H164868   3.171   2.227  11.449 -0.8111  1.1141 -0.2153
14459TIP3    H264869   3.281   2.285  11.534 -0.4298  1.7951 -1.1615
14460TIP3   OH264870   5.229   0.353   5.093 -0.4975  0.8857  0.0688
14460TIP3    H164871   5.266   0.397   5.170  0.7045  0.7881 -0.4361
14460TIP3    H264872   5.292   0.368   5.024 -1.4779  0.8088 -0.8689
14461TIP3   OH264873   5.748   6.839  11.406 -0.3358 -0.5799  0.3242
14461TIP3    H164874   5.765   6.780  11.332  0.0767 -0.5630  0.3995
14461TIP3    H264875   5.833   6.879  11.423 -0.5021 -0.3529  0.6097
14462TIP3   OH264876   5.550   4.464  10.832 -0.4064  0.0744  0.2367
14462TIP3    H164877   5.514   4.550  10.808  0.1225  0.3122  0.2806
14462TIP3    H264878   5.594   4.479  10.915  2.4104  0.5457 -1.1971
14463TIP3   OH264879   4.539   0.729   1.593  0.0247 -0.0604  0.1055
14463TIP3    H164880   4.515   0.727   1.686 -0.6000  0.8039 -0.0190
14463TIP3    H264881   4.584   0.646   1.578  2.6278  0.9181  1.8246
14464TIP3   OH264882   6.331   3.344   0.400 -0.3979 -0.1627  0.5513
14464TIP3    H164883   6.394   3.377   0.336  0.4550 -0.4189  1.2366
14464TIP3    H264884   6.360   3.255   0.419 -1.0425 -0.3289  0.7887
14465TIP3   OH264885   0.640   5.491   4.214 -0.7320 -0.0924  0.3208
14465TIP3    H164886   0.708   5.521   4.153  1.3559 -0.0093  2.5154
14465TIP3    H264887   0.557   5.511   4.170  0.6431  1.1150 -1.9041
14466TIP3   OH264888   2.052   5.618   3.428  0.1975  0.2209  0.0681
14466TIP3    H164889   2.009   5.650   3.349  0.8310 -0.4190 -0.5590
14466TIP3    H264890   2.145   5.618   3.406  0.4008  0.2256  0.8870
14467TIP3   OH264891   5.810   3.635  13.369  0.4194 -0.4902 -0.3793
14467TIP3    H164892   5.899   3.612  13.341  0.4612 -0.3127 -0.3893
14467TIP3    H264893   5.757   3.560  13.342  0.5078 -0.4452 -0.6840
14468TIP3   OH264894   3.059   5.686  15.875  0.1783  0.2275 -0.3784
14468TIP3    H164895   3.044   5.718  15.963  0.6324 -0.5895  0.0083
14468TIP3    H264896   2.987   5.721  15.823 -0.1502  0.6179  0.3372
14469TIP3   OH264897   4.835   4.128   4.769  0.4184  0.3837 -0.0589
14469TIP3    H164898   4.759   4.100   4.717  0.8974 -0.9714 -0.0806
14469TIP3    H264899   4.797   4.165   4.849 -0.2711 -0.2341 -0.0844
14470TIP3   OH264900   6.806   5.490   3.447  0.0417  0.7176 -0.6683
14470TIP3    H164901   6.727   5.521   3.403  0.0896  1.5216 -0.2183
14470TIP3    H264902   6.872   5.484   3.378 -0.9820 -2.3223 -1.5429
14471TIP3   OH264903   5.518   2.314  11.552 -0.1267 -0.3167 -0.3586
14471TIP3    H164904   5.551   2.385  11.497  0.2519 -0.1931  0.0225
14471TIP3    H264905   5.581   2.308  11.624 -1.1010  0.1392  0.5604
14472TIP3   OH264906   2.253   3.934   5.301 -0.5682 -0.2668  0.2966
14472TIP3    H164907   2.311   3.980   5.362 -0.0484  1.7243 -1.5568
14472TIP3    H264908   2.304   3.860   5.270  0.6660  0.9111 -0.5780
14473TIP3   OH264909   0.204   0.382  12.382  0.5469  0.1973 -0.3127
14473TIP3    H164910   0.150   0.451  12.421 -0.1188 -0.4482 -0.0766
14473TIP3    H264911   0.202   0.401  12.288  1.1465  1.0418 -0.1719
14474TIP3   OH264912   3.469   2.668   5.763  0.1518  0.2763 -0.6390
14474TIP3    H164913   3.524   2.614   5.707 -1.4877 -2.3750  0.1336
14474TIP3    H264914   3.483   2.633   5.851 -0.6840  1.3895 -0.0402
14475TIP3   OH264915   0.129   2.855   0.983  0.4036 -0.1369  0.1112
14475TIP3    H164916   0.058   2.845   1.047  0.4478 -3.0234 -0.1468
14475TIP3    H264917   0.205   2.879   1.036 -0.2762  0.8996  0.6601
14476TIP3   OH264918   3.358   3.611   2.883  0.0874 -0.6884  0.0592
14476TIP3    H164919   3.275   3.598   2.929 -0.2343 -0.4349 -0.4328
14476TIP3    H264920   3.377   3.704   2.895  0.3686 -0.7749  0.2814
14477TIP3   OH264921   2.487   2.796   0.185 -0.2404  0.6922 -0.0796
14477TIP3    H164922   2.550   2.832   0.123  0.4391 -1.4963 -0.7429
14477TIP3    H264923   2.532   2.800   0.270  0.1581  0.5816 -0.2838
14478TIP3   OH264924   4.280   1.384   5.720 -0.2960 -0.1504  0.7886
14478TIP3    H164925   4.333   1.462   5.703 -1.0107 -0.3782 -3.5825
14478TIP3    H264926   4.194   1.419   5.742 -0.5901  0.3879 -1.0584
14479TIP3   OH264927   5.225   3.447  15.308  0.7181  0.4481  0.6114
14479TIP3    H164928   5.210   3.533  15.348 -3.1745 -1.0350  2.8073
14479TIP3    H264929   5.155   3.438  15.243  1.3474 -0.9304  0.0832
14480TIP3   OH264930   6.398   6.300  15.894 -0.0322 -0.0193  0.5505
14480TIP3    H164931   6.337   6.233  15.863  0.3715  0.3203 -1.0780
14480TIP3    H264932   6.372   6.317  15.985  0.1616 -2.7371  1.2097
14481TIP3   OH264933   4.602   2.256   2.723 -0.2571  0.2100 -0.1071
14481TIP3    H164934   4.608   2.199   2.646 -2.8484 -0.4892  0.1120
14481TIP3    H264935   4.675   2.317   2.713 -0.7349  0.4571 -3.3792
14482TIP3   OH264936   0.605   6.172   0.531 -0.1570 -0.0407  0.3355
14482TIP3    H164937   0.694   6.196   0.554  0.3215 -1.5772  0.1562
14482TIP3    H264938   0.612   6.086   0.490 -1.8004 -0.5227  0.9669
14483TIP3   OH264939   3.063   5.791  16.941  0.0845 -0.4366 -0.1529
14483TIP3    H164940   3.066   5.887  16.936  1.7365 -0.4291  0.1927
14483TIP3    H264941   3.010   5.772  17.018 -1.0551  0.1581 -0.7598
14484TIP3   OH264942   5.592   4.199   3.235  0.3924  0.3900  0.0568
14484TIP3    H164943   5.664   4.143   3.264  1.6932  1.9589 -0.0258
14484TIP3    H264944   5.624   4.289   3.248 -1.7504  1.1574  0.5482
14485TIP3   OH264945   4.801   1.208  11.670  0.2730  0.2539 -0.3020
14485TIP3    H164946   4.851   1.273  11.719  0.5936  0.3246 -0.7138
14485TIP3    H264947   4.855   1.129  11.673 -0.8127 -0.5061  1.5327
14486TIP3   OH264948   1.772   5.478   3.293 -0.2531 -0.0664 -0.2316
14486TIP3    H164949   1.832   5.435   3.231 -0.9843 -1.3284 -0.0935
14486TIP3    H264950   1.809   5.565   3.305  0.6886 -0.2864 -1.3555
14487TIP3   OH264951   0.630   4.314   4.961  0.2871 -0.0944  0.6271
14487TIP3    H164952   0.703   4.304   4.900  0.1610 -0.0017  0.4620
14487TIP3    H264953   0.593   4.226   4.970  1.0578 -0.3489  1.5083
14488TIP3   OH264954   3.518   5.192   0.081 -0.6777  0.1070  0.4733
14488TIP3    H164955   3.465   5.176   0.160 -0.5313 -0.5345  0.4502
14488TIP3    H264956   3.483   5.273   0.044  0.1050  1.1466  1.9033
14489TIP3   OH264957   6.723   0.920  10.571  0.1117  0.2732  0.4096
14489TIP3    H164958   6.779   0.936  10.495  0.7299 -0.0773  0.7909
14489TIP3    H264959   6.685   1.006  10.591  0.0608  0.3987 -0.2020
14490TIP3   OH264960   6.401   5.384   0.030 -0.6145  0.2867 -0.7167
14490TIP3    H164961   6.447   5.468   0.026  2.2858 -1.1590 -0.6710
14490TIP3    H264962   6.401   5.352  -0.060 -0.1342 -0.3700 -0.5003
14491TIP3   OH264963   1.377   6.750  15.641 -0.2063  0.8096  0.6049
14491TIP3    H164964   1.316   6.774  15.711 -0.3353  0.6400  0.5502
14491TIP3    H264965   1.453   6.806  15.656  0.6901 -0.7425  2.1980
14492TIP3   OH264966   4.573   4.068  16.201 -0.2685 -0.1101 -0.4808
14492TIP3    H164967   4.605   4.148  16.159 -0.2847  0.2660  0.2139
14492TIP3    H264968   4.556   4.093  16.291 -0.8098 -0.7636 -0.3931
14493TIP3   OH264969   4.428   4.835  13.822  0.7457  0.2217 -0.3854
14493TIP3    H164970   4.459   4.759  13.773  2.2585 -0.0400  0.9053
14493TIP3    H264971   4.361   4.800  13.882 -0.5216  0.4079 -1.6435
14494TIP3   OH264972   6.303   4.192   3.144  0.2681 -0.3941 -0.6134
14494TIP3    H164973   6.251   4.273   3.151 -0.9134 -1.0471 -1.4031
14494TIP3    H264974   6.340   4.179   3.231 -2.7323 -1.0721  0.6918
14495TIP3   OH264975   1.286   5.867   4.206  0.5855 -0.0121 -0.1221
14495TIP3    H164976   1.348   5.940   4.207 -0.5009  0.9515  1.1254
14495TIP3    H264977   1.340   5.790   4.188  1.6176  1.1763 -2.6464
14496TIP3   OH264978   5.094   0.522  11.130 -0.0847  0.3861 -0.4837
14496TIP3    H164979   5.164   0.525  11.195  1.0344 -0.1861 -1.6143
14496TIP3    H264980   5.096   0.609  11.089 -0.9379  0.8234  0.3656
14497TIP3   OH264981   4.177   2.683   2.027  0.2951 -0.3545 -0.5593
14497TIP3    H164982   4.152   2.715   1.940  0.4485  3.3944  0.6128
14497TIP3    H264983   4.273   2.676   2.023  0.3039 -0.1722 -0.7111
14498TIP3   OH264984   6.299   5.300   5.083 -0.2079  0.0900 -0.0072
14498TIP3    H164985   6.240   5.349   5.141 -1.4971  1.9988 -2.7235
14498TIP3    H264986   6.369   5.361   5.062 -0.8629  0.2191 -2.0236
14499TIP3   OH264987   4.015   4.877  13.758 -0.0061  0.3636  0.4547
14499TIP3    H164988   3.971   4.854  13.840  0.4647 -1.6280  0.2075
14499TIP3    H264989   3.945   4.908  13.701 -0.6905 -0.3376  0.8948
14500TIP3   OH264990   2.804   1.826  13.373  0.1934 -0.3785 -0.5211
14500TIP3    H164991   2.873   1.878  13.414  0.7728 -0.1020 -1.8012
14500TIP3    H264992   2.747   1.890  13.331 -0.7265 -0.6213  0.3126
14501TIP3   OH264993   2.344   0.517   4.364 -0.2014 -0.2813  0.1174
14501TIP3    H164994   2.270   0.530   4.423 -0.4030 -2.5990  0.4759
14501TIP3    H264995   2.322   0.438   4.315  0.0633  1.4136 -2.9984
14502TIP3   OH264996   2.731   0.924   5.226 -0.3158  0.3330  0.4254
14502TIP3    H164997   2.664   0.981   5.264 -1.4753 -2.2818  2.6756
14502TIP3    H264998   2.682   0.867   5.166  0.0190 -0.8753  1.2579
14503TIP3   OH264999   2.639   6.441  11.109 -0.2342  0.5034  0.5261
14503TIP3    H165000   2.662   6.349  11.123  1.4110  0.7806 -0.0805
14503TIP3    H265001   2.546   6.447  11.132 -0.7076 -1.5790 -0.6366
14504TIP3   OH265002   0.367   0.311   4.236  0.0492  0.0542  0.0387
14504TIP3    H165003   0.417   0.389   4.209  1.4023 -0.9625 -0.4934
14504TIP3    H265004   0.354   0.322   4.330 -2.0404  2.1570 -0.4004
14505TIP3   OH265005   4.920   1.403   2.804 -0.7381 -0.1075 -0.1996
14505TIP3    H165006   4.942   1.394   2.896 -0.6853  0.5702 -0.1446
14505TIP3    H265007   4.889   1.316   2.778  2.4574 -1.3229 -0.4238
14506TIP3   OH265008   2.818   5.845  11.028 -0.2323 -0.2817  0.5327
14506TIP3    H165009   2.903   5.889  11.032 -0.2743  0.5088 -3.4092
14506TIP3    H265010   2.840   5.754  11.005 -0.3108  0.3457 -2.5154
14507TIP3   OH265011   4.727   6.293   3.917 -0.1058  0.1555  0.3008
14507TIP3    H165012   4.800   6.274   3.859  1.1519  2.1097  1.1181
14507TIP3    H265013   4.665   6.342   3.863 -0.2270 -0.3978 -0.0685
14508TIP3   OH265014   6.368   3.414   2.056 -0.3555 -0.0833  0.1640
14508TIP3    H165015   6.401   3.365   1.981 -0.0935  0.9558 -0.4146
14508TIP3    H265016   6.406   3.501   2.047  0.8655 -0.3310  2.3101
14509TIP3   OH265017   5.295   4.663   3.601  0.1566  0.3000  0.4506
14509TIP3    H165018   5.262   4.743   3.560 -2.3389 -1.0776 -0.4335
14509TIP3    H265019   5.377   4.644   3.556 -0.3974  1.1144 -0.9558
14510TIP3   OH265020   2.630   0.222   0.053 -0.5688 -0.1044 -0.0392
14510TIP3    H165021   2.611   0.292  -0.009 -1.7338 -0.8452 -0.5530
14510TIP3    H265022   2.643   0.267   0.137  0.8236  0.8883 -0.7442
14511TIP3   OH265023   5.886   5.434   4.074  0.3100  0.3575  0.5681
14511TIP3    H165024   5.913   5.402   3.988  1.2060 -1.3595  1.4466
14511TIP3    H265025   5.917   5.368   4.135 -1.0492  1.1161  2.1566
14512TIP3   OH265026   4.956   2.174   1.686 -0.4930  0.1427 -0.6481
14512TIP3    H165027   4.893   2.156   1.617  0.1213  0.5624 -1.3271
14512TIP3    H265028   5.041   2.174   1.643 -0.2935  3.0921 -0.4545
14513TIP3   OH265029   5.490   2.466  11.225  0.2323 -0.3323 -0.1182
14513TIP3    H165030   5.461   2.377  11.247  0.8269 -0.5679 -0.2644
14513TIP3    H265031   5.571   2.453  11.176  1.0403  0.3381  1.0080
14514TIP3   OH265032   2.167   5.108   2.309  0.1138  0.8569  0.6998
14514TIP3    H165033   2.228   5.130   2.379  1.3679  0.4364 -0.2174
14514TIP3    H265034   2.212   5.135   2.229  0.0150 -1.3444 -0.1598
14515TIP3   OH265035   5.152   1.753   2.042 -0.0028  0.5173  0.4976
14515TIP3    H165036   5.244   1.768   2.022  0.1168 -1.0860 -0.2882
14515TIP3    H265037   5.105   1.817   1.988  0.4741 -1.6783 -2.8203
14516TIP3   OH265038   1.308   4.458   2.995 -0.1391 -0.3239  0.0030
14516TIP3    H165039   1.349   4.542   2.972 -0.1847 -0.5600 -0.9898
14516TIP3    H265040   1.346   4.435   3.080  1.0547 -0.0425 -0.4318
14517TIP3   OH265041   4.052   3.112  14.363 -0.2987  0.4267 -0.4689
14517TIP3    H165042   4.066   3.108  14.458 -0.5471  0.2194 -0.4410
14517TIP3    H265043   3.975   3.168  14.353 -0.2815  0.4356 -0.5503
14518TIP3   OH265044   2.483   3.558   5.621 -0.7834 -0.1606 -0.5750
14518TIP3    H165045   2.490   3.557   5.716 -0.7293  0.8672 -0.5514
14518TIP3    H265046   2.496   3.467   5.594  1.2505 -0.1590  0.2498
14519TIP3   OH265047   0.553   2.205   2.047  0.4884  0.1130 -0.0267
14519TIP3    H165048   0.597   2.155   1.977 -0.0977  0.5301 -0.7043
14519TIP3    H265049   0.542   2.142   2.118  0.6788 -0.4475 -0.4855
14520TIP3   OH265050   1.880   6.411   0.038  0.2301 -0.1136  0.3546
14520TIP3    H165051   1.792   6.447   0.034  0.1222 -0.4193 -0.1481
14520TIP3    H265052   1.936   6.482   0.006  0.0167 -0.3762 -0.6546
14521TIP3   OH265053   0.660   5.961  13.302  0.0119  0.4380  0.4447
14521TIP3    H165054   0.649   5.873  13.338 -0.4398  1.0181  1.7733
14521TIP3    H265055   0.684   5.946  13.210  1.3273 -1.1038  0.9848
14522TIP3   OH265056   3.087   5.588  16.209  0.6385  0.2245  0.0288
14522TIP3    H165057   3.134   5.671  16.218  0.3640  0.5670 -1.4869
14522TIP3    H265058   3.000   5.606  16.244  0.9244  0.2474  0.7367
14523TIP3   OH265059   2.485   4.630   5.825  0.3216  0.0828 -0.9042
14523TIP3    H165060   2.438   4.596   5.901  0.3532 -1.7381 -1.6424
14523TIP3    H265061   2.571   4.654   5.858  0.4437 -0.9865 -0.3850
14524TIP3   OH265062   5.889   4.191  13.576  0.1486 -0.0115 -0.3039
14524TIP3    H165063   5.827   4.259  13.602 -0.6878 -0.5689 -0.8463
14524TIP3    H265064   5.862   4.114  13.626 -0.0875 -0.4716 -1.1348
14525TIP3   OH265065   0.922   4.412   0.715  0.2261  0.1066 -0.1031
14525TIP3    H165066   0.932   4.371   0.802  0.3295 -0.4710 -0.3828
14525TIP3    H265067   0.843   4.373   0.679 -0.5347  1.2820  0.2333
14526TIP3   OH265068   1.052   0.961  11.271 -0.8135  0.3182  0.2459
14526TIP3    H165069   1.021   0.933  11.185 -0.2297  1.1716 -0.2587
14526TIP3    H265070   1.077   0.879  11.315 -2.0047 -0.2076 -0.0187
14527TIP3   OH265071   5.185   1.922   0.118  0.0033 -0.5172 -0.0379
14527TIP3    H165072   5.116   1.867   0.155 -1.3537  1.1967  0.1682
14527TIP3    H265073   5.232   1.957   0.194  1.0906 -1.6186 -0.1753
14528TIP3   OH265074   2.548   5.893  14.957 -0.5352 -0.3365 -0.3017
14528TIP3    H165075   2.515   5.977  14.989  1.5528  1.4428 -2.3752
14528TIP3    H265076   2.472   5.848  14.922 -1.4453  1.6885 -1.0838
14529TIP3   OH265077   2.091   3.449   6.129  0.1357 -0.0064 -0.1048
14529TIP3    H165078   2.093   3.375   6.189 -0.2349  1.8264  2.3064
14529TIP3    H265079   2.176   3.447   6.085 -0.1401 -2.2114 -0.6318
14530TIP3   OH265080   5.365   3.914   1.556 -0.3206  0.0370  0.1862
14530TIP3    H165081   5.276   3.902   1.525 -0.3495  0.6847  0.0100
14530TIP3    H265082   5.420   3.883   1.484 -0.3851  1.6048 -0.5608
14531TIP3   OH265083   3.612   5.454  11.545  0.2783 -0.2851  0.7114
14531TIP3    H165084   3.619   5.535  11.494 -1.8733 -0.5481 -0.1202
14531TIP3    H265085   3.564   5.479  11.623 -1.3554 -0.9043 -0.0493
14532TIP3   OH265086   6.279   0.331   2.976 -0.0598 -0.4008 -0.3596
14532TIP3    H165087   6.245   0.329   2.886 -0.6496  0.5095 -0.1739
14532TIP3    H265088   6.253   0.417   3.009  1.6975  0.0022  0.0924
14533TIP3   OH265089   4.544   1.241   6.143 -0.1895 -0.0654 -0.0039
14533TIP3    H165090   4.591   1.180   6.199 -1.4562  1.0705  2.4549
14533TIP3    H265091   4.496   1.185   6.081  0.3866 -1.4326  0.7455
14534TIP3   OH265092   0.309   3.682  14.729  0.0076 -0.0632 -0.4656
14534TIP3    H165093   0.327   3.599  14.773  0.1045 -0.0024 -0.3873
14534TIP3    H265094   0.396   3.722  14.718 -0.0021 -0.1500 -0.8579
14535TIP3   OH265095   5.035   5.965   1.323  0.8306 -0.3979  0.4411
14535TIP3    H165096   5.077   5.982   1.407 -0.3175  0.7491  0.8178
14535TIP3    H265097   4.978   5.890   1.339  1.0637 -0.5589  0.5199
14536TIP3   OH265098   5.821   4.793   2.149  0.4851  0.1583 -0.2084
14536TIP3    H165099   5.760   4.737   2.101 -0.1338 -2.9541  3.6647
14536TIP3    H265100   5.907   4.775   2.111 -0.0131 -1.7735 -0.5154
14537TIP3   OH265101   4.830   3.966   0.804  0.2225  0.6017  0.0052
14537TIP3    H165102   4.907   4.005   0.762  0.5825  0.4141  0.4830
14537TIP3    H265103   4.756   3.996   0.750  0.5214  1.6578  0.1522
14538TIP3   OH265104   0.144   6.611   5.368 -0.4065  0.5767 -0.2975
14538TIP3    H165105   0.203   6.675   5.328 -0.0975  0.2750 -0.3335
14538TIP3    H265106   0.091   6.579   5.295 -0.4369  0.6595 -0.3116
14539TIP3   OH265107   1.015   3.191  11.981 -0.2095 -0.3041  0.3937
14539TIP3    H165108   0.976   3.175  12.067 -1.0375  2.2661  0.5953
14539TIP3    H265109   0.941   3.215  11.925  0.6900  2.5306  0.2293
14540TIP3   OH265110   2.464   3.441  10.686  0.2307  0.0989 -0.2560
14540TIP3    H165111   2.524   3.393  10.743  0.4481  0.7536  0.0777
14540TIP3    H265112   2.428   3.374  10.627  0.1816 -0.5446  0.4888
14541TIP3   OH265113   5.181   0.424  14.114  0.5500 -0.5049 -0.3087
14541TIP3    H165114   5.250   0.435  14.049 -1.3114 -0.3633 -2.3612
14541TIP3    H265115   5.149   0.513  14.131  0.5467 -0.6114  0.2549
14542TIP3   OH265116   6.637   4.827   1.659  0.3752 -0.3000  0.2862
14542TIP3    H165117   6.567   4.761   1.653  0.1436  0.0111 -0.4940
14542TIP3    H265118   6.680   4.808   1.742  1.1981 -2.3406 -0.5387
14543TIP3   OH265119   5.660   4.644   1.110  0.4012  0.2367  0.2146
14543TIP3    H165120   5.689   4.563   1.070  0.4654 -0.3579  1.4015
14543TIP3    H265121   5.636   4.619   1.200 -0.2708  1.3904  0.3823
14544TIP3   OH265122   1.653   2.153  11.543  0.3261  0.2358  0.2794
14544TIP3    H165123   1.695   2.197  11.617 -0.5207 -1.3529  1.7844
14544TIP3    H265124   1.585   2.099  11.583 -1.7840  1.1021 -1.8887
14545TIP3   OH265125   6.253   3.866  11.384 -0.1351 -0.0046  0.2016
14545TIP3    H165126   6.258   3.861  11.289 -0.1486  1.4032  0.0975
14545TIP3    H265127   6.329   3.818  11.415  0.8314  0.9545 -0.5927
14546TIP3   OH265128   4.450   2.421  13.905  0.3909 -0.3071  0.5119
14546TIP3    H165129   4.522   2.417  13.968  0.1251  1.7568  1.0144
14546TIP3    H265130   4.371   2.416  13.958  0.0920 -2.2902 -0.0212
14547TIP3   OH265131   2.396   0.134   5.472 -0.2278 -0.4412 -0.2928
14547TIP3    H165132   2.376   0.041   5.480 -1.7478 -0.0088  1.7826
14547TIP3    H265133   2.315   0.173   5.440 -0.3881  0.4203  1.0654
14548TIP3   OH265134   6.479   1.593  13.597 -0.6874 -0.8413 -1.0572
14548TIP3    H165135   6.567   1.606  13.562 -0.2810 -0.0953  0.1779
14548TIP3    H265136   6.435   1.676  13.582 -0.2230 -0.1913  0.9158
14549TIP3   OH265137   0.985   6.050   6.008  0.4130 -0.1612  0.2887
14549TIP3    H165138   1.044   6.001   6.065 -1.5511 -1.7958  1.0423
14549TIP3    H265139   0.928   6.098   6.068  0.4123  0.7270 -0.3974
14550TIP3   OH265140   1.392   2.505   2.254  0.6081  0.3711  0.1234
14550TIP3    H165141   1.316   2.456   2.286  0.2866 -0.2763 -1.5357
14550TIP3    H265142   1.457   2.497   2.324 -0.5043  0.1235  1.1604
14551TIP3   OH265143   5.036   3.559  14.706 -0.1159 -0.1739  0.2461
14551TIP3    H165144   5.087   3.551  14.787  1.5425  2.3152 -0.4541
14551TIP3    H265145   4.956   3.510  14.724  0.3602 -0.0467  3.2574
14552TIP3   OH265146   1.356   6.398   2.330  0.4726 -0.0163 -0.1552
14552TIP3    H165147   1.328   6.310   2.355  0.4752 -0.0159 -0.1510
14552TIP3    H265148   1.295   6.424   2.261  0.9470 -0.3284 -0.7041
14553TIP3   OH265149   4.786   2.675  13.735 -0.2451 -0.4771 -0.2212
14553TIP3    H165150   4.843   2.740  13.774  0.4380 -1.0385 -0.2579
14553TIP3    H265151   4.837   2.594  13.737  0.0948 -0.4087 -2.8351
14554TIP3   OH265152   5.940   6.483  15.352 -0.4234  0.1279  0.4236
14554TIP3    H165153   5.874   6.546  15.325  0.0696 -0.2763 -2.0156
14554TIP3    H265154   5.956   6.430  15.273  1.4414 -0.9867  1.4680
14555TIP3   OH265155   1.469   0.541  11.187 -0.0265  0.1684 -0.8185
14555TIP3    H165156   1.552   0.517  11.146 -1.1537 -1.2249 -2.3756
14555TIP3    H265157   1.402   0.509  11.128 -1.7190  1.7182  0.1410
14556TIP3   OH265158   0.377   3.149  13.488  0.0379 -0.4878 -0.4632
14556TIP3    H165159   0.333   3.193  13.415  0.3277 -1.2319 -1.1073
14556TIP3    H265160   0.468   3.142  13.459  0.3142 -0.1181  0.2987
14557TIP3   OH265161   4.139   6.756  16.862 -0.4094 -0.6593  0.0794
14557TIP3    H165162   4.112   6.675  16.905 -0.4545 -0.3788  0.5795
14557TIP3    H265163   4.057   6.800  16.838 -0.3986 -0.2049  0.8555
14558TIP3   OH265164   4.231   4.748  13.999  0.8521  0.2195 -0.1100
14558TIP3    H165165   4.161   4.710  13.946 -0.3011  0.6455  1.0533
14558TIP3    H265166   4.209   4.724  14.089  1.4644  1.5056  0.4057
14559TIP3   OH265167   0.019   4.709   3.401  0.1448  0.2619 -0.1202
14559TIP3    H165168  -0.073   4.701   3.377  0.2393  0.1399 -0.4563
14559TIP3    H265169   0.042   4.625   3.440 -0.7065  1.3379  2.9284
14560TIP3   OH265170   1.466   1.957  13.010 -0.2201 -0.3114 -0.2034
14560TIP3    H165171   1.523   1.885  13.036 -0.5874 -0.7429 -0.5905
14560TIP3    H265172   1.514   2.003  12.942 -0.2047 -0.4900 -0.3122
14561TIP3   OH265173   2.207   0.124   3.590  0.1279  0.3632 -0.5789
14561TIP3    H165174   2.165   0.187   3.649 -0.0132  0.9346 -1.2830
14561TIP3    H265175   2.200   0.040   3.636 -1.3521  0.5318 -0.4529
14562TIP3   OH265176   3.812   4.042   1.695  0.1063  0.2711  0.4999
14562TIP3    H165177   3.874   4.089   1.752 -0.6571  1.7974  0.1298
14562TIP3    H265178   3.820   3.951   1.722  3.3300  0.1899 -0.2702
14563TIP3   OH265179   0.879   3.822   4.440 -0.3380 -0.5508  0.0648
14563TIP3    H165180   0.907   3.755   4.502  1.0832  0.3384  0.4443
14563TIP3    H265181   0.868   3.901   4.494 -1.6312 -0.3776 -0.4226
14564TIP3   OH265182   4.188   3.297  16.912 -0.3688 -0.1810 -0.2367
14564TIP3    H165183   4.158   3.228  16.853 -1.5846  0.0491  0.0963
14564TIP3    H265184   4.255   3.344  16.861 -2.0719  0.6332 -1.8485
14565TIP3   OH265185   0.423   0.814  15.338  0.1426  0.4749 -0.5081
14565TIP3    H165186   0.408   0.883  15.402  0.4994  1.7886 -1.7960
14565TIP3    H265187   0.363   0.834  15.267 -1.4368 -1.8915  0.0386
14566TIP3   OH265188   1.580   1.498   6.202 -0.2127 -0.3396 -0.3540
14566TIP3    H165189   1.614   1.543   6.124 -0.4677 -1.0252 -0.8667
14566TIP3    H265190   1.640   1.425   6.215 -1.6763 -1.8354 -1.5314
14567TIP3   OH265191   3.837   3.186  11.999 -0.0874 -0.3959 -0.0054
14567TIP3    H165192   3.819   3.268  11.954  0.4999 -0.1583  0.1927
14567TIP3    H265193   3.780   3.188  12.076 -0.7075 -0.5677 -0.4558
14568TIP3   OH265194   5.003   2.553   3.256  0.1089  0.4474 -0.0948
14568TIP3    H165195   4.957   2.477   3.292  0.6643  0.4415  0.6198
14568TIP3    H265196   5.094   2.526   3.251  0.0121  0.3358 -1.8406
14569TIP3   OH265197   6.256   4.668  15.133 -0.4330 -0.2019 -0.0103
14569TIP3    H165198   6.348   4.687  15.115 -0.0091 -1.8737  0.2088
14569TIP3    H265199   6.243   4.579  15.100 -1.3936 -0.8185  1.8764
14570TIP3   OH265200   4.105   0.880   4.573  0.4414  0.0908 -0.4657
14570TIP3    H165201   4.199   0.863   4.567  1.0500  2.1462  1.7444
14570TIP3    H265202   4.071   0.808   4.627  0.8890 -0.2104 -0.5834
14571TIP3   OH265203   3.522   2.598   6.028  0.1662  0.5776  0.4280
14571TIP3    H165204   3.478   2.574   6.109  0.2068  1.1549  0.6297
14571TIP3    H265205   3.615   2.578   6.044  0.0643 -0.0530  0.2321
14572TIP3   OH265206   2.158   5.390   2.752  0.0384 -0.4468  0.0488
14572TIP3    H165207   2.141   5.481   2.726  1.2626 -0.6144 -1.5090
14572TIP3    H265208   2.229   5.396   2.816  0.8678 -0.3313 -0.8494
14573TIP3   OH265209   6.648   3.335  13.100 -0.0418 -0.1631 -0.1415
14573TIP3    H165210   6.680   3.403  13.160  0.8995  0.0533 -0.8741
14573TIP3    H265211   6.708   3.338  13.026  0.1328 -1.9111 -0.1234
14574TIP3   OH265212   5.977   5.588  13.771  0.1388  0.3544 -0.3304
14574TIP3    H165213   5.954   5.498  13.749 -0.3214 -0.1573  1.9607
14574TIP3    H265214   6.007   5.583  13.862  0.3608  2.4843 -0.2400
14575TIP3   OH265215   6.353   0.732   2.501 -0.0441  0.0084  0.3607
14575TIP3    H165216   6.387   0.806   2.551  2.9228 -0.7978 -0.3061
14575TIP3    H265217   6.366   0.756   2.410 -1.0239 -0.4898  0.0748
14576TIP3   OH265218   0.626   4.956   6.023  0.3219 -0.7314  0.3882
14576TIP3    H165219   0.586   4.996   5.946 -2.5116 -1.3119  1.4579
14576TIP3    H265220   0.673   5.028   6.066  0.9704 -0.1494 -1.2028
14577TIP3   OH265221   3.526   3.326   3.529  0.0224 -0.6219 -0.1114
14577TIP3    H165222   3.540   3.376   3.609  0.1414 -0.3050 -0.3267
14577TIP3    H265223   3.614   3.314   3.492  0.1116 -1.8893  0.4683
14578TIP3   OH265224   2.698   3.394   0.296 -0.0468  0.0027  0.3998
14578TIP3    H165225   2.706   3.307   0.257  0.0744 -0.0248  0.4889
14578TIP3    H265226   2.783   3.435   0.281  0.5722 -0.5862  2.0587
14579TIP3   OH265227   0.687   3.809  12.746  0.0036  0.1512  0.2230
14579TIP3    H165228   0.630   3.827  12.671  1.5589  1.3850 -0.7228
14579TIP3    H265229   0.635   3.836  12.822 -1.9210 -1.8798 -0.2562
14580TIP3   OH265230   2.132   1.359   6.298 -0.1816  0.1254 -0.1509
14580TIP3    H165231   2.070   1.404   6.240 -0.5681 -0.2808 -0.0592
14580TIP3    H265232   2.197   1.425   6.320 -1.9376  1.3041  1.7600
14581TIP3   OH265233   6.746   6.776  15.576 -0.2883 -0.0488  0.1499
14581TIP3    H165234   6.667   6.722  15.584 -2.1875  2.3035 -1.2937
14581TIP3    H265235   6.713   6.866  15.568  2.5564  1.0422 -0.5844
14582TIP3   OH265236   5.928   4.542   2.715 -0.7116  0.2196 -0.1496
14582TIP3    H165237   5.843   4.548   2.672 -0.7068  1.2315 -0.0377
14582TIP3    H265238   5.955   4.451   2.701 -2.1310 -0.3221  0.4608
14583TIP3   OH265239   6.418   4.537   5.512 -0.3336  0.1494 -0.1981
14583TIP3    H165240   6.482   4.552   5.582 -0.8891  0.6710  0.2110
14583TIP3    H265241   6.414   4.621   5.466  0.2392 -0.2761 -1.0434
14584TIP3   OH265242   2.989   0.820  15.020  0.0424  0.5405  0.2174
14584TIP3    H165243   2.912   0.766  14.998 -0.4051  0.5922  1.5554
14584TIP3    H265244   3.042   0.819  14.941 -1.5538  0.8847 -0.9205
14585TIP3   OH265245   0.289   2.481   4.733  0.5655 -0.4559 -0.5439
14585TIP3    H165246   0.268   2.564   4.775  2.4329 -0.0510 -0.3395
14585TIP3    H265247   0.243   2.416   4.786  0.3107  0.3194  0.2135
14586TIP3   OH265248   4.703   0.719  11.015  0.0585  0.2242 -0.4842
14586TIP3    H165249   4.708   0.643  10.958  1.1567 -1.0866  1.2472
14586TIP3    H265250   4.743   0.790  10.965 -0.3171 -0.4874 -1.8475
14587TIP3   OH265251   0.460   2.214  14.568  0.1759  0.3746  0.3047
14587TIP3    H165252   0.532   2.249  14.516  0.2837  2.6352  1.8817
14587TIP3    H265253   0.501   2.181  14.648 -0.1548 -1.8295 -0.3533
14588TIP3   OH265254   0.352   1.426  13.182 -0.7179 -0.1918 -0.4007
14588TIP3    H165255   0.358   1.518  13.208 -0.1038 -0.3011 -0.1319
14588TIP3    H265256   0.279   1.423  13.121 -0.6476  0.5065 -0.5286
14589TIP3   OH265257   1.154   4.536   1.368  0.2921  0.3690  0.0385
14589TIP3    H165258   1.143   4.609   1.308 -1.8721  0.0117 -0.0575
14589TIP3    H265259   1.222   4.481   1.327  0.8574  1.5393 -0.6357
14590TIP3   OH265260   3.317   1.240   5.853 -0.0922 -0.4256 -0.4585
14590TIP3    H165261   3.360   1.172   5.802  0.0645 -0.2151 -0.6086
14590TIP3    H265262   3.343   1.222   5.944 -0.7158 -1.0500 -0.3984
14591TIP3   OH265263   4.631   1.613   3.743  0.2154 -0.2794  0.0349
14591TIP3    H165264   4.605   1.692   3.695  0.7122  0.4632  0.9526
14591TIP3    H265265   4.557   1.593   3.799  0.4148  0.0396  0.4177
14592TIP3   OH265266   5.320   0.944   1.114 -0.0831 -0.6353  0.2396
14592TIP3    H165267   5.305   0.851   1.094 -2.4974 -0.1571 -0.6088
14592TIP3    H265268   5.341   0.983   1.029  0.5644 -0.3332  0.5332
14593TIP3   OH265269   3.913   1.945  14.096  0.0223 -0.0987 -0.7407
14593TIP3    H165270   3.970   2.012  14.059 -0.8190  0.4479 -1.0724
14593TIP3    H265271   3.872   1.987  14.172  0.3051 -0.5942 -0.3078
14594TIP3   OH265272   0.088   2.058   5.407  0.4658  0.5163 -0.4624
14594TIP3    H165273   0.178   2.065   5.439  0.0867  1.7112  0.4016
14594TIP3    H265274   0.038   2.118   5.463 -0.8332  0.0201 -1.0607
14595TIP3   OH265275   4.410   6.755   0.434  0.2441  0.1328 -0.0185
14595TIP3    H165276   4.479   6.773   0.497 -0.1359 -0.4779  0.5832
14595TIP3    H265277   4.448   6.690   0.374  0.3887  0.2348 -0.0378
14596TIP3   OH265278   0.061   4.540  13.429 -0.5565  0.0507  0.0327
14596TIP3    H165279   0.143   4.581  13.402 -0.6724  0.4579  0.2833
14596TIP3    H265280   0.074   4.447  13.414 -0.9840  0.3193 -2.4325
14597TIP3   OH265281   5.261   2.186   5.720  0.9066 -0.6286 -0.3418
14597TIP3    H165282   5.324   2.255   5.738 -1.2696  1.0412  1.5532
14597TIP3    H265283   5.271   2.124   5.793 -0.0673  0.0426  0.3982
14598TIP3   OH265284   2.232   1.154   6.122 -0.1576  0.2564 -0.0109
14598TIP3    H165285   2.287   1.232   6.109  1.8639 -0.9842  0.6386
14598TIP3    H265286   2.156   1.187   6.170 -0.0580  2.0534 -0.9759
14599TIP3   OH265287   3.777   1.371  12.002 -0.3651 -0.6084  0.1166
14599TIP3    H165288   3.851   1.377  11.942 -0.2821 -1.8587  0.0523
14599TIP3    H265289   3.766   1.459  12.038 -0.5383  0.2190 -1.8645
14600TIP3   OH265290   0.223   0.340   6.649  0.2909 -0.3119  0.1422
14600TIP3    H165291   0.167   0.276   6.607  0.9168  1.1142 -3.1379
14600TIP3    H265292   0.163   0.409   6.679 -0.0058 -0.3379 -0.3848
14601TIP3   OH265293   1.328   5.077  13.071  0.0391  0.4804  0.2676
14601TIP3    H165294   1.276   4.997  13.074  0.0170  0.2148 -3.1457
14601TIP3    H265295   1.278   5.136  13.015  2.2840  1.0389 -1.2819
14602TIP3   OH265296   2.932   6.659   3.126 -0.3862 -0.1377 -0.3919
14602TIP3    H165297   2.929   6.726   3.195  2.1299 -0.0647 -0.2329
14602TIP3    H265298   2.960   6.580   3.171  0.5955 -0.2605 -1.1673
14603TIP3   OH265299   4.483   6.644  16.543 -0.2248  0.0194  0.4227
14603TIP3    H165300   4.401   6.658  16.590  0.3940  4.1929  0.6697
14603TIP3    H265301   4.485   6.713  16.477  2.1198 -1.3194 -1.0276
14604TIP3   OH265302   2.377   1.845  17.047  0.1470 -0.3844 -0.4004
14604TIP3    H165303   2.436   1.918  17.031  0.7995 -0.7640  0.2114
14604TIP3    H265304   2.396   1.818  17.137  0.3733 -1.7059 -0.8130
14605TIP3   OH265305   4.933   6.770   4.794  0.6370 -0.5499 -0.4717
14605TIP3    H165306   4.898   6.774   4.883  0.4361  1.6683 -0.5884
14605TIP3    H265307   4.998   6.701   4.797 -0.4401 -1.5572  0.9878
14606TIP3   OH265308   6.222   2.420  16.998  0.0080 -0.2936 -0.4436
14606TIP3    H165309   6.212   2.509  17.032  0.6647 -0.4278  0.1117
14606TIP3    H265310   6.152   2.370  17.041  0.6138 -0.3833  0.4668
14607TIP3   OH265311   0.683   0.069   6.564  0.4047  0.0408  0.4624
14607TIP3    H165312   0.669  -0.016   6.523 -1.4586  1.2229 -1.5781
14607TIP3    H265313   0.596   0.097   6.591  1.2600  0.4441  3.0568
14608TIP3   OH265314   4.056   0.728  10.838  0.0193 -0.0456  0.1031
14608TIP3    H165315   4.054   0.813  10.794  1.9909  1.2704  2.2991
14608TIP3    H265316   4.149   0.709  10.849 -0.3820 -1.3077  1.7837
14609TIP3   OH265317   5.079   2.330   0.699  0.0237 -0.6153 -0.3692
14609TIP3    H165318   5.051   2.308   0.788 -0.8475 -0.2357 -0.5339
14609TIP3    H265319   5.146   2.266   0.678  0.1912 -0.7523  0.5368
14610TIP3   OH265320   0.447   0.547   0.598 -0.6331  0.1722  0.3014
14610TIP3    H165321   0.494   0.505   0.526 -2.4423 -1.5720  0.0333
14610TIP3    H265322   0.358   0.557   0.565 -1.3348  0.0066  2.0104
14611TIP3   OH265323   4.720   4.444  15.145 -0.0485 -0.0001  0.5086
14611TIP3    H165324   4.812   4.440  15.120  0.0674 -0.8087  1.0574
14611TIP3    H265325   4.721   4.479  15.234 -0.4216  2.2000 -0.2817
14612TIP3   OH265326   3.033   2.573   0.515  0.0678  0.6953 -0.4770
14612TIP3    H165327   2.998   2.662   0.518  2.4747  1.7199  2.7485
14612TIP3    H265328   3.106   2.578   0.454  1.1892  1.4153  0.8815
14613TIP3   OH265329   0.062   1.312  13.885  0.0802  0.0843 -0.4921
14613TIP3    H165330   0.027   1.254  13.818  0.9194  0.1243 -0.9782
14613TIP3    H265331   0.068   1.257  13.963 -0.8345  0.0210 -0.4516
14614TIP3   OH265332   6.631   5.260  13.147 -0.2425  0.0057 -0.0851
14614TIP3    H165333   6.710   5.258  13.093  0.9341 -0.9171  1.5773
14614TIP3    H265334   6.568   5.207  13.098  0.9019 -1.1058 -0.4233
14615TIP3   OH265335   3.425   2.809  13.555  0.1790  0.3561  0.0017
14615TIP3    H165336   3.474   2.842  13.479  0.9758  0.0726  0.3791
14615TIP3    H265337   3.486   2.751  13.599 -0.6037 -0.2232  0.3436
14616TIP3   OH265338   6.180   2.486   5.146  0.7830 -0.0477 -0.1015
14616TIP3    H165339   6.092   2.455   5.166  1.4502 -2.1307 -0.1049
14616TIP3    H265340   6.209   2.431   5.073  2.1692  0.4257  0.0562
14617TIP3   OH265341   2.496   4.020   5.631 -0.7025 -0.0508  0.3623
14617TIP3    H165342   2.488   4.074   5.553 -1.4070 -1.1667 -0.3692
14617TIP3    H265343   2.578   3.971   5.619 -0.0456  0.8385  1.0402
14618TIP3   OH265344   5.692   0.586   2.102  0.2901 -0.0154  0.6751
14618TIP3    H165345   5.755   0.639   2.150 -0.9707  1.1721  1.0925
14618TIP3    H265346   5.609   0.632   2.113 -0.9005 -2.1508  1.1605
14619TIP3   OH265347   3.656   0.447  10.450 -0.0368  0.6247 -0.3301
14619TIP3    H165348   3.589   0.395  10.493  0.8294  0.7394  1.2218
14619TIP3    H265349   3.614   0.531  10.432 -0.5350  0.4298 -0.0904
14620TIP3   OH265350   5.032   2.290  10.727  0.1462 -0.0958  0.1859
14620TIP3    H165351   5.019   2.199  10.700  0.4045  0.0061 -0.2876
14620TIP3    H265352   5.113   2.289  10.777 -0.4116 -0.3121  1.1064
14621TIP3   OH265353   2.241   6.067  12.738  0.0106  0.6633 -0.1886
14621TIP3    H165354   2.303   6.140  12.735  1.9518 -0.9347 -2.8704
14621TIP3    H265355   2.157   6.107  12.718  1.0297  2.2282 -1.6438
14622TIP3   OH265356   4.568   5.607   1.403 -0.6258 -0.3252  0.4016
14622TIP3    H165357   4.552   5.609   1.497  0.5491 -1.0682  0.6376
14622TIP3    H265358   4.549   5.516   1.377  1.8508 -0.9373  0.4938
14623TIP3   OH265359   3.834   6.629  11.359  0.9885  0.2968 -0.5863
14623TIP3    H165360   3.792   6.642  11.274  0.3049  1.1150 -0.1371
14623TIP3    H265361   3.918   6.674  11.351  1.1713 -0.1013 -1.0012
14624TIP3   OH265362   5.166   6.474  12.530 -0.3246 -0.2512 -0.1388
14624TIP3    H165363   5.248   6.425  12.527 -1.0244 -1.7990  2.6758
14624TIP3    H265364   5.184   6.546  12.591 -0.6535  0.2656 -0.6452
14625TIP3   OH265365   5.512   4.227  10.949 -0.1779  0.6699  0.3295
14625TIP3    H165366   5.551   4.301  10.902 -1.8757  3.2941  2.7749
14625TIP3    H265367   5.568   4.216  11.026  0.5987 -1.3416 -0.4433
14626TIP3   OH265368   1.518   2.132  11.148 -0.5722 -0.1614 -0.0244
14626TIP3    H165369   1.489   2.045  11.123 -0.1816 -0.3018  0.0077
14626TIP3    H265370   1.515   2.183  11.067  2.6855 -1.1436 -0.8896
14627TIP3   OH265371   0.376   3.932   3.384 -0.4848 -0.7487 -0.1019
14627TIP3    H165372   0.356   3.853   3.333 -1.1466 -1.6228  1.4490
14627TIP3    H265373   0.291   3.967   3.410 -0.2189 -1.9858  2.8084
14628TIP3   OH265374   2.777   3.268   1.469 -0.1038  0.1465  0.3098
14628TIP3    H165375   2.844   3.240   1.532 -0.7833 -0.7260  0.6691
14628TIP3    H265376   2.754   3.188   1.422  1.0835  0.9426 -1.7639
14629TIP3   OH265377   5.179   5.979   3.762 -0.3089  0.3988 -0.5588
14629TIP3    H165378   5.202   6.068   3.735 -0.2976  0.6920  0.3853
14629TIP3    H265379   5.258   5.944   3.803 -0.0859 -0.3215 -1.5741
14630TIP3   OH265380   2.687   2.070  14.630  0.1754 -0.4431 -0.0551
14630TIP3    H165381   2.635   1.989  14.634  1.0751 -1.0155  0.3031
14630TIP3    H265382   2.627   2.138  14.660  0.2111 -1.3849  2.3607
14631TIP3   OH265383   5.390   6.650  15.644  0.1757  0.2140  0.1128
14631TIP3    H165384   5.364   6.588  15.712  2.7763  1.0121  2.0184
14631TIP3    H265385   5.409   6.595  15.568  1.8476 -1.3855  1.5640
14632TIP3   OH265386   2.178   2.342  14.929 -0.2513  0.1298  0.2962
14632TIP3    H165387   2.118   2.285  14.979  1.0282 -0.0696  1.6822
14632TIP3    H265388   2.160   2.321  14.838 -1.4051 -0.8413  0.7116
14633TIP3   OH265389   1.276   0.631  12.992 -0.1882 -0.2072  0.5361
14633TIP3    H165390   1.293   0.539  12.975  1.2177  0.0994  0.1512
14633TIP3    H265391   1.181   0.636  13.008 -0.2355 -1.7372  0.8228
14634TIP3   OH265392   5.830   1.570  16.412 -0.2007  0.3738  0.1097
14634TIP3    H165393   5.789   1.483  16.414  1.5858 -0.5232  1.5719
14634TIP3    H265394   5.815   1.602  16.323  1.0111 -2.4415 -1.2232
14635TIP3   OH265395   2.256   4.045  14.098  0.1302  0.3313  0.3387
14635TIP3    H165396   2.342   4.005  14.096 -0.4277 -0.8977 -0.8427
14635TIP3    H265397   2.197   3.976  14.128 -0.7127  0.4893 -0.8279
14636TIP3   OH265398   2.831   0.195   4.203  0.0304  0.5377 -0.4212
14636TIP3    H165399   2.792   0.206   4.290 -0.1192  0.9447 -0.5405
14636TIP3    H265400   2.877   0.111   4.209  0.2421  0.6845  0.1337
14637TIP3   OH265401   5.090   1.202   1.343 -0.5326 -0.5553  0.3837
14637TIP3    H165402   5.054   1.284   1.376  0.8731  0.4572 -0.4560
14637TIP3    H265403   5.021   1.166   1.288 -1.0934  0.1955  0.5739
14638TIP3   OH265404   0.956   6.273  16.868  0.7191 -0.2769 -0.4982
14638TIP3    H165405   1.027   6.265  16.931 -0.2907  2.4401  1.1569
14638TIP3    H265406   0.940   6.367  16.862 -0.0577 -0.5026 -3.9726
14639TIP3   OH265407   1.256   4.173  10.535 -0.3575 -0.1968 -0.3144
14639TIP3    H165408   1.326   4.169  10.600 -0.1712  1.3349 -0.3822
14639TIP3    H265409   1.298   4.145  10.454 -0.2376 -0.7774 -0.0631
14640TIP3   OH265410   4.727   0.844   1.423  0.4484  0.2575  0.2784
14640TIP3    H165411   4.677   0.831   1.503  0.8636 -1.0711  0.3458
14640TIP3    H265412   4.808   0.794   1.437 -0.3346 -1.7381 -1.7401
14641TIP3   OH265413   1.236   1.915   5.678 -0.1080  0.2756 -0.2429
14641TIP3    H165414   1.180   1.969   5.733  1.0260 -2.2752  3.8194
14641TIP3    H265415   1.177   1.850   5.641 -0.5089  0.3877  0.1847
14642TIP3   OH265416   1.787   6.525   0.903 -0.4365  0.2813  0.3970
14642TIP3    H165417   1.757   6.608   0.865  1.0403  0.0833 -1.3045
14642TIP3    H265418   1.747   6.457   0.848  1.8097 -0.0053 -0.9860
14643TIP3   OH265419   6.838   1.332   2.234  0.4069  0.8788  0.1025
14643TIP3    H165420   6.772   1.388   2.274 -0.9292 -1.0293  0.6701
14643TIP3    H265421   6.914   1.340   2.291 -0.3700  0.7428  1.1856
14644TIP3   OH265422   6.195   2.080  11.440  0.7758  0.3735  0.4407
14644TIP3    H165423   6.247   2.087  11.360 -0.5795 -0.0829 -0.5303
14644TIP3    H265424   6.219   1.995  11.476  1.2318  0.4805  0.3954
14645TIP3   OH265425   2.232   4.061  13.530 -0.0555  0.8756  0.3221
14645TIP3    H165426   2.239   4.155  13.549 -0.2187  1.1190 -0.7566
14645TIP3    H265427   2.174   4.027  13.598  0.2600  1.4949  0.9106
14646TIP3   OH265428   1.836   1.402   0.830 -0.5926 -0.0874 -0.2191
14646TIP3    H165429   1.793   1.380   0.747 -0.6743 -0.0909 -0.1763
14646TIP3    H265430   1.882   1.322   0.855 -0.9718 -0.2429 -0.0142
14647TIP3   OH265431   6.414   1.651  15.297  0.0402  0.4659 -0.3048
14647TIP3    H165432   6.478   1.579  15.296 -0.0117  0.4140  0.0116
14647TIP3    H265433   6.369   1.641  15.380  1.2593  1.9470  0.5720
14648TIP3   OH265434   6.574   2.567  14.998 -0.2848 -0.3318 -0.5420
14648TIP3    H165435   6.636   2.618  15.050 -0.9638  0.1220 -0.1720
14648TIP3    H265436   6.624   2.542  14.920 -0.5950  3.1053 -2.0504
14649TIP3   OH265437   0.688   3.695  16.208  0.2640 -0.4051  1.1963
14649TIP3    H165438   0.599   3.705  16.175  0.0050  2.4946  2.4205
14649TIP3    H265439   0.743   3.724  16.135 -0.1014  1.9864  1.7767
14650TIP3   OH265440   0.739   0.382   2.365 -0.2200  0.4237 -0.2703
14650TIP3    H165441   0.781   0.468   2.364 -1.5876  1.1184 -0.5305
14650TIP3    H265442   0.775   0.339   2.443  0.3518  1.2870 -0.0375
14651TIP3   OH265443   0.795   1.692   2.331 -0.1774  0.2472 -0.0619
14651TIP3    H165444   0.852   1.630   2.286 -0.3916  0.0468 -0.0576
14651TIP3    H265445   0.707   1.658   2.318 -0.2995  0.5638 -0.0825
14652TIP3   OH265446   5.659   4.366   2.828 -0.7822 -0.3941 -0.2126
14652TIP3    H165447   5.704   4.400   2.906  0.0781  1.4194 -1.4247
14652TIP3    H265448   5.726   4.320   2.779 -0.5026  1.1340 -1.3488
14653TIP3   OH265449   6.243   0.134  12.611  0.4482  0.1317 -0.3804
14653TIP3    H165450   6.237   0.213  12.664  4.3489  0.5645 -0.3397
14653TIP3    H265451   6.165   0.084  12.635 -1.1162  3.0253  1.0843
14654TIP3   OH265452   4.503   4.607  13.691  1.0128 -0.1640  0.7229
14654TIP3    H165453   4.503   4.526  13.640 -1.2397  0.2396 -0.0082
14654TIP3    H265454   4.579   4.598  13.749  0.5327 -3.0429  1.0700
14655TIP3   OH265455   2.829   4.320  15.380 -0.4342 -0.2181  0.0793
14655TIP3    H165456   2.827   4.414  15.402  0.1727  0.2818 -1.7770
14655TIP3    H265457   2.919   4.303  15.355 -0.8980 -0.8633 -1.2555
14656TIP3   OH265458   5.405   5.363  12.225  0.8674  0.7075 -0.8469
14656TIP3    H165459   5.462   5.440  12.235  0.1661  1.2505 -1.0057
14656TIP3    H265460   5.329   5.395  12.177 -0.2303  0.3163  0.5733
14657TIP3   OH265461   0.439   0.768   2.809 -0.7497 -0.4606 -0.0601
14657TIP3    H165462   0.519   0.745   2.856  0.4617  0.7822 -1.4159
14657TIP3    H265463   0.414   0.687   2.763  1.5485 -0.1432 -2.1004
14658TIP3   OH265464   2.885   2.751   5.189 -0.5576 -0.5406  0.0585
14658TIP3    H165465   2.974   2.718   5.178  0.7578  1.8790  2.3587
14658TIP3    H265466   2.874   2.813   5.116  0.4280  0.5813  0.8299
14659TIP3   OH265467   6.339   1.289  15.629  0.1063  0.2315 -0.0609
14659TIP3    H165468   6.306   1.243  15.551  1.8470  0.4706 -0.9853
14659TIP3    H265469   6.260   1.309  15.679 -1.3022  1.4504 -2.5295
14660TIP3   OH265470   6.205   0.189   1.032 -0.2392 -0.3416  0.2902
14660TIP3    H165471   6.153   0.269   1.019 -1.5237 -1.3343 -0.9490
14660TIP3    H265472   6.282   0.219   1.080  0.1126  1.9651 -1.5094
14661TIP3   OH265473   3.590   0.103   5.556 -0.6287  0.0126  0.1222
14661TIP3    H165474   3.595   0.172   5.490 -0.0536 -0.2131 -0.0786
14661TIP3    H265475   3.660   0.125   5.619  0.8808 -1.4242 -0.9711
14662TIP3   OH265476   5.174   3.690   4.470  0.0791 -0.6340 -0.3594
14662TIP3    H165477   5.080   3.698   4.486  0.3323  3.7611  0.3144
14662TIP3    H265478   5.204   3.624   4.532 -2.2361 -0.4338  1.0823
14663TIP3   OH265479   2.898   4.905  14.416  0.1268 -0.6374 -0.0063
14663TIP3    H165480   2.925   4.941  14.332  0.1667  0.0847  0.3056
14663TIP3    H265481   2.957   4.945  14.480 -1.4477  0.7450  0.6536
14664TIP3   OH265482   6.206   3.414   2.646 -0.2562 -0.3263 -0.6983
14664TIP3    H165483   6.277   3.454   2.696 -0.1533  0.7659 -1.6851
14664TIP3    H265484   6.202   3.324   2.679  0.5112  0.0490  0.5035
14665TIP3   OH265485   5.118   1.371  16.859 -0.5918  0.5142 -0.5593
14665TIP3    H165486   5.112   1.363  16.764 -0.4872 -0.6546 -0.4866
14665TIP3    H265487   5.132   1.281  16.889 -0.5026  0.8888  0.5520
14666TIP3   OH265488   3.250   2.847  10.672 -0.1503 -0.2997  0.1100
14666TIP3    H165489   3.187   2.778  10.650 -0.2367  0.0138 -0.6660
14666TIP3    H265490   3.207   2.928  10.646 -0.3491  0.1415  1.6780
14667TIP3   OH265491   3.139   6.626   0.776 -0.3671 -0.2628  0.0189
14667TIP3    H165492   3.102   6.713   0.789 -3.6794 -1.5818  0.2859
14667TIP3    H265493   3.219   6.626   0.828 -0.4561  2.4801  0.2840
14668TIP3   OH265494   0.264   1.017  11.003  0.4255 -0.2655  0.3112
14668TIP3    H165495   0.213   0.936  11.004 -0.3639  0.1885 -0.8160
14668TIP3    H265496   0.276   1.035  10.910  0.9614  0.6961  0.5597
14669TIP3   OH265497   4.558   2.631   5.745 -0.3731  0.1968  0.6668
14669TIP3    H165498   4.612   2.667   5.674 -0.1559 -0.3270  0.5610
14669TIP3    H265499   4.493   2.699   5.762 -0.3561  0.3776  0.0435
14670TIP3   OH265500   4.981   4.295   2.383  0.2083  0.3014 -0.3373
14670TIP3    H165501   4.946   4.206   2.377  2.0480 -0.3768 -1.7615
14670TIP3    H265502   5.074   4.286   2.364  0.5792  2.4588  0.1811
14671TIP3   OH265503   4.428   2.828  13.371  0.1227 -0.2396 -0.2912
14671TIP3    H165504   4.398   2.737  13.378 -1.5165  0.0965 -2.0525
14671TIP3    H265505   4.391   2.872  13.447 -0.4851 -0.7127 -0.3026
14672TIP3   OH265506   1.918   1.512  16.730 -0.3260 -0.5514  0.0625
14672TIP3    H165507   1.848   1.507  16.665  0.0748  0.4493 -0.4806
14672TIP3    H265508   1.997   1.529  16.679 -0.1551  1.2793  0.8437
14673TIP3   OH265509   4.504   2.681  16.413 -0.2264 -0.0410 -0.2610
14673TIP3    H165510   4.426   2.692  16.467 -0.7244  0.0374 -0.9819
14673TIP3    H265511   4.494   2.596  16.372 -0.0016  0.0359 -0.4803
14674TIP3   OH265512   4.326   2.745   5.308 -0.1399  0.3129 -0.5211
14674TIP3    H165513   4.294   2.816   5.363  0.9795  0.7920 -0.4390
14674TIP3    H265514   4.273   2.750   5.228 -0.7484  0.5891 -0.1039
14675TIP3   OH265515   3.307   0.602   2.657  0.0540  0.2312  0.5380
14675TIP3    H165516   3.266   0.683   2.687  2.7862  1.5537  1.0660
14675TIP3    H265517   3.350   0.626   2.575  0.7176 -0.7394  0.5881
14676TIP3   OH265518   4.907   0.136  15.845  0.1717 -0.3557  0.1327
14676TIP3    H165519   4.816   0.127  15.874  0.0241 -0.4230 -0.3539
14676TIP3    H265520   4.913   0.083  15.766  0.0028  1.5064 -1.2020
14677TIP3   OH265521   2.270   1.636  10.870  0.1033 -0.3251  0.9167
14677TIP3    H165522   2.207   1.707  10.872  0.5101  0.0662  0.2667
14677TIP3    H265523   2.289   1.617  10.962  0.5645  0.9270  1.1017
14678TIP3   OH265524   6.150   6.609  13.471  0.0054  0.0146  0.0202
14678TIP3    H165525   6.058   6.584  13.483  0.0475 -0.7870 -1.1323
14678TIP3    H265526   6.152   6.703  13.490 -1.0259  0.0051  0.2248
14679TIP3   OH265527   5.406   2.469   1.226  0.2801  0.3253 -0.2868
14679TIP3    H165528   5.424   2.388   1.180  1.3810  0.1105  0.4730
14679TIP3    H265529   5.352   2.443   1.300  0.3722  0.3255 -0.2184
14680TIP3   OH265530   1.826   0.258  16.941  0.0552 -0.8035 -0.2385
14680TIP3    H165531   1.734   0.240  16.961 -0.5169  0.5253 -1.4693
14680TIP3    H265532   1.830   0.255  16.845  0.8385  1.0950 -0.3062
14681TIP3   OH265533   4.251   5.627   3.025  0.2851 -0.1770 -0.4788
14681TIP3    H165534   4.230   5.563   2.957  0.6451  0.6245 -1.3662
14681TIP3    H265535   4.233   5.712   2.984  0.8608  0.3318  0.2945
14682TIP3   OH265536   1.471   0.200  16.463 -0.4150 -0.5493  0.1882
14682TIP3    H165537   1.451   0.109  16.485 -2.4056 -1.2211 -3.6507
14682TIP3    H265538   1.385   0.241  16.451  0.3936  0.6018 -2.2928
14683TIP3   OH265539   4.534   6.674  12.877  0.3801  0.0416 -0.4923
14683TIP3    H165540   4.491   6.726  12.809 -0.0425  0.1401 -0.1559
14683TIP3    H265541   4.523   6.725  12.957 -0.6658 -0.8861 -0.0149
14684TIP3   OH265542   1.064   2.147   3.776  0.1598  0.3381 -0.0554
14684TIP3    H165543   1.031   2.068   3.734  2.5320 -0.9711  0.3888
14684TIP3    H265544   1.047   2.134   3.870  0.6647  0.2981  0.0322
14685TIP3   OH265545   1.661   5.568  11.665 -0.4449 -0.5591  0.3653
14685TIP3    H165546   1.699   5.514  11.596  0.8922  0.6736  0.0846
14685TIP3    H265547   1.646   5.508  11.738  0.8293 -1.3475  0.0045
14686TIP3   OH265548   2.225   1.635   6.382 -0.5457 -1.0790 -0.3345
14686TIP3    H165549   2.139   1.651   6.419 -0.1642  3.1961 -0.7056
14686TIP3    H265550   2.219   1.669   6.292  2.0395  2.0581  0.4601
14687TIP3   OH265551   5.955   5.244   2.811  0.1858  0.5353  0.4516
14687TIP3    H165552   5.976   5.300   2.886  1.3697 -0.2367  0.7317
14687TIP3    H265553   5.940   5.157   2.849  2.2771 -0.2166 -0.2736
14688TIP3   OH265554   4.322   4.508   6.226  0.2986 -0.7800 -0.2302
14688TIP3    H165555   4.320   4.483   6.319  0.9755  0.0908  0.0349
14688TIP3    H265556   4.312   4.425   6.179 -1.8168 -1.0635  0.6015
14689TIP3   OH265557   5.612   5.972   3.761  0.0200 -0.5260 -0.5370
14689TIP3    H165558   5.665   5.892   3.757  2.0454  0.7520 -0.3906
14689TIP3    H265559   5.675   6.043   3.754 -1.8268  1.0909 -1.6060
14690TIP3   OH265560   4.401   6.343   3.557  0.4728  0.2039  0.3047
14690TIP3    H165561   4.311   6.372   3.574  0.7970  1.3348  0.2232
14690TIP3    H265562   4.402   6.251   3.580 -0.9229 -0.0335 -0.4743
14691TIP3   OH265563   1.017   1.495  16.143 -0.0705 -0.0581 -0.4733
14691TIP3    H165564   1.056   1.570  16.098  1.4804 -1.7234 -2.0737
14691TIP3    H265565   0.948   1.464  16.084  0.4099 -0.8470 -0.6444
14692TIP3   OH265566   5.002   4.884   1.926  0.2999 -0.4852  0.3975
14692TIP3    H165567   5.081   4.863   1.875 -0.8324 -2.9456 -0.5189
14692TIP3    H265568   4.986   4.977   1.907  1.9061 -0.4151 -0.9067
14693TIP3   OH265569   6.661   5.359   5.193  0.2915 -0.0909 -0.6040
14693TIP3    H165570   6.600   5.404   5.135 -2.5955  0.3591  2.4862
14693TIP3    H265571   6.680   5.423   5.263 -0.9992 -2.2918  1.9576
14694TIP3   OH265572   6.740   4.356   3.253 -0.3213  0.2816 -0.3722
14694TIP3    H165573   6.748   4.404   3.171 -1.8109 -2.0948 -2.0472
14694TIP3    H265574   6.822   4.307   3.260  0.3685  1.5077  0.2938
14695TIP3   OH265575   5.672   6.065  13.039 -0.4165 -0.2897  0.3534
14695TIP3    H165576   5.626   6.005  12.980  1.4718 -1.3598 -0.1146
14695TIP3    H265577   5.670   6.022  13.124 -0.9270  0.0400  0.5153
14696TIP3   OH265578   5.495   1.763   0.068  0.7635 -0.0622 -0.0412
14696TIP3    H165579   5.503   1.799   0.157  1.0265 -0.9919  0.3262
14696TIP3    H265580   5.471   1.671   0.082  0.6342 -0.1692 -0.9417
14697TIP3   OH265581   4.011   5.600   2.450  0.4603 -0.0221  0.5620
14697TIP3    H165582   4.077   5.602   2.381  0.5406 -0.0166  0.6375
14697TIP3    H265583   4.009   5.508   2.478  1.0787  0.1429  1.1694
14698TIP3   OH265584   0.617   5.470  14.717  0.1000 -0.0234  0.0973
14698TIP3    H165585   0.611   5.377  14.735  0.5725  0.1848  1.3879
14698TIP3    H265586   0.710   5.486  14.700 -0.3505 -0.3698 -3.7241
14699TIP3   OH265587   6.187   1.137  16.648  0.1090  0.4976  0.0213
14699TIP3    H165588   6.189   1.044  16.672 -0.9842  0.1468 -1.1397
14699TIP3    H265589   6.252   1.145  16.578 -1.3911  0.1022 -1.4596
14700TIP3   OH265590   1.814   6.535   4.085 -0.9073  0.2722  0.1216
14700TIP3    H165591   1.805   6.592   4.162 -1.9532 -0.3111  0.4650
14700TIP3    H265592   1.861   6.588   4.021  0.0958  0.7323  1.1996
14701TIP3   OH265593   0.512   4.217   3.127  0.2469  0.1835  0.7334
14701TIP3    H165594   0.417   4.230   3.137  0.0735  0.4276 -0.8693
14701TIP3    H265595   0.548   4.234   3.214 -0.9007  2.7483  0.8018
14702TIP3   OH265596   6.441   3.444   4.904  0.6787  0.3431 -0.6821
14702TIP3    H165597   6.524   3.460   4.950  0.0445  0.7136  0.3830
14702TIP3    H265598   6.374   3.464   4.970 -0.2543  0.1468 -1.5600
14703TIP3   OH265599   2.317   6.118   4.898  0.2226  0.1376 -0.1898
14703TIP3    H165600   2.339   6.144   4.987 -0.3748 -0.2356  0.0716
14703TIP3    H265601   2.316   6.200   4.848  0.1435  0.3985  0.2347
14704TIP3   OH265602   0.040   2.415   1.235 -0.3884 -0.6499  0.3228
14704TIP3    H165603   0.046   2.396   1.142  0.0227 -0.1541  0.2478
14704TIP3    H265604   0.086   2.497   1.247 -1.2899 -0.1957  0.8121
14705TIP3   OH265605   2.799   4.048  12.580  0.3882  0.1757 -0.3301
14705TIP3    H165606   2.743   3.986  12.534 -0.6004  1.1554 -0.4761
14705TIP3    H265607   2.818   4.006  12.664  1.0590 -1.0097 -1.0348
14706TIP3   OH265608   0.921   2.512  10.780 -0.1266 -0.2321 -0.3059
14706TIP3    H165609   0.999   2.549  10.739 -0.2795  1.2032  0.6266
14706TIP3    H265610   0.950   2.483  10.866 -0.2273 -1.4536 -0.6673
14707TIP3   OH265611   5.335   3.320   0.502  0.1531 -0.3195 -0.1583
14707TIP3    H165612   5.240   3.306   0.497 -0.1758  1.5308 -0.0919
14707TIP3    H265613   5.354   3.376   0.426  1.0125  0.1211  0.3725
14708TIP3   OH265614   2.104   0.485   4.032 -0.3391 -0.3183  0.3916
14708TIP3    H165615   2.123   0.391   4.037  0.2458 -0.1601  1.4239
14708TIP3    H265616   2.190   0.526   4.022 -0.5006  0.1573  0.9191
14709TIP3   OH265617   4.630   5.697  16.492 -0.4783  0.0853  0.1255
14709TIP3    H165618   4.718   5.726  16.517 -1.4696  2.3597  1.3642
14709TIP3    H265619   4.627   5.705  16.397  1.3262 -2.3013 -0.2112
14710TIP3   OH265620   2.740   6.755   2.050 -0.1684  0.1248  0.5153
14710TIP3    H165621   2.740   6.671   2.096 -0.5656 -0.9940 -1.4211
14710TIP3    H265622   2.664   6.750   1.992 -0.8528  2.3068  1.1150
14711TIP3   OH265623   0.867   6.692  13.925 -0.6191 -0.7004 -0.5589
14711TIP3    H165624   0.903   6.733  14.004 -0.0232  0.1542 -1.2550
14711TIP3    H265625   0.853   6.601  13.950  1.0013 -0.8059  0.0860
14712TIP3   OH265626   5.287   2.857  14.042  0.2074 -0.2514  0.4073
14712TIP3    H165627   5.214   2.913  14.065  1.1165  1.0994  0.1011
14712TIP3    H265628   5.334   2.904  13.973  1.0827 -1.3030  0.2493
14713TIP3   OH265629   2.875   3.126  14.167 -0.6307 -0.1069 -0.4908
14713TIP3    H165630   2.930   3.204  14.155  3.0337 -2.4122 -0.3729
14713TIP3    H265631   2.865   3.118  14.261  0.6943 -0.7618 -0.3826
14714TIP3   OH265632   1.814   1.903   0.127 -0.2398 -0.0583 -0.1374
14714TIP3    H165633   1.878   1.972   0.145  1.6855 -1.6249 -0.6150
14714TIP3    H265634   1.773   1.928   0.044  2.1984 -0.6276 -1.6102
14715TIP3   OH265635   0.071   6.138  16.343  0.1369 -0.4494 -0.2217
14715TIP3    H165636   0.114   6.223  16.339 -4.0179  1.8863 -1.2425
14715TIP3    H265637   0.077   6.103  16.254  0.6660 -0.5747 -0.1388
14716TIP3   OH265638   0.955   4.402   1.561  0.0801  0.6532  0.3746
14716TIP3    H165639   1.008   4.453   1.499 -0.5154  1.9813  0.9346
14716TIP3    H265640   1.016   4.337   1.596  0.6866  0.5358 -0.8478
14717TIP3   OH265641   1.144   6.372   0.337 -0.4898  0.2467 -0.2359
14717TIP3    H165642   1.122   6.421   0.258 -2.2859 -0.4311 -0.2031
14717TIP3    H265643   1.147   6.438   0.407  0.5850  0.7724 -0.7629
14718TIP3   OH265644   2.045   1.022   5.912  0.4338 -0.1943 -0.2458
14718TIP3    H165645   2.012   0.933   5.922  2.7823 -1.0429  0.5090
14718TIP3    H265646   2.015   1.068   5.990  0.4712 -0.7405  0.0898
14719TIP3   OH265647   5.431   2.630  12.538 -0.0507 -0.3366 -0.0316
14719TIP3    H165648   5.365   2.642  12.470  0.0781 -0.5519 -0.1964
14719TIP3    H265649   5.380   2.612  12.617 -0.2510  1.2024  0.2203
14720TIP3   OH265650   3.584   3.759   0.111 -0.4233  0.4609  0.1553
14720TIP3    H165651   3.523   3.722   0.047 -0.5844  0.9951 -0.0057
14720TIP3    H265652   3.624   3.834   0.066 -0.0564  0.4487  0.4531
14721TIP3   OH265653   1.539   5.683   0.780  0.3449 -0.5741 -0.6690
14721TIP3    H165654   1.609   5.721   0.832  0.2409 -0.5230 -0.5662
14721TIP3    H265655   1.584   5.623   0.720  0.5868  0.2958 -1.3828
14722TIP3   OH265656   1.654   6.787   2.236 -0.3483  0.1074  0.0478
14722TIP3    H165657   1.586   6.722   2.251  1.1655 -1.6772 -0.3452
14722TIP3    H265658   1.730   6.754   2.284  0.0982  2.3563  1.0044
14723TIP3   OH265659   4.705   1.751  13.657  0.4125  0.2636 -0.3219
14723TIP3    H165660   4.734   1.841  13.648  0.7578  0.1164 -0.7020
14723TIP3    H265661   4.755   1.717  13.731  1.6178 -0.1406 -1.2857
14724TIP3   OH265662   4.520   5.310  16.862  0.5053 -0.6021  0.6004
14724TIP3    H165663   4.509   5.385  16.920 -0.6522 -0.1940 -0.1047
14724TIP3    H265664   4.587   5.336  16.799 -1.4404  0.7876 -1.0298
14725TIP3   OH265665   0.481   2.662  12.188  0.3022 -0.2548  0.3180
14725TIP3    H165666   0.572   2.679  12.165  0.0529  0.7692  0.0551
14725TIP3    H265667   0.439   2.748  12.187 -0.9492 -0.8462 -0.8058
14726TIP3   OH265668   5.453   3.158   4.221  0.3711  0.6154  0.0559
14726TIP3    H165669   5.519   3.134   4.156 -0.2831  0.9313 -0.7539
14726TIP3    H265670   5.417   3.241   4.189  0.4239  1.0694  1.1305
14727TIP3   OH265671   0.446   4.482   1.828  0.2122  0.2208  0.4556
14727TIP3    H165672   0.532   4.521   1.845  1.0534 -1.8205  1.1552
14727TIP3    H265673   0.440   4.478   1.733  0.9251  0.3039  0.3986
14728TIP3   OH265674   3.387   6.646   2.311  0.0890  0.1957 -0.0188
14728TIP3    H165675   3.479   6.643   2.284  0.5877  2.1130  1.1954
14728TIP3    H265676   3.348   6.714   2.256 -0.2589  0.2987  0.3471
14729TIP3   OH265677   2.848   3.215  16.993  0.0373 -0.2474  0.1863
14729TIP3    H165678   2.865   3.174  17.078 -0.1742  0.2964  0.4967
14729TIP3    H265679   2.827   3.142  16.935 -1.6513 -0.4897  1.0344
14730TIP3   OH265680   1.393   1.855   1.692 -0.1433  0.2865  0.1821
14730TIP3    H165681   1.298   1.860   1.701 -0.1325 -0.0070  0.4491
14730TIP3    H265682   1.423   1.944   1.711 -0.3598  0.3651  0.1581
14731TIP3   OH265683   6.252   6.588   5.609 -0.1488  0.6462  0.1565
14731TIP3    H165684   6.224   6.598   5.700  0.6012 -1.4848  0.6566
14731TIP3    H265685   6.183   6.536   5.568 -0.9375  2.3279 -0.8003
14732TIP3   OH265686   0.340   4.570  13.993 -0.3625 -0.0344  0.1213
14732TIP3    H165687   0.338   4.479  14.022 -2.3924  0.5095  1.9323
14732TIP3    H265688   0.249   4.589  13.968 -0.2099  1.7679  0.8074
14733TIP3   OH265689   5.469   3.915  10.218 -0.3788  0.6015  0.8032
14733TIP3    H165690   5.417   3.995  10.220 -1.7482 -0.2367  2.8841
14733TIP3    H265691   5.539   3.930  10.282  1.9168  1.6203 -1.7877
14734TIP3   OH265692   3.051   1.174  15.393 -0.5485 -0.0437  0.0391
14734TIP3    H165693   3.135   1.178  15.438 -0.7638 -3.5617  1.0333
14734TIP3    H265694   2.993   1.229  15.445  0.8388  1.6397 -0.1046
14735TIP3   OH265695   5.408   1.100   0.351 -0.6590 -0.4569 -0.1146
14735TIP3    H165696   5.442   1.037   0.414  0.9462 -1.1717 -1.5911
14735TIP3    H265697   5.335   1.055   0.308 -1.3815 -0.1799  0.7798
14736TIP3   OH265698   3.174   4.279  12.154 -0.5909 -0.5221 -0.3440
14736TIP3    H165699   3.143   4.311  12.239 -1.3290  0.1111 -0.8439
14736TIP3    H265700   3.264   4.312  12.148 -1.1489  1.0478 -0.6046
14737TIP3   OH265701   6.596   5.510  16.221 -0.2047  0.3203 -0.0832
14737TIP3    H165702   6.583   5.595  16.262 -0.5685 -0.5337  1.6711
14737TIP3    H265703   6.547   5.515  16.139 -1.1832  1.4146  0.5380
14738TIP3   OH265704   1.139   4.065   2.277 -0.4784 -0.3006  0.3064
14738TIP3    H165705   1.138   3.975   2.245 -1.5076  0.4316 -1.8934
14738TIP3    H265706   1.223   4.099   2.249  1.0636 -1.2227  3.3725
14739TIP3   OH265707   4.577   5.872   2.560  0.0398 -0.2555  0.0284
14739TIP3    H165708   4.658   5.876   2.610  0.0641 -0.5202  0.0139
14739TIP3    H265709   4.545   5.962   2.559  1.7315  0.4143 -2.2888
14740TIP3   OH265710   3.142   4.500  15.047 -0.0474 -0.3134 -0.0955
14740TIP3    H165711   3.050   4.479  15.062 -0.2306  0.2442 -0.3766
14740TIP3    H265712   3.163   4.459  14.963 -0.3363  0.3914 -0.5268
14741TIP3   OH265713   3.079   6.454  14.591  0.6895  0.9752  0.2151
14741TIP3    H165714   3.096   6.477  14.500 -1.8043  4.5974  0.4179
14741TIP3    H265715   3.164   6.459  14.634  1.6185  1.1680 -1.5786
14742TIP3   OH265716   2.437   0.304  14.829 -0.2320  1.2760  0.2249
14742TIP3    H165717   2.397   0.285  14.914 -0.2256  1.5799  0.2962
14742TIP3    H265718   2.495   0.379  14.846 -1.6870  2.6073 -0.4628
14743TIP3   OH265719   4.679   5.303  14.004  0.0275  0.1794 -0.6628
14743TIP3    H165720   4.740   5.230  13.995 -0.1074  0.2369 -2.3090
14743TIP3    H265721   4.593   5.262  14.017 -0.1882 -0.0167 -2.4825
14744TIP3   OH265722   5.219   3.726  15.395 -0.0765 -0.3172 -0.5257
14744TIP3    H165723   5.213   3.701  15.487 -0.0708 -1.1712 -0.7507
14744TIP3    H265724   5.247   3.818  15.397  0.0537 -0.3663  0.3195
14745TIP3   OH265725   4.798   3.234   2.170 -0.0080  0.8883 -0.1209
14745TIP3    H165726   4.886   3.258   2.138 -0.7676  0.9499 -2.3225
14745TIP3    H265727   4.782   3.296   2.242  1.5910  1.1072  0.1047
14746TIP3   OH265728   2.231   3.965  14.498 -0.6229  0.1133  0.2322
14746TIP3    H165729   2.200   4.055  14.514  0.9403  0.8770 -0.8724
14746TIP3    H265730   2.320   3.965  14.532 -0.5914 -1.0215  0.1544
14747TIP3   OH265731   5.440   1.377  12.702 -0.1121 -0.6490  0.4945
14747TIP3    H165732   5.345   1.370  12.694 -0.0561 -2.2910  0.7857
14747TIP3    H265733   5.457   1.470  12.712 -1.8290 -0.4419  2.1046
14748TIP3   OH265734   6.816   5.985  16.732 -0.5068  0.6937  0.0290
14748TIP3    H165735   6.884   5.948  16.788  0.3366  0.7254 -0.9416
14748TIP3    H265736   6.782   6.060  16.780 -0.4258  0.1942  0.8781
14749TIP3   OH265737   1.185   4.665  14.432 -0.1321 -0.0370  0.1618
14749TIP3    H165738   1.100   4.647  14.393 -1.3975 -0.4685  2.9218
14749TIP3    H265739   1.243   4.597  14.396 -0.9856  0.0158 -1.4281
14750TIP3   OH265740   1.083   2.870  12.259 -0.8353 -0.6033 -0.4560
14750TIP3    H165741   1.061   2.962  12.275 -0.4217 -0.4225 -0.8841
14750TIP3    H265742   1.082   2.862  12.163 -2.4957 -1.4614 -0.3987
14751TIP3   OH265743   2.030   1.915  15.490 -0.1008 -0.1289  0.9786
14751TIP3    H165744   2.089   1.904  15.415  0.2680 -2.1091  1.5074
14751TIP3    H265745   1.976   1.990  15.467  1.0623  0.2885 -0.5660
14752TIP3   OH265746   4.720   0.227   2.922 -0.0964  0.0325 -0.2826
14752TIP3    H165747   4.798   0.215   2.976 -1.4870  0.0369  1.8257
14752TIP3    H265748   4.675   0.302   2.961 -1.9000 -0.8884 -0.5011
14753TIP3   OH265749   0.664   3.418  12.145 -0.2104 -0.0814 -0.3491
14753TIP3    H165750   0.635   3.365  12.219  2.6361  0.3115  1.1900
14753TIP3    H265751   0.584   3.458  12.111 -1.6936 -0.7537  2.1180
14754TIP3   OH265752   5.733   5.113   4.636 -0.1054 -0.0580 -0.0248
14754TIP3    H165753   5.820   5.087   4.606 -0.3279 -0.8001 -0.0508
14754TIP3    H265754   5.675   5.047   4.599 -0.3595 -1.2294  2.3355
14755TIP3   OH265755   0.756   6.160  12.240  0.2489 -0.5925 -0.0511
14755TIP3    H165756   0.771   6.233  12.180  1.1500 -0.6978  0.0307
14755TIP3    H265757   0.843   6.122  12.254  0.0651 -0.5637  1.3289
14756TIP3   OH265758   5.297   3.761  11.683 -0.1222 -0.2416  0.0851
14756TIP3    H165759   5.221   3.778  11.739 -0.5503  0.0967 -0.5783
14756TIP3    H265760   5.312   3.845  11.639  0.5623 -0.3455  0.1243
14757TIP3   OH265761   5.580   5.615  13.231  0.0384  0.1336 -0.1744
14757TIP3    H165762   5.513   5.661  13.180 -1.7994  0.2662  2.1852
14757TIP3    H265763   5.610   5.679  13.296  1.0548 -0.5254  0.0431
14758TIP3   OH265764   2.534   0.017  15.677  0.2206 -0.4801  0.6910
14758TIP3    H165765   2.478   0.092  15.657 -1.8811 -2.2249 -0.3852
14758TIP3    H265766   2.622   0.054  15.687 -0.7094  2.0686  0.0734
14759TIP3   OH265767   0.295   4.338  14.156  0.0382 -0.1622 -0.1359
14759TIP3    H165768   0.339   4.254  14.146 -0.9504 -0.9776  1.8371
14759TIP3    H265769   0.266   4.340  14.248 -0.1822  2.2296 -0.1839
14760TIP3   OH265770   3.609   1.428  15.000 -0.1557  0.7902 -0.1092
14760TIP3    H165771   3.521   1.396  15.021 -0.1606  1.3526  0.7841
14760TIP3    H265772   3.599   1.524  14.996  0.2264  0.7967 -0.9251
14761TIP3   OH265773   6.504   2.036   2.125  0.2866 -0.2024  1.2280
14761TIP3    H165774   6.422   2.022   2.077  1.2377  0.0039 -0.5638
14761TIP3    H265775   6.497   1.982   2.203 -1.2406 -0.7787  0.7134
14762TIP3   OH265776   2.159   6.520   5.993 -0.1230 -0.0190  0.4319
14762TIP3    H165777   2.232   6.572   5.957 -0.2048 -0.6978 -0.7500
14762TIP3    H265778   2.110   6.582   6.047  1.7973  0.2638  1.9865
14763TIP3   OH265779   5.837   5.012  11.986 -0.2178 -0.1571 -0.3788
14763TIP3    H165780   5.873   5.062  11.912 -1.7601  0.4653 -0.7500
14763TIP3    H265781   5.778   5.074  12.029  0.0386 -0.7848  0.8889
14764TIP3   OH265782   0.079   2.114   2.550 -0.1620 -0.0134  0.2063
14764TIP3    H165783   0.007   2.082   2.496 -0.2552  0.2679  0.1629
14764TIP3    H265784   0.060   2.207   2.563 -0.1903 -0.0998  0.8050
14765TIP3   OH265785   4.878   4.627  12.721  1.0118  0.0148 -0.3559
14765TIP3    H165786   4.844   4.538  12.722  0.8779  0.0521  1.1925
14765TIP3    H265787   4.967   4.619  12.755  0.8581  0.5038  0.1877
14766TIP3   OH265788   3.299   4.640   3.184  0.0396  0.2246 -0.3221
14766TIP3    H165789   3.310   4.731   3.211  1.0857 -0.0672  0.3021
14766TIP3    H265790   3.217   4.612   3.226  0.6899  0.3261  1.0881
14767TIP3   OH265791   1.168   6.494   2.150 -0.0684 -0.1616 -0.1916
14767TIP3    H165792   1.080   6.469   2.174  0.0617  0.1059  0.5786
14767TIP3    H265793   1.168   6.590   2.155  0.6874 -0.2132  1.3696
14768TIP3   OH265794   0.911   2.993  16.210  0.2926 -0.1819  0.3397
14768TIP3    H165795   0.819   3.015  16.197  0.4903  1.2803  1.1397
14768TIP3    H265796   0.946   2.984  16.121 -0.5483 -0.4346  0.0270
14769TIP3   OH265797   0.413   0.792  11.317  0.3103  0.2914  1.0899
14769TIP3    H165798   0.366   0.716  11.283 -0.2261  0.2155  1.9536
14769TIP3    H265799   0.504   0.764  11.323  0.5179  0.4630 -0.6824
14770TIP3   OH265800   0.548   6.590  15.573  0.5843 -0.7689 -0.9435
14770TIP3    H165801   0.474   6.620  15.625  0.9012 -0.7670 -0.4853
14770TIP3    H265802   0.535   6.629  15.486 -0.4943 -1.6050 -1.1747
14771TIP3   OH265803   3.516   2.730  16.000 -0.2644  0.1342 -0.4602
14771TIP3    H165804   3.588   2.720  16.062 -0.3301 -0.1429 -0.4273
14771TIP3    H265805   3.486   2.641  15.982 -1.5941  0.3013  0.7085
14772TIP3   OH265806   0.351   1.943   5.856  0.0112  0.1474  0.0541
14772TIP3    H165807   0.320   1.880   5.921 -2.7922  1.6951  0.3924
14772TIP3    H265808   0.417   1.994   5.902 -1.0790  0.4537  1.3528
14773TIP3   OH265809   1.498   0.479  15.554 -0.2035 -0.1155  0.1715
14773TIP3    H165810   1.556   0.493  15.480 -1.4616  3.1381 -0.3536
14773TIP3    H265811   1.457   0.394  15.537  0.9229 -0.3103 -1.8344
14774TIP3   OH265812   6.513   5.131   1.588  0.4492  0.3326 -0.0631
14774TIP3    H165813   6.422   5.106   1.575  0.6593  0.0314 -1.0577
14774TIP3    H265814   6.555   5.052   1.623  0.6852 -0.0908 -1.2682
14775TIP3   OH265815   2.223   0.333   0.246  0.3779  0.2576 -0.1600
14775TIP3    H165816   2.199   0.260   0.190  1.1528  0.3076 -0.5768
14775TIP3    H265817   2.289   0.297   0.306 -0.6899  0.1169  0.9617
14776TIP3   OH265818   2.499   4.047  11.243 -0.0373  0.0033  0.0014
14776TIP3    H165819   2.444   4.112  11.287 -1.0676 -0.7597 -0.1249
14776TIP3    H265820   2.444   4.012  11.173  0.3799 -1.2065  0.2497
14777TIP3   OH265821   0.706   4.635   4.671  0.8019  0.9182  0.2673
14777TIP3    H165822   0.634   4.642   4.608 -0.5089  1.0324  1.7342
14777TIP3    H265823   0.770   4.579   4.627 -1.0113 -0.7911 -0.3638
14778TIP3   OH265824   1.937   0.242  14.751 -0.0733  0.5415 -0.0924
14778TIP3    H165825   1.999   0.198  14.692 -0.7801  0.3435 -0.7033
14778TIP3    H265826   1.930   0.331  14.717 -1.9053 -0.0741 -1.4996
14779TIP3   OH265827   0.732   4.635   3.758  0.1343 -0.0692  0.1057
14779TIP3    H165828   0.707   4.715   3.713  2.6599 -0.5444 -2.4271
14779TIP3    H265829   0.726   4.657   3.851 -1.0330  2.4248 -0.4853
14780TIP3   OH265830   0.296   3.140   1.321  0.1630 -0.7037  0.1213
14780TIP3    H165831   0.370   3.200   1.316 -1.1323  0.8697 -1.3457
14780TIP3    H265832   0.239   3.177   1.389 -1.4682  0.8301 -1.9492
14781TIP3   OH265833   5.748   3.381  11.540 -0.2955 -0.1251 -0.1135
14781TIP3    H165834   5.671   3.402  11.486 -1.6326 -1.0806  1.3461
14781TIP3    H265835   5.755   3.454  11.601  0.9272  0.7210 -1.2306
14782TIP3   OH265836   6.312   1.385  16.125 -0.4441 -0.3224  0.1816
14782TIP3    H165837   6.277   1.465  16.086  0.2233  1.0979  2.3291
14782TIP3    H265838   6.235   1.329  16.138 -0.6995 -0.8540 -2.9549
14783TIP3   OH265839   1.596   0.821   1.366  0.0426 -0.1899 -0.3231
14783TIP3    H165840   1.594   0.745   1.424  0.2644  0.7237  0.9440
14783TIP3    H265841   1.544   0.887   1.412  0.8952  0.8275 -0.7795
14784TIP3   OH265842   2.768   6.086  13.318  0.1991  0.4172  0.2882
14784TIP3    H165843   2.851   6.098  13.364  1.6066 -0.7733 -1.7804
14784TIP3    H265844   2.770   6.151  13.247  0.1895 -0.7092 -0.7831
14785TIP3   OH265845   3.805   4.266  11.286 -0.0519 -0.1984 -0.5735
14785TIP3    H165846   3.873   4.281  11.352 -1.3674  0.7340  0.6378
14785TIP3    H265847   3.853   4.248  11.205  1.6172 -0.8695  0.5182
14786TIP3   OH265848   0.912   5.478  13.138 -0.1261  0.1023  0.3132
14786TIP3    H165849   0.927   5.497  13.045  0.9484  0.2300  0.4946
14786TIP3    H265850   0.985   5.522  13.183  0.0342 -0.9584  1.1156
14787TIP3   OH265851   2.838   4.655   4.235 -0.2443  0.5950 -0.5202
14787TIP3    H165852   2.926   4.619   4.222  0.0983  1.2348  0.0014
14787TIP3    H265853   2.781   4.596   4.185  0.3040 -0.6547  0.2792
14788TIP3   OH265854   0.535   2.539   4.631 -0.2123 -0.0711  0.1728
14788TIP3    H165855   0.449   2.499   4.644  0.0030 -0.8587 -0.6923
14788TIP3    H265856   0.545   2.600   4.705 -1.6042  0.2198  0.1412
14789TIP3   OH265857   1.426   4.448   5.819  0.7216  0.4107 -0.6858
14789TIP3    H165858   1.371   4.505   5.766 -1.1363  0.2823  0.9876
14789TIP3    H265859   1.438   4.495   5.901  1.5147 -0.4045 -0.3110
14790TIP3   OH265860   1.184   6.618  16.164 -0.1052 -0.2367 -0.1706
14790TIP3    H165861   1.093   6.639  16.145 -0.1783  1.0310  1.3797
14790TIP3    H265862   1.224   6.604  16.078 -1.7707 -0.9519 -0.8583
14791TIP3   OH265863   0.464   1.999   3.692 -0.5284 -0.2149  0.4539
14791TIP3    H165864   0.553   2.000   3.727 -0.3668 -2.1425  0.1856
14791TIP3    H265865   0.416   1.942   3.752 -1.5715  0.6687  0.4942
14792TIP3   OH265866   6.331   6.723  14.219 -0.1445  0.2316  0.1900
14792TIP3    H165867   6.386   6.759  14.289 -1.9072  2.1602  0.6726
14792TIP3    H265868   6.358   6.770  14.140 -0.4200  0.4582  0.2309
14793TIP3   OH265869   1.435   3.970  12.155 -0.7423  0.0643 -0.0599
14793TIP3    H165870   1.431   4.063  12.174 -0.9666  0.3236 -1.2837
14793TIP3    H265871   1.525   3.956  12.124 -1.1380  0.1942 -1.3283
14794TIP3   OH265872   5.258   1.958   4.177  0.2192 -0.5393  0.4221
14794TIP3    H165873   5.292   2.032   4.126  0.0640 -1.1238 -0.5701
14794TIP3    H265874   5.335   1.917   4.215  0.2769  0.3238  1.2675
14795TIP3   OH265875   3.145   4.449   6.328 -0.1038 -0.2522 -0.1685
14795TIP3    H165876   3.214   4.512   6.348 -1.2779  1.1527 -0.4175
14795TIP3    H265877   3.076   4.469   6.391  0.4353 -2.9727  1.4484
14796TIP3   OH265878   0.106   4.175  12.078 -0.2111  0.2913  0.2779
14796TIP3    H165879   0.107   4.081  12.061  2.0242  0.6074 -1.8720
14796TIP3    H265880   0.146   4.184  12.165  2.1643 -0.6582 -0.6328
14797TIP3   OH265881   1.110   6.448   5.769 -0.4269 -0.0978  0.0022
14797TIP3    H165882   1.127   6.521   5.710  1.7641  0.6917  1.4835
14797TIP3    H265883   1.160   6.375   5.732 -1.2129 -0.3851 -0.5262
14798TIP3   OH265884   6.116   2.935  10.830 -0.1896 -0.6395 -0.0925
14798TIP3    H165885   6.055   2.862  10.817  0.5691 -0.9595 -2.2041
14798TIP3    H265886   6.080   3.006  10.776  0.2556 -0.1728  0.2202
14799TIP3   OH265887   3.949   4.261  14.375  0.4308 -0.0461  0.4590
14799TIP3    H165888   3.911   4.183  14.413 -1.4520  0.2291 -0.7440
14799TIP3    H265889   3.908   4.269  14.289  0.4800  2.3011  0.5660
14800TIP3   OH265890   0.351   0.176   3.750  0.3653  0.0984 -0.7207
14800TIP3    H165891   0.382   0.162   3.839  2.3421  0.1500 -1.3551
14800TIP3    H265892   0.374   0.095   3.704 -0.9917 -0.0861 -1.1150
14801TIP3   OH265893   1.832   6.681   3.488  0.4589 -0.3046 -0.5003
14801TIP3    H165894   1.897   6.740   3.450  0.4195  0.3892  0.4710
14801TIP3    H265895   1.881   6.628   3.551  0.3829 -0.9202 -0.9478
14802TIP3   OH265896   2.238   5.489  14.266  0.3507  0.1476  0.4176
14802TIP3    H165897   2.205   5.472  14.355 -1.1043 -0.8222 -0.2738
14802TIP3    H265898   2.226   5.583  14.253 -0.3054  0.1341  0.8963
14803TIP3   OH265899   5.556   5.471  11.992 -0.4800 -0.4970 -0.3246
14803TIP3    H165900   5.464   5.461  11.970 -1.6239  0.6511  3.2393
14803TIP3    H265901   5.574   5.564  11.982 -0.2981 -0.3994  0.7211
14804TIP3   OH265902   2.881   6.746   5.094 -0.6991  0.4997 -0.0329
14804TIP3    H165903   2.928   6.818   5.053 -0.3017  0.1193 -0.2533
14804TIP3    H265904   2.829   6.788   5.162 -1.0238  1.0798 -0.6261
14805TIP3   OH265905   5.165   2.629  11.967  0.1017 -0.2597  0.0801
14805TIP3    H165906   5.235   2.620  12.031 -0.1857 -3.5000  0.1036
14805TIP3    H265907   5.205   2.601  11.884 -0.1919  1.5362 -0.7134
14806TIP3   OH265908   0.062   1.682  11.013 -0.6728  0.2945  0.0997
14806TIP3    H165909   0.074   1.592  11.044  2.0480  0.5301 -0.0922
14806TIP3    H265910   0.033   1.672  10.922 -1.4864 -0.3486  0.4076
14807TIP3   OH265911   6.076   5.587  16.816  0.1611 -0.1019  0.1265
14807TIP3    H165912   6.106   5.633  16.894 -1.9973  2.3615 -0.3433
14807TIP3    H265913   6.038   5.656  16.761  1.3699 -1.7525 -3.0201
14808TIP3   OH265914   6.536   5.697   0.547 -0.0113 -0.6856  0.0626
14808TIP3    H165915   6.577   5.679   0.462 -0.1306 -2.8489  0.4088
14808TIP3    H265916   6.444   5.677   0.533 -0.3977  0.8846  0.2000
14809TIP3   OH265917   5.198   2.015  16.502 -0.0376  0.2546  0.5664
14809TIP3    H165918   5.249   2.068  16.440  0.0413 -0.4556  0.0168
14809TIP3    H265919   5.259   1.949  16.533 -0.6063 -0.5960 -0.0883
14810TIP3   OH265920   0.252   0.013   1.179 -0.0648  0.0380  0.1881
14810TIP3    H165921   0.261  -0.027   1.266  1.8277  1.0556  0.5285
14810TIP3    H265922   0.179   0.074   1.189  0.0217  0.0271  1.0143
14811TIP3   OH265923   4.550   1.965  17.064 -0.4962  0.0047 -0.0380
14811TIP3    H165924   4.486   1.906  17.025 -1.1732  1.1978 -0.8132
14811TIP3    H265925   4.523   1.972  17.156  0.3131 -1.7856  0.3741
14812TIP3   OH265926   0.983   3.724   1.916  0.3619  0.2373  0.3374
14812TIP3    H165927   0.985   3.811   1.955 -1.8027  0.5853 -0.2071
14812TIP3    H265928   1.055   3.723   1.853  0.4998  1.5620  0.4575
14813TIP3   OH265929   2.797   4.605  13.574  0.2010 -0.0670 -0.1364
14813TIP3    H165930   2.877   4.553  13.580 -0.0800 -0.3816  1.2770
14813TIP3    H265931   2.806   4.672  13.642 -0.4138  0.3544 -0.4610
14814TIP3   OH265932   4.646   2.559   5.991  0.1727 -0.1943  0.3929
14814TIP3    H165933   4.740   2.545   5.998  0.2380  0.8264  2.2147
14814TIP3    H265934   4.634   2.595   5.903  1.1717 -2.2202 -0.6470
14815TIP3   OH265935   2.938   0.931   3.096  0.0077  0.5051 -0.0913
14815TIP3    H165936   2.886   0.930   3.176  0.7044  0.5261  0.3749
14815TIP3    H265937   2.878   0.961   3.028 -0.9333 -0.6809  0.1797
14816TIP3   OH265938   1.906   2.959  14.793 -0.6010  0.7933 -0.0557
14816TIP3    H165939   1.877   3.049  14.803 -0.9070  0.6658  0.2098
14816TIP3    H265940   1.882   2.916  14.875 -0.5569  0.4427 -0.2228
14817TIP3   OH265941   3.410   4.370   5.121  0.4367 -0.0800  0.1476
14817TIP3    H165942   3.481   4.411   5.073  0.2684  0.8683  0.6708
14817TIP3    H265943   3.330   4.405   5.080  0.2896 -0.0384  0.4634
14818TIP3   OH265944   3.070   0.159   4.391  0.3331 -0.2896 -0.4542
14818TIP3    H165945   3.021   0.098   4.336 -0.2312  1.3491 -1.8426
14818TIP3    H265946   3.009   0.183   4.460 -0.1214  0.1284 -0.9855
14819TIP3   OH265947   0.766   0.044  11.218  0.1589  0.3379  0.4882
14819TIP3    H165948   0.830   0.031  11.149 -0.3791  0.3561 -0.0257
14819TIP3    H265949   0.699  -0.023  11.202 -1.2614  1.9278 -0.5488
14820TIP3   OH265950   1.204   0.149   2.613 -0.2948  0.0198 -0.1679
14820TIP3    H165951   1.237   0.107   2.692  1.0284  1.7214  0.2478
14820TIP3    H265952   1.266   0.123   2.544  0.7827  1.5305  0.1787
14821TIP3   OH265953   6.122   4.598   1.111  0.1278 -0.4355 -0.3004
14821TIP3    H165954   6.065   4.629   1.181 -0.1345 -2.6266  0.5304
14821TIP3    H265955   6.208   4.585   1.152  0.8181  1.1656 -1.1380
14822TIP3   OH265956   6.059   0.521   3.501  0.2360 -0.9781 -0.8962
14822TIP3    H165957   6.151   0.516   3.473  0.9850  1.4227  0.7901
14822TIP3    H265958   6.055   0.466   3.579  1.2083  1.4693  1.0133
14823TIP3   OH265959   0.130   5.479  14.347 -0.6095  0.1381 -0.1494
14823TIP3    H165960   0.094   5.391  14.360 -1.0718  0.5057  1.1238
14823TIP3    H265961   0.054   5.537  14.353 -0.6116  0.5368 -2.7565
14824TIP3   OH265962   4.528   5.630  14.584  0.7096  0.1086 -0.0932
14824TIP3    H165963   4.535   5.537  14.565  0.4817  0.1449 -0.3577
14824TIP3    H265964   4.458   5.636  14.649  1.8136 -0.0660  1.1521
14825TIP3   OH265965   4.099   0.344   5.942 -0.2469  0.0360 -0.1157
14825TIP3    H165966   4.067   0.280   5.878 -0.9457 -1.1707  1.3666
14825TIP3    H265967   4.194   0.341   5.934 -0.3000  2.1978 -3.1961
14826TIP3   OH265968   3.113   1.403   1.722  0.0051  0.3168 -0.2006
14826TIP3    H165969   3.204   1.383   1.743 -0.6564 -0.4726  2.2096
14826TIP3    H265970   3.118   1.479   1.664  2.2009 -0.4159 -1.0850
14827TIP3   OH265971   5.924   3.345   6.336 -0.4566  0.0358 -0.0810
14827TIP3    H165972   5.943   3.429   6.294  0.3394  0.8518  1.7672
14827TIP3    H265973   5.844   3.362   6.387 -0.7553 -0.5726 -0.3450
14828TIP3   OH265974   6.088   0.932   6.123 -0.2840 -0.1664  0.3054
14828TIP3    H165975   6.156   0.995   6.143 -0.5459  0.0135  0.6284
14828TIP3    H265976   6.135   0.856   6.088  0.0172  0.2597 -0.2283
14829TIP3   OH265977   3.690   6.256  12.160  0.3882  0.1265 -0.1917
14829TIP3    H165978   3.724   6.238  12.248  0.8654  0.9688 -0.1935
14829TIP3    H265979   3.600   6.222  12.162  0.1404  0.7952  0.8688
14830TIP3   OH265980   6.296   2.518  13.812  0.1478  0.0823  0.2574
14830TIP3    H165981   6.371   2.460  13.800 -0.8879 -1.4614  0.9640
14830TIP3    H265982   6.332   2.595  13.856  1.4679 -0.2529 -0.2045
14831TIP3   OH265983   3.942   4.784   6.488 -0.3925 -0.3809 -0.0191
14831TIP3    H165984   4.034   4.783   6.463 -0.0936 -0.9911  1.0501
14831TIP3    H265985   3.908   4.701   6.455  0.0122 -1.2061  1.5583
14832TIP3   OH265986   3.197   6.521   0.421  0.4311  0.3198 -0.1930
14832TIP3    H165987   3.163   6.608   0.440 -1.6494 -0.6476  0.7434
14832TIP3    H265988   3.227   6.488   0.505  0.9490 -0.0116 -0.4994
14833TIP3   OH265989   0.358   1.618  12.344 -0.1799  0.0266 -0.2027
14833TIP3    H165990   0.453   1.616  12.349 -0.1709  0.5565 -0.0353
14833TIP3    H265991   0.330   1.654  12.428 -0.5262 -0.0983 -0.2600
14834TIP3   OH265992   1.407   0.467  14.354  0.4965 -0.6260  0.4036
14834TIP3    H165993   1.485   0.510  14.320  0.3887 -1.1069 -0.4812
14834TIP3    H265994   1.335   0.524  14.329  0.3033 -1.5303 -1.2070
14835TIP3   OH265995   5.015   5.370   1.679 -0.3928 -0.6145  0.3820
14835TIP3    H165996   5.043   5.418   1.601  1.1874  0.0948  1.3439
14835TIP3    H265997   4.961   5.432   1.728 -1.1498 -0.9657  0.0072
14836TIP3   OH265998   0.246   0.042  13.249 -0.3571 -0.6538  0.1170
14836TIP3    H165999   0.309   0.074  13.312 -0.0533 -2.0380  0.5610
14836TIP3    H266000   0.162   0.079  13.277 -0.7289 -3.2620  3.0020
14837TIP3   OH266001   2.979   1.461  16.363 -0.4963  0.2172 -0.6817
14837TIP3    H166002   2.940   1.509  16.436 -1.6985 -1.4534 -0.1762
14837TIP3    H266003   2.919   1.389  16.346  0.1754  0.0908 -2.8162
14838TIP3   OH266004   4.539   4.566  17.045  0.5213  0.5257 -0.2853
14838TIP3    H166005   4.567   4.612  16.966  0.4182  0.5901 -0.2846
14838TIP3    H266006   4.497   4.486  17.013  1.0585  0.2323 -0.2762
14839TIP3   OH266007   2.703   6.171  16.746 -0.3650 -0.6595 -0.0973
14839TIP3    H166008   2.622   6.168  16.797  0.0806  1.1470  0.8050
14839TIP3    H266009   2.684   6.232  16.675 -0.5657 -2.1612 -1.3639
14840TIP3   OH266010   3.497   2.261  15.430  0.4679 -0.2483  0.0188
14840TIP3    H166011   3.403   2.277  15.420  0.5760  1.5531  1.3083
14840TIP3    H266012   3.518   2.299  15.515  2.2972 -1.0593 -0.0257
14841TIP3   OH266013   0.898   2.128   3.459 -0.2266 -0.9903 -0.3968
14841TIP3    H166014   0.861   2.158   3.542  3.6957 -0.4602  1.4131
14841TIP3    H266015   0.939   2.205   3.421  0.8788 -1.8821 -1.0949
14842TIP3   OH266016   3.656   0.585   1.422  0.7127  0.2768  0.1365
14842TIP3    H166017   3.566   0.558   1.438  0.7475  1.5397  2.8718
14842TIP3    H266018   3.709   0.513   1.457  0.9791 -1.8011 -3.8628
14843TIP3   OH266019   6.103   3.889   1.480 -0.4399 -0.3606 -0.3893
14843TIP3    H166020   6.024   3.874   1.429 -0.5206 -1.1840 -0.0438
14843TIP3    H266021   6.168   3.831   1.441  0.8031  2.1452 -2.3485
14844TIP3   OH266022   3.796   3.016  10.817 -0.1379 -0.3242  0.1350
14844TIP3    H166023   3.850   2.995  10.742 -1.5325  0.5076 -1.1697
14844TIP3    H266024   3.800   3.112  10.824 -0.7320 -0.3190  0.5409
14845TIP3   OH266025   5.050   3.326   0.263 -0.1880  0.5232 -0.3021
14845TIP3    H166026   5.029   3.295   0.350 -2.3409 -1.5643 -1.4480
14845TIP3    H266027   5.064   3.420   0.273  1.3874  0.0687  2.5155
14846TIP3   OH266028   5.078   3.645   4.130  0.2303 -0.2634 -0.1845
14846TIP3    H166029   5.152   3.683   4.082  1.1731 -0.4964  1.0307
14846TIP3    H266030   5.119   3.584   4.192 -1.1003 -1.7366 -0.6919
14847TIP3   OH266031   0.856   1.939  16.032  0.5026 -0.0129  0.7199
14847TIP3    H166032   0.850   1.934  16.128  0.1819  2.3745  0.8657
14847TIP3    H266033   0.947   1.966  16.016  0.6198 -0.6232  0.3049
14848TIP3   OH266034   4.851   2.618  11.404  0.2583 -0.4603 -0.3119
14848TIP3    H166035   4.837   2.647  11.314  0.0570  0.8565  0.1210
14848TIP3    H266036   4.792   2.543  11.415  0.2229 -0.5760 -1.2434
14849TIP3   OH266037   5.793   6.088   2.323 -0.1082  0.4351 -0.3946
14849TIP3    H166038   5.886   6.078   2.343 -0.2651 -0.6236 -0.1060
14849TIP3    H266039   5.782   6.046   2.237 -0.2760  0.7558 -0.5312
14850TIP3   OH266040   4.984   3.496  11.948 -0.6297 -0.1817 -0.1975
14850TIP3    H166041   4.902   3.491  11.901 -1.0700 -0.0329  0.5406
14850TIP3    H266042   5.041   3.433  11.903 -0.6795  0.7354 -1.5815
14851TIP3   OH266043   1.286   2.821  12.590  0.0337 -0.1781  0.4262
14851TIP3    H166044   1.285   2.888  12.657  0.2927 -0.7597  1.0262
14851TIP3    H266045   1.318   2.866  12.512 -0.5392  0.5675  0.6118
14852TIP3   OH266046   1.427   6.669   2.307 -0.3647 -0.2007 -0.4675
14852TIP3    H166047   1.398   6.591   2.355  0.0746 -0.1152 -0.0459
14852TIP3    H266048   1.390   6.659   2.220 -0.8054 -0.5879 -0.2419
14853TIP3   OH266049   4.230   3.923   2.571 -0.7164  0.1369 -0.2285
14853TIP3    H166050   4.294   3.936   2.501 -1.6332  2.6263 -0.7143
14853TIP3    H266051   4.282   3.902   2.648  0.7849  2.1998 -0.5829
14854TIP3   OH266052   5.681   5.747  15.537 -0.2448  0.2802 -0.1631
14854TIP3    H166053   5.597   5.792  15.542  0.7081  2.0533  0.9842
14854TIP3    H266054   5.664   5.659  15.572 -1.3669  1.0312  1.2513
14855TIP3   OH266055   4.378   6.104  10.332  0.3879 -0.5795  0.2773
14855TIP3    H166056   4.334   6.171  10.281 -0.6530  0.4448  2.4073
14855TIP3    H266057   4.460   6.145  10.360 -0.3297 -0.0844  1.7300
14856TIP3   OH266058   1.190   3.293  14.839  0.6869  0.4323  0.1257
14856TIP3    H166059   1.112   3.347  14.844  0.5779  0.5480 -1.8432
14856TIP3    H266060   1.194   3.247  14.923 -1.5213  0.3781  0.2439
14857TIP3   OH266061   6.728   3.916   4.032 -0.5825 -0.1212 -0.1931
14857TIP3    H166062   6.813   3.875   4.049 -0.0880  0.6170 -0.8123
14857TIP3    H266063   6.694   3.937   4.119 -0.0926 -0.3501  0.0605
14858TIP3   OH266064   1.200   0.306   4.445 -0.4527 -0.2018 -0.3839
14858TIP3    H166065   1.220   0.243   4.376 -3.0215 -1.2444 -0.2853
14858TIP3    H266066   1.125   0.355   4.412  0.3252  1.5860  0.3405
14859TIP3   OH266067   0.016   3.841  11.661 -0.0642  0.0807  0.5939
14859TIP3    H166068   0.105   3.875  11.671  0.8418 -1.7361 -0.7109
14859TIP3    H266069   0.001   3.790  11.740  0.1000  0.2997  0.7675
14860TIP3   OH266070   5.179   5.070  11.759  0.7431  0.8815  0.4770
14860TIP3    H166071   5.204   5.049  11.668 -1.6132 -0.2697  0.0375
14860TIP3    H266072   5.231   5.010  11.812  0.5683  0.0684 -0.2483
14861TIP3   OH266073   4.997   5.944  10.730  0.3081 -0.1795 -0.2265
14861TIP3    H166074   5.072   5.978  10.681 -0.9192  1.1441 -1.2539
14861TIP3    H266075   4.921   5.982  10.687 -1.0963 -2.8853 -0.3545
14862TIP3   OH266076   4.588   1.860  11.912 -0.1424 -0.0044 -0.1155
14862TIP3    H166077   4.605   1.903  11.828 -0.6493 -0.2994 -0.3691
14862TIP3    H266078   4.604   1.928  11.977 -0.7775  0.5289 -0.5062
14863TIP3   OH266079   2.575   3.105   0.328  0.8380  0.2371 -0.1610
14863TIP3    H166080   2.493   3.151   0.349  0.6268 -0.6346  0.9948
14863TIP3    H266081   2.552   3.049   0.253  0.4997  0.3327 -0.1301
14864TIP3   OH266082   4.309   2.460  10.952  0.1997 -0.0799 -0.2442
14864TIP3    H166083   4.244   2.517  10.910  1.1681  0.3823 -1.1546
14864TIP3    H266084   4.266   2.374  10.956 -0.4533  0.2040 -0.8810
14865TIP3   OH266085   1.869   2.307   1.214 -0.3167  0.2842  0.1707
14865TIP3    H166086   1.929   2.366   1.260 -0.6543  0.2926  0.6104
14865TIP3    H266087   1.855   2.235   1.277  1.4733 -1.1787 -1.0004
14866TIP3   OH266088   5.962   4.882   0.897  0.3762  0.1176 -0.2664
14866TIP3    H166089   5.908   4.926   0.962  1.1328  1.8410 -0.7313
14866TIP3    H266090   6.036   4.847   0.947 -0.2650 -0.6954  0.1222
14867TIP3   OH266091   1.034   1.739  15.656  0.0672  0.5552 -0.0179
14867TIP3    H166092   1.000   1.771  15.573 -0.9829  0.5516  0.4017
14867TIP3    H266093   0.963   1.753  15.719  0.8922  0.6807  0.9098
14868TIP3   OH266094   6.322   2.325  14.618 -0.4696 -0.2817 -0.0132
14868TIP3    H166095   6.385   2.394  14.639  1.1685 -1.7269 -0.0084
14868TIP3    H266096   6.270   2.314  14.698 -0.4908  0.6629  0.1079
14869TIP3   OH266097   0.652   5.405  12.470 -0.0088  0.0022  0.8126
14869TIP3    H166098   0.651   5.484  12.416  1.7618 -1.6031 -1.7673
14869TIP3    H266099   0.719   5.423  12.537 -0.1147  0.9116  0.6906
14870TIP3   OH266100   1.805   5.044  13.660  0.3399 -0.0508  0.1024
14870TIP3    H166101   1.763   4.999  13.587 -0.2660 -0.0861  0.4727
14870TIP3    H266102   1.800   5.137  13.636 -0.1045 -0.0427  0.2312
14871TIP3   OH266103   1.563   2.457  14.231 -0.1138  0.7044  0.1663
14871TIP3    H166104   1.623   2.406  14.286 -0.1880  2.0972  1.6054
14871TIP3    H266105   1.476   2.441  14.268 -0.3042  0.7939 -0.2355
14872TIP3   OH266106   6.815   0.653   3.343  0.7522 -0.0204 -0.2818
14872TIP3    H166107   6.800   0.708   3.266 -0.6681 -2.2045 -1.6840
14872TIP3    H266108   6.746   0.678   3.405 -0.9670 -1.2895 -1.5919
14873TIP3   OH266109   3.597   4.702   0.799 -0.9268  0.8942 -0.3858
14873TIP3    H166110   3.558   4.668   0.879 -2.2406  0.4024 -1.2100
14873TIP3    H266111   3.618   4.793   0.819 -1.4244  0.8331  0.4468
14874TIP3   OH266112   0.940   3.326  15.302  0.3327 -0.0588  0.1234
14874TIP3    H166113   1.020   3.311  15.251  0.9957 -0.2878  1.2093
14874TIP3    H266114   0.907   3.238  15.321 -0.5767  0.0356 -0.8968
14875TIP3   OH266115   6.334   1.378   0.786 -0.1145 -0.2626 -0.4247
14875TIP3    H166116   6.319   1.424   0.704  0.5882  0.0370 -0.3902
14875TIP3    H266117   6.250   1.383   0.832 -0.4848 -0.3526 -1.0761
14876TIP3   OH266118   3.217   3.695   3.268 -0.5534  0.0594 -0.1585
14876TIP3    H166119   3.240   3.606   3.295  2.7952  0.1868 -2.0102
14876TIP3    H266120   3.174   3.684   3.183 -0.3061  0.1963 -0.3024
14877TIP3   OH266121   6.782   0.421  16.636  0.1065 -0.1334 -0.4983
14877TIP3    H166122   6.800   0.366  16.712 -0.6715 -0.3181 -0.4328
14877TIP3    H266123   6.867   0.434  16.594  0.7281  0.8956  1.0133
14878TIP3   OH266124   4.384   0.867   1.050  0.7304  0.0821  0.2870
14878TIP3    H166125   4.394   0.911   1.135  0.4330 -0.0091  0.3737
14878TIP3    H266126   4.355   0.779   1.073 -0.1940  0.3178  0.0703
14879TIP3   OH266127   0.570   1.846  14.099 -0.1576 -0.3210  0.1508
14879TIP3    H166128   0.604   1.758  14.115 -0.6339 -0.3286  1.1717
14879TIP3    H266129   0.589   1.862  14.006  1.5394 -0.7942  0.3741
14880TIP3   OH266130   0.261   0.287  15.223  0.3997 -0.1741  0.2779
14880TIP3    H166131   0.198   0.308  15.291 -0.0096  0.4920 -0.2947
14880TIP3    H266132   0.225   0.327  15.143  1.0690 -0.5868 -0.2467
14881TIP3   OH266133   2.291   2.762  13.357  0.4530 -0.7621 -0.3115
14881TIP3    H166134   2.301   2.794  13.267 -1.9482  3.0931  0.5486
14881TIP3    H266135   2.203   2.724  13.358  0.1163  0.0139  0.5639
14882TIP3   OH266136   6.047   2.863  11.213  0.3508  0.4537  0.0763
14882TIP3    H166137   6.004   2.867  11.298 -0.4402 -2.6098 -0.0600
14882TIP3    H266138   6.058   2.954  11.187 -2.3159  1.4477  2.0136
14883TIP3   OH266139   3.364   2.099   3.444 -0.0254 -0.3627  0.1861
14883TIP3    H166140   3.276   2.137   3.449  0.1615  0.0541  0.3287
14883TIP3    H266141   3.359   2.039   3.370  0.2852  1.6110 -1.5312
14884TIP3   OH266142   5.984   3.999   5.799  0.0855 -0.1816 -0.1127
14884TIP3    H166143   6.020   4.026   5.714  0.1397 -0.0203 -0.0387
14884TIP3    H266144   6.038   3.925   5.826 -1.4478 -1.8830 -1.3826
14885TIP3   OH266145   5.218   0.840  14.358 -0.3837  0.1894 -0.1033
14885TIP3    H166146   5.302   0.810  14.392 -0.5252 -1.7061 -1.2576
14885TIP3    H266147   5.153   0.787  14.404 -0.6200 -1.7818 -2.4601
14886TIP3   OH266148   1.472   4.268   4.967  0.3457  0.0541  0.3558
14886TIP3    H166149   1.408   4.321   5.015 -0.6656 -1.6580  1.0122
14886TIP3    H266150   1.548   4.325   4.955 -0.4769  1.4359  1.5017
14887TIP3   OH266151   6.518   1.770   1.973 -0.2546  0.5463  0.1572
14887TIP3    H166152   6.522   1.726   1.888  0.6955 -0.1894  0.5727
14887TIP3    H266153   6.541   1.861   1.954  1.0300  0.1533 -0.2172
14888TIP3   OH266154   3.433   2.491  12.884 -0.0486 -0.4724 -0.6873
14888TIP3    H166155   3.448   2.504  12.790  0.3026 -2.7727 -1.0082
14888TIP3    H266156   3.508   2.438  12.913 -0.3929 -0.1811  0.7964
14889TIP3   OH266157   3.009   4.792  14.652  0.5109 -0.4572  0.0200
14889TIP3    H166158   3.019   4.702  14.683  1.3199 -0.4433 -0.1737
14889TIP3    H266159   3.097   4.829  14.658  0.4371 -0.0772 -1.1275
14890TIP3   OH266160   3.575   4.018   0.006  0.4683 -0.4714 -0.2120
14890TIP3    H166161   3.591   4.112   0.007 -1.6436 -0.0733 -0.6472
14890TIP3    H266162   3.491   4.008  -0.039 -1.0959 -2.2863  2.8052
14891TIP3   OH266163   1.119   6.369  15.644 -0.6967  0.4556  0.3501
14891TIP3    H166164   1.191   6.337  15.589 -0.2882  0.7888  0.6876
14891TIP3    H266165   1.119   6.463  15.631 -1.4340  0.4068 -0.0731
14892TIP3   OH266166   4.020   0.804   3.436  0.1138 -0.0803 -0.2432
14892TIP3    H166167   4.002   0.751   3.359  2.0356 -1.5913  0.2702
14892TIP3    H266168   4.102   0.769   3.471 -1.4942 -0.5870  3.4557
14893TIP3   OH266169   2.931   4.916  12.800  0.5683 -0.0626  0.3396
14893TIP3    H166170   3.010   4.958  12.765 -0.3150  1.6207  0.2469
14893TIP3    H266171   2.925   4.948  12.890 -1.5442  2.2822 -0.5165
14894TIP3   OH266172   4.990   4.905  15.680 -0.3429 -0.4213  0.3022
14894TIP3    H166173   5.067   4.952  15.648 -2.4650  1.3471 -2.6832
14894TIP3    H266174   4.922   4.971  15.686 -1.6688 -1.8584  3.1278
14895TIP3   OH266175   3.111   5.372  15.700 -0.2202 -0.0629 -0.5137
14895TIP3    H166176   3.158   5.454  15.686  0.9038 -0.5080  0.5337
14895TIP3    H266177   3.113   5.358  15.795 -3.2128  0.3120 -0.3025
14896TIP3   OH266178   1.029   3.848  11.838 -0.2627  0.0088  0.7770
14896TIP3    H166179   1.073   3.768  11.866 -0.0823  0.1327  0.8415
14896TIP3    H266180   1.098   3.914  11.833 -0.0161 -0.3361 -1.2813
14897TIP3   OH266181   6.235   1.761   0.802 -0.0092  0.0006 -0.1288
14897TIP3    H166182   6.267   1.738   0.715 -0.6284 -0.3360 -0.2694
14897TIP3    H266183   6.240   1.679   0.852 -2.1048 -0.4781 -0.5991
14898TIP3   OH266184   3.145   3.836  16.504  0.5845 -0.6146 -0.1923
14898TIP3    H166185   3.098   3.798  16.578 -0.1439  0.0467 -0.3076
14898TIP3    H266186   3.202   3.765  16.473  0.5284 -1.0525  0.6774
14899TIP3   OH266187   1.949   2.416   2.971 -0.3208  0.3993 -0.8208
14899TIP3    H166188   1.892   2.492   2.955  0.3100  0.6994 -1.7266
14899TIP3    H266189   1.891   2.341   2.964 -1.0945  0.8129  0.7601
14900TIP3   OH266190   1.378   2.981  13.638 -0.2085 -0.2769 -0.0773
14900TIP3    H166191   1.445   2.924  13.600 -0.7121 -0.5649 -0.5665
14900TIP3    H266192   1.424   3.061  13.662  0.1814 -0.1970 -1.0563
14901TIP3   OH266193   4.178   1.141  12.604 -0.1572  0.3134  0.4511
14901TIP3    H166194   4.196   1.094  12.522  1.1278 -2.8910  2.3664
14901TIP3    H266195   4.249   1.114  12.662 -1.7892  1.3151  3.0592
14902TIP3   OH266196   2.588   0.417   2.438 -0.0480  0.2188  0.2668
14902TIP3    H166197   2.549   0.330   2.441  0.7037 -0.1039  1.1185
14902TIP3    H266198   2.670   0.409   2.487  0.2366  1.3035  0.0080
14903TIP3   OH266199   3.103   4.104  14.146 -0.0759  0.4353  0.0777
14903TIP3    H166200   3.084   4.017  14.109  0.4788  0.7548 -1.0091
14903TIP3    H266201   3.153   4.085  14.225 -0.4532 -0.2517  0.1652
14904TIP3   OH266202   5.371   4.052  11.725  0.5675 -0.0478 -0.4441
14904TIP3    H166203   5.377   4.086  11.815  2.2689 -1.2309 -0.0680
14904TIP3    H266204   5.280   4.071  11.699  0.3273  1.2414  1.1305
14905TIP3   OH266205   0.369   4.820  16.351  0.1758  0.4662 -0.1763
14905TIP3    H166206   0.387   4.758  16.280  1.4298  0.9674 -0.3340
14905TIP3    H266207   0.301   4.877  16.317 -0.6270 -0.5003 -0.2217
14906TIP3   OH266208   5.062   0.446   1.643 -0.0703  0.6066 -0.0716
14906TIP3    H166209   5.060   0.535   1.608  0.2433 -0.0306 -1.8415
14906TIP3    H266210   5.148   0.438   1.684  0.5459  0.6783 -1.2814
14907TIP3   OH266211   4.366   5.305  12.483  0.0733 -0.1627  0.3088
14907TIP3    H166212   4.380   5.275  12.393 -0.4726 -0.6764  0.3886
14907TIP3    H266213   4.389   5.398  12.481  1.0216 -0.3894 -0.1291
14908TIP3   OH266214   3.795   6.667   3.977 -0.5620 -1.0672  0.4442
14908TIP3    H166215   3.880   6.711   3.986 -0.7953  0.0644 -2.1497
14908TIP3    H266216   3.740   6.708   4.043 -0.4509  1.8706 -1.1154
14909TIP3   OH266217   5.130   2.219  15.685 -0.3829  0.1562 -0.0729
14909TIP3    H166218   5.092   2.132  15.676  2.1997 -1.1667  0.9667
14909TIP3    H266219   5.164   2.240  15.597  1.5243 -1.2151  0.2728
14910TIP3   OH266220   0.296   2.391   2.553 -1.0967 -0.6906 -0.5385
14910TIP3    H166221   0.209   2.375   2.590 -0.8035 -1.4974 -0.1548
14910TIP3    H266222   0.282   2.392   2.458 -1.8000  1.0429 -0.4500
14911TIP3   OH266223   6.331   1.589   1.406  0.6629 -0.1342  0.5613
14911TIP3    H166224   6.376   1.512   1.371  0.0732 -0.7518  1.1486
14911TIP3    H266225   6.391   1.662   1.388  0.9825 -0.6358 -0.4929
14912TIP3   OH266226   1.169   6.354   3.420 -0.3291 -0.4552  0.4952
14912TIP3    H166227   1.203   6.426   3.473 -1.5553  0.6822 -0.2113
14912TIP3    H266228   1.140   6.395   3.339 -1.8735 -1.6025  0.4319
14913TIP3   OH266229   6.246   0.056   1.788  0.5132  0.2197  0.5277
14913TIP3    H166230   6.152   0.064   1.801  0.5452 -0.1411  1.0248
14913TIP3    H266231   6.271   0.135   1.740 -0.4547 -0.8988 -2.0070
14914TIP3   OH266232   3.589   1.297   0.294  0.3386  0.1102 -0.1552
14914TIP3    H166233   3.645   1.220   0.293 -0.2477 -0.3692 -2.1240
14914TIP3    H266234   3.646   1.368   0.325  1.2233 -0.8646  0.5327
14915TIP3   OH266235   5.838   0.510   4.098 -0.4851 -0.2805  0.5976
14915TIP3    H166236   5.767   0.453   4.068 -1.0528  1.4410 -1.5166
14915TIP3    H266237   5.886   0.533   4.019  2.3129 -1.1109  1.9208
14916TIP3   OH266238   6.856   1.809  14.082 -0.0386 -0.1147  0.1282
14916TIP3    H166239   6.907   1.871  14.029 -2.8005  0.4729 -2.0733
14916TIP3    H266240   6.863   1.726  14.034  0.6105 -0.6099  1.0434
14917TIP3   OH266241   5.867   5.048  12.953 -0.0931  0.0444 -0.0453
14917TIP3    H166242   5.800   5.109  12.922 -0.0287 -0.0846 -0.4368
14917TIP3    H266243   5.834   4.961  12.929 -0.7777 -0.1904  1.5867
14918TIP3   OH266244   2.668   1.432  17.083  0.0359  0.2938 -0.0432
14918TIP3    H166245   2.761   1.446  17.104  0.0011  0.2922  0.1144
14918TIP3    H266246   2.628   1.518  17.093 -0.3637 -0.0704  1.8826
14919TIP3   OH266247   3.514   1.208  13.066 -0.4621  0.0344 -0.1240
14919TIP3    H166248   3.479   1.222  13.154 -1.1433  0.8270 -0.5074
14919TIP3    H266249   3.520   1.295  13.028 -1.1941 -0.3752 -1.2367
14920TIP3   OH266250   1.366   2.133   4.663 -0.6929  0.0151 -0.0345
14920TIP3    H166251   1.379   2.089   4.578  2.4629  0.2182  0.2136
14920TIP3    H266252   1.396   2.069   4.727  2.9950  1.8978  0.4009
14921TIP3   OH266253   6.132   1.867  15.786  0.8871 -0.6227  0.5381
14921TIP3    H166254   6.224   1.867  15.812  1.1968  0.8144 -0.4010
14921TIP3    H266255   6.126   1.939  15.722 -0.9634 -0.4356  0.8787
14922TIP3   OH266256   3.820   5.940  15.922  0.6470 -0.0825  0.0144
14922TIP3    H166257   3.885   5.872  15.939 -0.0258 -0.6716  0.3265
14922TIP3    H266258   3.748   5.893  15.879  0.6672  0.6579 -0.8513
14923TIP3   OH266259   3.142   6.485   5.782 -0.3307  0.2247 -0.1626
14923TIP3    H166260   3.077   6.483   5.853  0.1102 -0.7133  0.2374
14923TIP3    H266261   3.092   6.509   5.704 -0.6527  2.3107  0.6194
14924TIP3   OH266262   5.835   0.752  14.053  0.5396  0.1546 -0.8243
14924TIP3    H166263   5.925   0.766  14.024  1.0285  0.0257  0.5495
14924TIP3    H266264   5.819   0.822  14.116  0.0024 -0.3443 -0.3986
14925TIP3   OH266265   2.412   6.451   1.547  0.0220 -0.0961 -0.0228
14925TIP3    H166266   2.331   6.416   1.585  0.1724  0.2684  0.6498
14925TIP3    H266267   2.417   6.411   1.460  0.5511 -2.2913  0.9500
14926TIP3   OH266268   2.331   5.679   4.869  0.2330 -0.6912 -0.6637
14926TIP3    H166269   2.245   5.722   4.869  0.6450  0.1608 -0.0488
14926TIP3    H266270   2.394   5.751   4.865  1.0131 -1.0371  2.5377
14927TIP3   OH266271   5.556   0.352   3.351 -0.6309  0.0551  0.4046
14927TIP3    H166272   5.505   0.328   3.274  1.3879 -0.6434 -0.7840
14927TIP3    H266273   5.623   0.284   3.358  0.1919  0.9542  1.8573
14928TIP3   OH266274   5.013   2.867  12.212  0.5740 -0.5847 -0.2373
14928TIP3    H166275   5.079   2.923  12.252  0.0577  0.0495 -0.2446
14928TIP3    H266276   5.003   2.794  12.273  1.2913 -0.7006 -0.2485
14929TIP3   OH266277   2.431   6.431  10.817  0.0767 -0.5987  0.1626
14929TIP3    H166278   2.462   6.414  10.728 -1.0874  0.2316 -0.4323
14929TIP3    H266279   2.462   6.356  10.868 -1.2782 -2.3660 -1.4394
14930TIP3   OH266280   4.070   2.705   3.839 -0.7719  0.0941  0.0827
14930TIP3    H166281   4.081   2.788   3.885 -0.9902 -0.8596  1.9815
14930TIP3    H266282   4.143   2.650   3.871 -1.1546 -0.7404 -0.4280
14931TIP3   OH266283   0.428   0.945   0.760  0.3167 -0.5731  0.1795
14931TIP3    H166284   0.444   0.976   0.849  0.0106  0.6397 -0.1650
14931TIP3    H266285   0.369   0.871   0.771 -0.5987  0.2304  0.9404
14932TIP3   OH266286   0.897   3.603   1.133  0.0900 -0.2053  0.0079
14932TIP3    H166287   0.972   3.662   1.128  0.2232 -0.1244  2.0609
14932TIP3    H266288   0.930   3.519   1.104  0.9017 -0.0901  0.5778
14933TIP3   OH266289   5.947   6.473   1.441  0.2698 -0.5278  0.0300
14933TIP3    H166290   5.911   6.488   1.529  3.0796  1.8512  0.9327
14933TIP3    H266291   5.946   6.560   1.400  3.9288 -0.4403 -0.1687
14934TIP3   OH266292   4.913   1.483  12.203 -0.5497  0.5492  0.0805
14934TIP3    H166293   4.855   1.408  12.215  0.2762 -0.0278  0.5781
14934TIP3    H266294   4.970   1.458  12.130 -0.4922  0.8283  0.0288
14935TIP3   OH266295   1.199   2.392   5.283 -0.0821 -0.8738  0.2418
14935TIP3    H166296   1.175   2.323   5.221 -1.4028 -1.4502  1.3467
14935TIP3    H266297   1.123   2.400   5.340  0.8821  0.0362  1.4478
14936TIP3   OH266298   1.067   6.320  12.967 -0.0874 -0.4136 -0.2708
14936TIP3    H166299   0.972   6.320  12.953  0.0800 -1.8855 -1.7610
14936TIP3    H266300   1.094   6.411  12.949 -1.4367  0.6301  2.4616
14937TIP3   OH266301   2.811   6.752   0.731 -0.1315  0.0839  0.0978
14937TIP3    H166302   2.745   6.724   0.795 -0.9693  0.3574 -0.6353
14937TIP3    H266303   2.873   6.679   0.728  0.5287  0.5019  2.0011
14938TIP3   OH266304   1.182   6.355  10.333 -0.0738 -0.5134  0.2236
14938TIP3    H166305   1.144   6.403  10.406  0.2336 -2.0274  1.4383
14938TIP3    H266306   1.208   6.422  10.271 -0.1450  0.8420  1.6063
14939TIP3   OH266307   4.695   1.819  11.626  0.5379  0.1571 -0.3223
14939TIP3    H166308   4.682   1.806  11.532 -0.0672  1.4884 -0.4423
14939TIP3    H266309   4.682   1.913  11.640  0.2031 -0.0804  1.1544
14940TIP3   OH266310   5.014   3.357   2.866 -0.2307 -0.2092 -0.2631
14940TIP3    H166311   4.946   3.290   2.854  0.1798 -1.4026  2.9085
14940TIP3    H266312   4.967   3.434   2.897 -0.5074  0.4705 -2.2218
14941TIP3   OH266313   4.253   1.057  12.338  0.4366  0.7991 -0.0801
14941TIP3    H166314   4.245   1.017  12.251  1.7634  0.5359 -0.1016
14941TIP3    H266315   4.344   1.086  12.342  0.8080 -0.4550  1.7402
14942TIP3   OH266316   0.821   3.316  14.389  0.0152  0.4397  0.0397
14942TIP3    H166317   0.879   3.313  14.313 -1.1746  2.1129 -1.0090
14942TIP3    H266318   0.880   3.322  14.464  1.2023  0.3880 -0.8601
14943TIP3   OH266319   2.080   3.712   0.852  0.2023 -0.4164 -0.0684
14943TIP3    H166320   2.108   3.656   0.924 -0.2505 -0.5570  0.0030
14943TIP3    H266321   2.072   3.653   0.777 -0.7632 -0.5567  0.1264
14944TIP3   OH266322   1.642   6.701  13.414  0.1915  0.1200 -0.5455
14944TIP3    H166323   1.617   6.730  13.326  0.5607 -1.5968 -1.2578
14944TIP3    H266324   1.566   6.722  13.469  0.9077  3.5688 -0.6627
14945TIP3   OH266325   5.760   4.611  15.626  0.1153  0.2566  0.7224
14945TIP3    H166326   5.679   4.635  15.671 -0.7112 -2.2876  0.7128
14945TIP3    H266327   5.812   4.566  15.692  1.6505  1.9596  0.7610
14946TIP3   OH266328   0.449   5.612  11.767 -0.2578  1.1155  0.2608
14946TIP3    H166329   0.456   5.674  11.694 -0.7776  0.0469 -0.7217
14946TIP3    H266330   0.539   5.601  11.798  0.6149 -1.2285 -2.6622
14947TIP3   OH266331   3.831   0.214  15.873 -0.3357  0.6472  0.2178
14947TIP3    H166332   3.854   0.304  15.848  0.8382  0.1872 -0.4588
14947TIP3    H266333   3.912   0.178  15.907 -0.2249 -0.7783 -1.4169
14948TIP3   OH266334   1.415   2.471  11.352 -0.2128  0.2966  0.6720
14948TIP3    H166335   1.453   2.554  11.382  0.7733  0.2122 -0.2948
14948TIP3    H266336   1.449   2.406  11.413  0.4644  0.3554  0.3620
14949TIP3   OH266337   5.704   3.139   3.765 -0.3156  0.2991  0.0561
14949TIP3    H166338   5.657   3.056   3.760 -0.3302  0.3693 -1.3707
14949TIP3    H266339   5.693   3.178   3.679 -2.9039  3.2593  1.5489
14950TIP3   OH266340   4.048   2.677   5.117 -0.1508 -0.1870  0.5111
14950TIP3    H166341   4.044   2.586   5.147 -0.7718  0.3524  2.1662
14950TIP3    H266342   4.009   2.728   5.188 -1.1165  1.2550 -0.9794
14951TIP3   OH266343   0.168   3.884   5.414 -0.2861 -0.2806 -1.1945
14951TIP3    H166344   0.176   3.973   5.382 -1.1912 -0.3990 -1.7850
14951TIP3    H266345   0.133   3.835   5.340  0.4367 -1.1850 -0.9589
14952TIP3   OH266346   4.460   4.907  13.013  0.1963 -0.0219 -0.0697
14952TIP3    H166347   4.525   4.850  13.055  0.2284  0.1950  0.1797
14952TIP3    H266348   4.511   4.960  12.952  0.0902 -0.6252 -0.6967
14953TIP3   OH266349   5.828   0.428   4.556 -0.4269 -0.3080  0.1508
14953TIP3    H166350   5.907   0.373   4.550  0.5171  0.7336  2.0217
14953TIP3    H266351   5.849   0.504   4.502 -0.1316 -0.0453  0.6229
14954TIP3   OH266352   3.192   6.672   5.275 -0.3304 -0.2708 -0.0660
14954TIP3    H166353   3.268   6.671   5.218 -1.0805  1.7626 -1.2136
14954TIP3    H266354   3.165   6.764   5.278  0.7143  0.1903  5.0582
14955TIP3   OH266355   0.584   3.457  13.549 -0.2559  0.1905 -0.3500
14955TIP3    H166356   0.614   3.496  13.631 -0.0251  0.7130 -0.6744
14955TIP3    H266357   0.500   3.501  13.531 -1.1726 -1.1524  0.4724
14956TIP3   OH266358   2.781   5.118   1.642 -0.6655  0.1053  0.0135
14956TIP3    H166359   2.871   5.084   1.639 -0.8655 -0.4722  0.3137
14956TIP3    H266360   2.727   5.039   1.647 -1.3708  0.3008 -3.0744
14957TIP3   OH266361   4.321   6.849   5.438 -0.0484  0.1651  0.0028
14957TIP3    H166362   4.347   6.825   5.349  0.8392  0.1327  0.2671
14957TIP3    H266363   4.275   6.772   5.471  1.0635 -0.4591  0.1480
14958TIP3   OH266364   1.451   4.148   0.617  0.3816  0.2075  0.3936
14958TIP3    H166365   1.415   4.093   0.547  0.1966  1.4401 -0.5163
14958TIP3    H266366   1.542   4.120   0.625 -0.0668 -1.1869  0.9462
14959TIP3   OH266367   3.278   2.065   0.101  0.7408  0.4025  0.3915
14959TIP3    H166368   3.341   1.994   0.084  0.2823  0.0920 -0.0559
14959TIP3    H266369   3.199   2.020   0.132 -0.5102  0.4167 -2.4530
14960TIP3   OH266370   3.408   5.839   1.706 -0.6759 -0.1941 -0.0563
14960TIP3    H166371   3.459   5.758   1.695  0.9420  0.6278  0.8936
14960TIP3    H266372   3.449   5.900   1.645 -1.1343  0.2295  0.0630
14961TIP3   OH266373   3.968   4.841  14.445  0.1222 -0.4182  0.1044
14961TIP3    H166374   3.896   4.807  14.498  0.6105  0.2535  1.2231
14961TIP3    H266375   3.931   4.917  14.400 -0.0239 -0.4179  0.2233
14962TIP3   OH266376   2.167   3.677  16.949 -0.0105 -0.3168  0.2880
14962TIP3    H166377   2.218   3.678  17.029  2.7397 -1.4203 -1.3140
14962TIP3    H266378   2.198   3.753  16.899 -1.6275  0.3159  0.1908
14963TIP3   OH266379   6.670   6.146   0.145  0.2378  0.2117  0.0814
14963TIP3    H166380   6.665   6.121   0.237 -2.9280  1.3153  0.3152
14963TIP3    H266381   6.583   6.128   0.110  0.7236  1.7559 -2.1579
14964TIP3   OH266382   1.434   2.874   2.337 -0.0597 -0.6728 -0.5715
14964TIP3    H166383   1.400   2.811   2.402  0.8441 -2.3053 -1.6133
14964TIP3    H266384   1.523   2.891   2.366 -0.0378 -0.5008 -0.7466
14965TIP3   OH266385   5.529   0.449   1.357  0.0204  0.2767  0.0815
14965TIP3    H166386   5.596   0.406   1.304  1.2675  2.3569 -0.1305
14965TIP3    H266387   5.532   0.404   1.442 -0.6781 -1.8323 -0.9428
14966TIP3   OH266388   6.727   2.551  12.455 -0.2176 -0.4625  0.0750
14966TIP3    H166389   6.761   2.475  12.409  1.1148  1.1195 -1.7430
14966TIP3    H266390   6.798   2.616  12.449 -1.5073  1.1176  1.0418
14967TIP3   OH266391   1.955   5.471  16.140 -0.2730  0.1445 -0.0291
14967TIP3    H166392   1.877   5.426  16.106 -0.6804  0.5288  0.3855
14967TIP3    H266393   1.970   5.431  16.226  0.7896 -0.8668 -0.6511
14968TIP3   OH266394   0.856   1.169   3.197  1.0820 -0.2018 -0.5014
14968TIP3    H166395   0.836   1.085   3.157 -0.6756  0.6316 -1.4933
14968TIP3    H266396   0.935   1.199   3.152  0.9924 -0.7530 -1.0351
14969TIP3   OH266397   0.926   4.577  14.331  0.2715 -0.3593 -0.8168
14969TIP3    H166398   0.839   4.567  14.370  1.4263 -5.1103  1.2109
14969TIP3    H266399   0.909   4.591  14.238 -2.7529 -2.3458 -0.7052
14970TIP3   OH266400   0.326   4.759   4.349  0.0976  0.4675 -0.5624
14970TIP3    H166401   0.358   4.704   4.277 -2.6633 -0.0956 -1.4712
14970TIP3    H266402   0.347   4.848   4.323 -0.2734  0.2148 -1.7761
14971TIP3   OH266403   5.288   6.224  11.320 -0.1210 -0.3447 -0.0692
14971TIP3    H166404   5.322   6.135  11.329 -2.9434 -1.6297 -0.7995
14971TIP3    H266405   5.281   6.238  11.225 -2.1010 -0.4315  0.0232
14972TIP3   OH266406   3.955   0.159   5.785  0.2893  0.0453 -0.2257
14972TIP3    H166407   3.879   0.104   5.806  1.1092 -0.9955  0.1178
14972TIP3    H266408   3.961   0.155   5.690  1.2565 -1.7779 -0.1233
14973TIP3   OH266409   5.372   0.991  11.848  0.1548 -0.2872 -0.0478
14973TIP3    H166410   5.331   1.077  11.845  1.8020  0.5341 -3.4879
14973TIP3    H266411   5.352   0.951  11.763  1.5752 -2.2472  0.4616
14974TIP3   OH266412   4.952   0.531  13.274 -0.4689  0.5630 -0.6169
14974TIP3    H166413   4.987   0.474  13.205 -2.3172 -0.0788 -1.0788
14974TIP3    H266414   5.025   0.543  13.335  0.0918 -2.0096 -0.6880
14975TIP3   OH266415   2.168   0.857   1.889 -0.1477  0.6706  0.3263
14975TIP3    H166416   2.178   0.886   1.980 -0.6996  3.3407 -0.3688
14975TIP3    H266417   2.254   0.871   1.850  1.0205 -3.3157  1.0043
14976TIP3   OH266418   4.696   2.958  14.380  0.2580 -0.3025 -0.1492
14976TIP3    H166419   4.773   2.967  14.437  0.6535 -0.0169 -0.7215
14976TIP3    H266420   4.630   3.015  14.419  0.4483 -0.2886  0.1527
14977TIP3   OH266421   2.650   0.301  16.228  0.4053 -0.0898 -0.3699
14977TIP3    H166422   2.629   0.240  16.300  1.1480  0.9715  0.7879
14977TIP3    H266423   2.709   0.365  16.267 -1.2858  2.1095 -1.1748
14978TIP3   OH266424   0.911   0.978  10.429  0.0061  0.0396  0.1288
14978TIP3    H166425   0.945   0.889  10.437 -0.5452 -0.1890 -0.0463
14978TIP3    H266426   0.973   1.031  10.479 -1.0228 -0.7831  2.3872
14979TIP3   OH266427   6.860   0.662   1.762 -0.6322 -0.4522 -0.1115
14979TIP3    H166428   6.929   0.704   1.711  0.8581 -0.5251  1.7342
14979TIP3    H266429   6.846   0.578   1.718  0.8391 -0.6501 -0.2497
14980TIP3   OH266430   3.760   3.137   2.658 -0.2584 -0.5557  0.2208
14980TIP3    H166431   3.698   3.205   2.684  0.4741  0.2442 -0.0738
14980TIP3    H266432   3.820   3.129   2.732  0.1748 -0.2622 -0.0970
14981TIP3   OH266433   2.587   5.645   2.317  0.5542 -0.0085  0.5772
14981TIP3    H166434   2.636   5.716   2.359 -0.7128  1.0214  0.4044
14981TIP3    H266435   2.602   5.658   2.224 -3.1856  2.9855  0.1088
14982TIP3   OH266436   3.767   4.738   1.664 -0.3955 -0.4042  0.2002
14982TIP3    H166437   3.795   4.671   1.726  0.5457 -1.1165 -0.9345
14982TIP3    H266438   3.841   4.747   1.603 -1.9846 -1.1768 -1.9862
14983TIP3   OH266439   3.968   0.873  14.729  0.1128  0.4443 -0.2229
14983TIP3    H166440   3.882   0.868  14.687  0.0466  0.0762 -0.0484
14983TIP3    H266441   3.985   0.784  14.759 -0.0872  0.8098  1.0320
14984TIP3   OH266442   6.253   4.597  11.429 -0.2536 -0.1545 -0.0351
14984TIP3    H166443   6.164   4.563  11.416 -0.0942  0.0564 -1.8517
14984TIP3    H266444   6.261   4.670  11.367  1.4764 -0.7282 -0.5499
14985TIP3   OH266445   5.104   5.291   0.506 -0.0353  0.1685  0.1618
14985TIP3    H166446   5.148   5.209   0.483 -0.2376  0.1474 -0.1600
14985TIP3    H266447   5.076   5.278   0.597 -1.5510 -0.7993 -0.3989
14986TIP3   OH266448   3.460   3.276  16.329 -0.7705  0.1673  0.3976
14986TIP3    H166449   3.404   3.349  16.307 -0.8478  0.2678  0.9169
14986TIP3    H266450   3.549   3.312  16.329 -0.8403  0.3602  1.0280
14987TIP3   OH266451   2.986   6.606  10.775 -0.5760 -0.2439  0.2508
14987TIP3    H166452   2.962   6.527  10.727  2.0539 -0.8035 -0.2560
14987TIP3    H266453   3.062   6.581  10.827  2.5178  2.6589 -2.4133
14988TIP3   OH266454   6.800   4.393  14.005  0.4638 -0.1218  0.7729
14988TIP3    H166455   6.743   4.416  14.078 -0.6697  0.7366 -0.3459
14988TIP3    H266456   6.844   4.474  13.981 -0.5608  0.0532 -0.6453
14989TIP3   OH266457   6.661   2.429   0.089  0.0083 -0.2218 -0.2665
14989TIP3    H166458   6.708   2.351   0.060  0.1983 -0.1528 -0.1403
14989TIP3    H266459   6.725   2.500   0.081  0.3089 -0.3202  1.0637
14990TIP3   OH266460   0.449   5.385  11.239  0.3469 -0.2071  0.6911
14990TIP3    H166461   0.361   5.374  11.203  0.7053 -1.6833  0.1934
14990TIP3    H266462   0.504   5.405  11.163  0.8681 -1.9285  0.5821
14991TIP3   OH266463   3.878   4.339   3.610  0.3828  0.3011 -1.0390
14991TIP3    H166464   3.799   4.387   3.633 -0.0744  0.0686 -2.0694
14991TIP3    H266465   3.854   4.289   3.532  0.9754 -1.2614 -0.2617
14992TIP3   OH266466   0.523   3.835   3.114  0.0514  0.3124 -0.1443
14992TIP3    H166467   0.536   3.751   3.157 -1.7509 -0.2528 -0.6041
14992TIP3    H266468   0.428   3.849   3.116  0.3125  2.4139  0.0517
14993TIP3   OH266469   0.974   2.385   3.683 -0.2044  0.2938 -0.0537
14993TIP3    H166470   1.015   2.302   3.709 -0.9973 -0.2268 -0.4234
14993TIP3    H266471   0.912   2.404   3.754 -2.2065 -1.0112 -1.3442
14994TIP3   OH266472   5.542   3.101  15.014 -0.8299 -0.1089 -0.3056
14994TIP3    H166473   5.626   3.059  15.036 -0.4156  0.3017 -1.0536
14994TIP3    H266474   5.481   3.068  15.080 -0.2414 -0.9504 -0.1572
14995TIP3   OH266475   0.824   3.106   4.540 -0.2346  0.4896 -0.6867
14995TIP3    H166476   0.798   3.027   4.494 -2.1964  1.1518 -0.8043
14995TIP3    H266477   0.774   3.176   4.498  0.7203  1.6483  0.0505
14996TIP3   OH266478   5.152   2.231   0.056  0.0941  0.4047  0.3408
14996TIP3    H166479   5.238   2.220   0.017 -0.5985  0.4934 -1.2804
14996TIP3    H266480   5.142   2.154   0.113  1.1164  0.2512  0.3371
14997TIP3   OH266481   2.129   0.512  11.585 -0.4105 -0.5076  0.1953
14997TIP3    H166482   2.169   0.495  11.671  1.0311  0.0031 -0.3559
14997TIP3    H266483   2.181   0.461  11.523  0.3537  1.2754 -0.7190
14998TIP3   OH266484   4.803   5.701   3.518  0.4347  0.0167  0.1732
14998TIP3    H166485   4.849   5.762   3.576 -0.0297  1.1153 -0.5734
14998TIP3    H266486   4.743   5.757   3.468 -1.7096 -1.3378  1.0810
14999TIP3   OH266487   0.113   0.809  15.795 -0.4982  0.4408  0.1661
14999TIP3    H166488   0.088   0.901  15.794  1.0279  0.8970 -1.1883
14999TIP3    H266489   0.162   0.797  15.714  2.0336 -0.7729  1.7414
15000TIP3   OH266490   3.749   2.937   0.936  0.0678  0.0540 -0.0308
15000TIP3    H166491   3.713   2.984   1.011 -0.6829  0.3459 -0.5706
15000TIP3    H266492   3.744   2.844   0.961  2.0341  0.2253  1.2562
15001TIP3   OH266493   2.287   5.249  14.147 -0.1188  0.9588  0.4343
15001TIP3    H166494   2.229   5.185  14.188 -0.2757  1.0179  0.3091
15001TIP3    H266495   2.266   5.332  14.190  0.9040  0.7323  1.4191
15002TIP3   OH266496   1.689   1.005   0.265  0.0995  0.1239  0.0873
15002TIP3    H166497   1.596   0.982   0.274  0.1206  0.0133  0.0284
15002TIP3    H266498   1.717   0.962   0.184  0.2917 -0.1416  0.2913
15003TIP3   OH266499   4.964   3.381  13.526  0.5573  0.4217 -0.6863
15003TIP3    H166500   4.941   3.295  13.561 -0.1286  1.2427  1.0481
15003TIP3    H266501   4.898   3.440  13.564  3.3798  2.3609  1.6653
15004TIP3   OH266502   4.681   1.414   5.381 -0.0684 -0.0749  0.2464
15004TIP3    H166503   4.723   1.494   5.413  0.6035 -0.1893 -0.3104
15004TIP3    H266504   4.646   1.438   5.295 -0.0599 -0.3135  0.1735
15005TIP3   OH266505   0.378   1.070  16.017  1.1275 -0.0937 -0.5141
15005TIP3    H166506   0.342   1.073  16.106  0.4944  0.1151 -0.7714
15005TIP3    H266507   0.363   0.980  15.988 -2.1455  0.7340 -1.7921
15006TIP3   OH266508   5.374   4.215   5.594  0.0648 -0.1847  0.4493
15006TIP3    H166509   5.352   4.295   5.547 -0.3305 -0.2645  0.4941
15006TIP3    H266510   5.464   4.228   5.624  0.5069 -0.3339 -0.7527
15007TIP3   OH266511   5.919   2.800  16.395 -0.9466  0.3684  0.5009
15007TIP3    H166512   5.923   2.892  16.424 -0.3323  0.3791  0.3983
15007TIP3    H266513   6.006   2.766  16.414 -1.0006 -0.0412  0.0203
15008TIP3   OH266514   4.779   5.334   2.289  0.3419  0.7990 -0.3777
15008TIP3    H166515   4.694   5.325   2.245  1.8861  0.4275 -3.5050
15008TIP3    H266516   4.794   5.428   2.293 -1.3787  1.0900  2.8787
15009TIP3   OH266517   2.631   3.955   0.776 -0.0856 -0.3448 -0.2428
15009TIP3    H166518   2.626   3.863   0.752 -0.6216 -0.4403  0.2259
15009TIP3    H266519   2.567   3.999   0.721  0.2813 -0.2275 -0.5776
15010TIP3   OH266520   3.845   5.836  15.007  0.2442 -0.1432 -0.1194
15010TIP3    H166521   3.855   5.799  15.095 -0.6919  0.8555  0.4388
15010TIP3    H266522   3.881   5.770  14.948 -1.8999 -2.2123  0.7701
15011TIP3   OH266523   1.693   0.162  14.642 -1.3130 -0.8650 -0.7271
15011TIP3    H166524   1.701   0.090  14.705  2.4296  0.8001  1.0053
15011TIP3    H266525   1.738   0.130  14.564 -1.0929 -0.9778 -0.5549
15012TIP3   OH266526   4.227   5.402   5.862 -0.1945 -0.2329  0.0093
15012TIP3    H166527   4.303   5.419   5.918  0.9283 -3.7833 -0.2093
15012TIP3    H266528   4.176   5.336   5.909 -2.0874  0.5403 -0.8273
15013TIP3   OH266529   3.412   6.116  11.030  0.0175  0.4679 -0.0179
15013TIP3    H166530   3.321   6.099  11.005 -0.1420  0.7989  0.3379
15013TIP3    H266531   3.463   6.052  10.980 -0.4973 -0.4515  0.6107
15014TIP3   OH266532   0.109   5.300  13.476 -0.8707  0.3449  0.0795
15014TIP3    H166533   0.150   5.338  13.398  2.0507  0.6418  1.6053
15014TIP3    H266534   0.067   5.374  13.520  0.1899  0.8031  0.3458
15015TIP3   OH266535   6.019   4.321  16.714 -0.1318 -0.2132  0.7822
15015TIP3    H166536   5.984   4.397  16.760 -0.4584  0.5619 -0.6674
15015TIP3    H266537   5.975   4.246  16.754 -1.1868  0.5083  1.0275
15016TIP3   OH266538   3.752   0.875  13.742 -0.3894 -0.1575  0.3372
15016TIP3    H166539   3.780   0.903  13.655 -2.8081 -0.5303 -0.6462
15016TIP3    H266540   3.756   0.779  13.738 -2.7317 -0.2803 -0.2473
15017TIP3   OH266541   0.071   0.983   1.454 -0.4799  0.3228  0.2446
15017TIP3    H166542   0.126   1.044   1.504  0.4432 -0.2228 -0.0976
15017TIP3    H266543  -0.018   1.017   1.466 -0.2291  0.5032  1.8452
15018TIP3   OH266544   0.279   0.782   3.820  0.6366  0.0543 -0.0394
15018TIP3    H166545   0.246   0.762   3.733  0.4667 -0.1114  0.0616
15018TIP3    H266546   0.342   0.712   3.838  0.9206  0.2749 -0.1630
15019TIP3   OH266547   6.459   3.018   1.336  0.8259  0.3621  0.4025
15019TIP3    H166548   6.421   3.010   1.423 -0.1834 -1.2820 -0.1412
15019TIP3    H266549   6.394   3.068   1.287  0.5915 -0.1625  0.1689
15020TIP3   OH266550   6.793   2.821   4.778  0.0876  0.1319  0.6050
15020TIP3    H166551   6.724   2.814   4.845 -1.0072 -0.3382 -0.5226
15020TIP3    H266552   6.819   2.912   4.780 -1.1269  0.5045  0.5479
15021TIP3   OH266553   0.019   5.973   0.418  0.7108 -0.2564 -0.0313
15021TIP3    H166554   0.060   5.940   0.498  0.6338 -2.8934 -0.9873
15021TIP3    H266555   0.085   6.029   0.378  1.9149 -1.3598  0.3686
15022TIP3   OH266556   1.374   4.549  15.337 -0.0485 -0.6315  0.4483
15022TIP3    H166557   1.439   4.617  15.323  1.0805 -1.8182 -0.3414
15022TIP3    H266558   1.291   4.595  15.343  0.8325  0.9226  1.3600
15023TIP3   OH266559   3.227   2.257   5.317 -0.3041 -0.3612 -0.4537
15023TIP3    H166560   3.251   2.233   5.407  0.5093  0.0377 -0.5505
15023TIP3    H266561   3.142   2.216   5.303 -1.1779  0.8553  1.0198
15024TIP3   OH266562   6.695   5.046  12.527  0.2989 -0.4378 -0.2338
15024TIP3    H166563   6.642   5.035  12.448  0.8015 -0.6402 -0.5472
15024TIP3    H266564   6.771   5.095  12.499 -0.4477  1.2343  0.5394
15025TIP3   OH266565   3.142   5.290   5.292 -0.6744 -0.6292  0.1076
15025TIP3    H166566   3.062   5.312   5.340  0.5473  1.7857  1.2576
15025TIP3    H266567   3.209   5.346   5.332  0.9210 -0.1734 -2.9173
15026TIP3   OH266568   6.021   0.808  11.798 -0.2648 -0.0180  0.5510
15026TIP3    H166569   5.932   0.792  11.768  0.0659 -2.2430  0.5263
15026TIP3    H266570   6.061   0.720  11.801  1.8140  0.8749  0.8722
15027TIP3   OH266571   4.800   0.249   2.385  0.2477  0.4444  0.4783
15027TIP3    H166572   4.861   0.190   2.340 -0.4976 -0.0844  0.1399
15027TIP3    H266573   4.843   0.268   2.469  1.0912  0.4600  0.0524
15028TIP3   OH266574   6.752   2.738   1.170 -0.1673 -0.0339  0.4150
15028TIP3    H166575   6.732   2.658   1.122  1.7350 -0.8395  0.8569
15028TIP3    H266576   6.704   2.806   1.124  0.1603 -1.0509 -1.5416
15029TIP3   OH266577   5.585   5.739  11.497 -0.2430  0.3426  0.2586
15029TIP3    H166578   5.648   5.676  11.531 -1.5746  1.0462  4.6464
15029TIP3    H266579   5.627   5.777  11.420  2.8294 -2.0895  0.5760
15030TIP3   OH266580   4.623   0.369   5.957 -0.0002  0.0621 -0.1274
15030TIP3    H166581   4.711   0.333   5.944 -0.5059 -1.0098 -0.7782
15030TIP3    H266582   4.629   0.423   6.035  0.9060 -1.1238  0.6390
15031TIP3   OH266583   0.933   3.036  15.342  0.0502 -0.5525 -0.0736
15031TIP3    H166584   0.896   3.013  15.256 -0.2617 -0.6642  0.0905
15031TIP3    H266585   1.007   2.976  15.353  0.9606  0.3775 -0.8794
15032TIP3   OH266586   1.611   5.895   0.449  0.1182  0.3534 -0.4213
15032TIP3    H166587   1.565   5.835   0.391  1.7002 -0.9247 -0.4205
15032TIP3    H266588   1.543   5.931   0.506 -1.2789  0.7300 -2.2511
15033TIP3   OH266589   6.382   0.542  11.777 -0.5725 -0.2186  0.7111
15033TIP3    H166590   6.403   0.571  11.866 -0.4906  1.9004  0.0577
15033TIP3    H266591   6.288   0.556  11.768 -0.6334 -0.7115  0.5655
15034TIP3   OH266592   5.750   2.675  13.820 -0.5543  0.0934 -0.1923
15034TIP3    H166593   5.698   2.626  13.884  0.1968 -0.7078 -0.1814
15034TIP3    H266594   5.828   2.621  13.806 -0.2272  0.7625 -1.0108
15035TIP3   OH266595   1.962   3.955   5.155  0.2213  0.5575  0.2736
15035TIP3    H166596   1.986   4.042   5.121 -2.4295  0.9859 -0.7069
15035TIP3    H266597   1.873   3.941   5.125 -0.2943 -1.4981  2.4521
15036TIP3   OH266598   2.241   5.858   0.243  0.1454  0.4428 -0.4554
15036TIP3    H166599   2.255   5.839   0.336  0.9752 -0.2823 -0.7182
15036TIP3    H266600   2.271   5.948   0.232  2.3208 -0.2205 -0.4731
15037TIP3   OH266601   0.380   6.460  12.039 -0.3439 -1.0208  0.1401
15037TIP3    H166602   0.441   6.400  11.997  0.8483 -0.8310  1.5275
15037TIP3    H266603   0.410   6.465  12.130 -0.9280  0.9945  0.2685
15038TIP3   OH266604   1.694   6.493   1.323 -0.4045 -0.0321  0.0883
15038TIP3    H166605   1.712   6.520   1.413 -1.5819 -0.3819  0.4410
15038TIP3    H266606   1.634   6.419   1.332  0.0137 -0.5215 -0.9713
15039TIP3   OH266607   4.341   1.888  15.642 -0.0895  0.0336 -0.2646
15039TIP3    H166608   4.387   1.852  15.566  0.0109 -0.6155  0.1000
15039TIP3    H266609   4.407   1.890  15.711 -0.2557  0.3620 -0.1133
15040TIP3   OH266610   3.491   2.977  13.320 -0.3306 -0.6729 -0.1343
15040TIP3    H166611   3.414   2.934  13.283 -1.5916  0.2712  1.2585
15040TIP3    H266612   3.488   3.066  13.284 -1.4054  0.1635  1.9035
15041TIP3   OH266613   2.814   0.701  12.092  0.0961 -0.6918 -0.3458
15041TIP3    H166614   2.861   0.629  12.049  0.6271 -0.4154 -0.2364
15041TIP3    H266615   2.883   0.757  12.127 -0.3051 -1.3046  1.5539
15042TIP3   OH266616   2.996   6.134   5.691 -0.1824  0.2519 -0.3875
15042TIP3    H166617   3.007   6.196   5.619  0.4565  1.1325  0.4373
15042TIP3    H266618   3.067   6.071   5.679  0.9329  1.3256  0.3625
15043TIP3   OH266619   1.939   6.605   2.673  0.3323  0.8796 -0.3921
15043TIP3    H166620   1.853   6.601   2.714  1.6117  0.0352  2.4782
15043TIP3    H266621   1.976   6.688   2.703 -0.0209  2.0312 -2.9348
15044TIP3   OH266622   4.219   5.735   2.688 -0.0529  0.1794  0.0907
15044TIP3    H166623   4.304   5.762   2.655  1.2057  0.6941  3.4251
15044TIP3    H266624   4.227   5.641   2.702  1.0726  0.6139  3.0025
15045TIP3   OH266625   2.749   6.327  13.219  0.2632 -0.0360 -0.0097
15045TIP3    H166626   2.792   6.397  13.170 -1.0893  0.1058 -1.0504
15045TIP3    H266627   2.658   6.357  13.229 -0.3799 -1.6738 -0.5834
15046TIP3   OH266628   5.280   6.003   3.111 -0.3647 -0.5856  0.3128
15046TIP3    H166629   5.367   5.963   3.115  0.3131  0.7953 -0.0605
15046TIP3    H266630   5.276   6.041   3.023 -0.9564  0.2317  0.6867
15047TIP3   OH266631   5.846   5.178   1.007  0.5739  0.0120 -0.2082
15047TIP3    H166632   5.760   5.140   0.993  1.5002 -2.5546  0.6141
15047TIP3    H266633   5.828   5.266   1.040 -1.7006 -0.4288 -0.1121
15048TIP3   OH266634   0.780   6.433  15.535  0.0201  0.9534  0.8079
15048TIP3    H166635   0.706   6.492  15.543 -0.5002  0.2377  1.4769
15048TIP3    H266636   0.797   6.427  15.441 -0.6374  1.2911  0.6670
15049TIP3   OH266637   0.091   0.378   1.787  0.2379 -0.0049 -0.0801
15049TIP3    H166638   0.116   0.292   1.753 -0.0379 -1.1463  2.3655
15049TIP3    H266639   0.017   0.360   1.844  0.5643  1.7617  0.9649
15050TIP3   OH266640   5.144   5.759  14.795  0.2479 -0.0865  0.3775
15050TIP3    H166641   5.215   5.741  14.733 -0.8551 -1.1851 -0.6089
15050TIP3    H266642   5.072   5.704  14.766 -0.3833 -0.4848  2.5270
15051TIP3   OH266643   2.041   3.461   2.068  0.0141 -0.0611 -0.0139
15051TIP3    H166644   2.068   3.432   2.155 -0.0384  0.0144  0.0278
15051TIP3    H266645   2.085   3.545   2.055 -1.1096  0.6373  0.5340
15052TIP3   OH266646   3.575   5.365   2.991  0.0282  0.2982  0.1080
15052TIP3    H166647   3.576   5.444   3.045  0.8769 -0.5660  1.4147
15052TIP3    H266648   3.567   5.293   3.054 -0.6147 -0.6741 -1.0499
15053TIP3   OH266649   0.579   4.669   0.917 -0.2381 -0.0417  0.0807
15053TIP3    H166650   0.507   4.609   0.939  0.3718 -1.1338 -0.8207
15053TIP3    H266651   0.589   4.661   0.823  0.6766  0.5672  0.1150
15054TIP3   OH266652   3.947   6.460   0.850  0.1982 -0.2295 -0.2319
15054TIP3    H166653   3.881   6.407   0.805 -1.0442  0.9395  0.1594
15054TIP3    H266654   3.916   6.464   0.940  0.3296  1.0542 -0.2294
15055TIP3   OH266655   2.381   6.405   0.564  0.0161 -0.0459  0.1595
15055TIP3    H166656   2.328   6.326   0.569 -1.3221  0.8280  0.2613
15055TIP3    H266657   2.326   6.474   0.601  1.6115  0.7273  1.2252
15056TIP3   OH266658   0.839   2.255   1.831  0.4528 -0.0145  0.3439
15056TIP3    H166659   0.830   2.294   1.918  0.1331 -1.0811  0.7987
15056TIP3    H266660   0.912   2.303   1.791 -0.0058  1.1233  0.8324
15057TIP3   OH266661   4.069   3.012   3.585  0.4663 -0.1138  0.0971
15057TIP3    H166662   4.053   2.930   3.540 -0.8335  1.1070 -1.8208
15057TIP3    H266663   4.045   2.994   3.676 -0.7291 -1.5949 -0.4664
15058TIP3   OH266664   6.235   5.757  16.207 -0.1873  0.2871  0.1791
15058TIP3    H166665   6.177   5.801  16.145 -1.3936  0.4593  1.3806
15058TIP3    H266666   6.301   5.822  16.229  1.1167 -0.2216 -1.9516
15059TIP3   OH266667   4.236   4.193   4.323 -0.0488  0.0487  0.0003
15059TIP3    H166668   4.228   4.122   4.386  0.7486  0.6795  0.8285
15059TIP3    H266669   4.297   4.255   4.363  1.1444  0.0659 -1.7649
15060TIP3   OH266670   2.407   6.185  15.599  0.4096 -0.0020 -0.4210
15060TIP3    H166671   2.473   6.116  15.593  1.1759  0.5924  0.7005
15060TIP3    H266672   2.425   6.242  15.524 -0.0988 -0.8834 -1.2361
15061TIP3   OH266673   0.634   0.715   3.005 -0.1045  0.0838  0.5226
15061TIP3    H166674   0.713   0.758   3.037  1.2108 -1.4835 -0.4839
15061TIP3    H266675   0.615   0.648   3.071  1.6586 -2.0485 -0.9938
15062TIP3   OH266676   2.194   5.167   5.338  0.1746  0.0828  0.5035
15062TIP3    H166677   2.255   5.155   5.410  0.9620 -1.9738 -0.4319
15062TIP3    H266678   2.139   5.089   5.338  0.4330 -0.1560 -1.3104
15063TIP3   OH266679   1.700   6.329   0.724 -0.1343  0.3121 -0.2901
15063TIP3    H166680   1.689   6.294   0.635 -1.1895 -1.9005  0.6579
15063TIP3    H266681   1.775   6.283   0.759 -1.7549 -1.4129  1.1032
15064TIP3   OH266682   4.808   4.550   0.070 -0.7443 -0.5825  0.0767
15064TIP3    H166683   4.793   4.467   0.116 -1.1685 -0.2216  0.6062
15064TIP3    H266684   4.729   4.563   0.017 -0.0485 -1.2470 -1.1809
15065TIP3   OH266685   6.737   5.960  12.574  0.5230  0.1408 -0.1597
15065TIP3    H166686   6.700   6.001  12.496 -0.0556 -0.4204 -0.1823
15065TIP3    H266687   6.717   6.021  12.645 -3.7667 -1.7311  0.5343
15066TIP3   OH266688   0.112   4.135   2.114  0.3181 -0.2732 -0.2388
15066TIP3    H166689   0.048   4.186   2.165 -1.0390 -1.1105 -1.0575
15066TIP3    H266690   0.174   4.200   2.081  0.9820  0.3570  2.0534
15067TIP3   OH266691   6.029   3.387  13.662  0.0069  0.4227 -0.2684
15067TIP3    H166692   6.006   3.302  13.702  1.1915  1.1588  2.2008
15067TIP3    H266693   5.945   3.430  13.648 -0.5186 -0.2957  0.5586
15068TIP3   OH266694   0.838   5.350  11.901  0.7760 -0.4328 -0.0927
15068TIP3    H166695   0.885   5.281  11.854  0.2897 -1.1784  0.4906
15068TIP3    H266696   0.745   5.332  11.884  0.6431  0.0369  0.1217
15069TIP3   OH266697   5.333   4.897  11.901 -0.6888 -0.5292 -0.2633
15069TIP3    H166698   5.397   4.828  11.881 -0.8732 -0.5951 -0.6282
15069TIP3    H266699   5.284   4.863  11.976  0.0527 -0.2500  0.3593
15070TIP3   OH266700   4.970   5.444   5.816  0.0553 -0.7047  0.2978
15070TIP3    H166701   4.920   5.493   5.751  0.7849  0.9975  0.9683
15070TIP3    H266702   5.018   5.511   5.865  0.6210 -2.0542  1.6621
15071TIP3   OH266703   1.878   3.054   3.521  0.3959 -0.1935 -0.2165
15071TIP3    H166704   1.943   3.118   3.551 -1.3485  0.4799  2.5370
15071TIP3    H266705   1.880   3.060   3.426 -0.2036  4.6806 -0.1846
15072TIP3   OH266706   6.573   5.865  17.044  0.1913  1.0567 -0.2316
15072TIP3    H166707   6.647   5.925  17.034 -0.2985  2.0516  1.5565
15072TIP3    H266708   6.557   5.863  17.138  1.5497 -3.6436  0.1559
15073TIP3   OH266709   2.379   6.342  15.349 -0.3162  0.0488 -0.5629
15073TIP3    H166710   2.315   6.284  15.309  1.1070 -1.4163 -0.8221
15073TIP3    H266711   2.355   6.430  15.320 -0.9929 -0.6814 -2.3060
15074TIP3   OH266712   5.323   6.574   3.468  0.2920 -0.2254  0.6500
15074TIP3    H166713   5.251   6.571   3.531  0.2293  0.1738  0.6001
15074TIP3    H266714   5.370   6.654   3.489 -0.9362  1.0551 -1.1078
15075TIP3   OH266715   6.497   1.175  15.020 -0.5854  0.1333  0.3443
15075TIP3    H166716   6.475   1.082  15.020  0.4930 -0.3114  4.0678
15075TIP3    H266717   6.425   1.217  15.066 -1.9946  1.5859 -2.9223
15076TIP3   OH266718   4.598   2.404  13.074 -0.1020 -0.2264 -0.3672
15076TIP3    H166719   4.585   2.375  13.164 -0.0647 -1.3685 -0.7192
15076TIP3    H266720   4.511   2.396  13.033  0.1687 -1.0623 -0.8016
15077TIP3   OH266721   6.343   0.203  12.309  0.0620  0.5552 -0.0729
15077TIP3    H166722   6.309   0.213  12.398  0.4084 -0.6576  0.2197
15077TIP3    H266723   6.337   0.290  12.270  2.7431  1.8956  2.1415
15078TIP3   OH266724   3.433   3.901   5.412  0.9284  0.2353  0.1448
15078TIP3    H166725   3.366   3.969   5.405  0.2299 -0.5521 -1.4262
15078TIP3    H266726   3.513   3.942   5.380  0.7845  0.6795  0.3568
15079TIP3   OH266727   4.453   3.514   3.222 -0.1926  0.0714 -0.7527
15079TIP3    H166728   4.540   3.485   3.195  0.7908  1.0665  1.1632
15079TIP3    H266729   4.398   3.503   3.143  1.6678 -0.4101 -2.0414
15080TIP3   OH266730   0.187   0.389  11.587 -0.1318 -0.5548 -0.4090
15080TIP3    H166731   0.138   0.471  11.578 -1.0293 -0.4802  3.5009
15080TIP3    H266732   0.278   0.416  11.588 -0.3440  0.2066 -0.6627
15081TIP3   OH266733   2.839   1.598   1.642  0.1621 -0.0386  0.4590
15081TIP3    H166734   2.871   1.516   1.680  1.8833  0.7045  0.7237
15081TIP3    H266735   2.845   1.661   1.714 -3.3544 -0.0995  0.9754
15082TIP3   OH266736   2.879   5.600  13.856 -0.4272  0.2376  0.3962
15082TIP3    H166737   2.879   5.629  13.764  1.0694 -1.2775 -0.1431
15082TIP3    H266738   2.915   5.674  13.905 -0.9017  0.9293 -0.2691
15083TIP3   OH266739   6.766   3.200  12.599 -0.1761 -0.1260  0.1313
15083TIP3    H166740   6.856   3.185  12.570 -0.0003 -0.1004  0.6489
15083TIP3    H266741   6.720   3.229  12.520  0.5076  0.8420  0.0658
15084TIP3   OH266742   1.091   5.582   3.871 -0.2262  0.2576  0.4600
15084TIP3    H166743   1.146   5.602   3.796  0.3778 -0.3564  0.7288
15084TIP3    H266744   1.103   5.655   3.931 -1.4260  1.2108 -0.4158
15085TIP3   OH266745   4.935   1.612   4.052  0.2393  0.2197  0.0085
15085TIP3    H166746   4.958   1.596   3.961 -1.2291  2.1579 -0.7713
15085TIP3    H266747   4.961   1.702   4.068 -1.0500  0.4535  0.9659
15086TIP3   OH266748   6.678   5.622   4.414  0.0255 -0.1993 -0.1974
15086TIP3    H166749   6.618   5.613   4.488  0.5888 -2.3942  0.0689
15086TIP3    H266750   6.668   5.541   4.365  2.9270 -0.7797 -0.0049
15087TIP3   OH266751   5.969   1.256   2.884  0.1836  0.3380  0.1691
15087TIP3    H166752   5.978   1.298   2.798  2.9408  1.0994  0.7270
15087TIP3    H266753   6.003   1.322   2.946 -0.5340 -0.6766  1.6951
15088TIP3   OH266754   5.731   1.507  15.303  0.0618  0.1278  0.1241
15088TIP3    H166755   5.821   1.529  15.325  0.0096 -0.2282  0.7299
15088TIP3    H266756   5.679   1.543  15.375 -0.2269 -0.1230  0.0447
15089TIP3   OH266757   5.536   0.556   0.718 -0.0869 -0.1462 -0.0486
15089TIP3    H166758   5.502   0.633   0.763  2.0808  0.4582  0.6782
15089TIP3    H266759   5.589   0.591   0.647  2.4745 -0.8169  1.4058
15090TIP3   OH266760   1.858   3.807   2.574  0.1014  0.1924 -0.2446
15090TIP3    H166761   1.901   3.887   2.603 -0.3971 -0.1045  1.4253
15090TIP3    H266762   1.928   3.755   2.536  0.5299  1.1974 -0.8825
15091TIP3   OH266763   5.716   1.479   1.907 -0.4096  0.2503  0.5073
15091TIP3    H166764   5.752   1.392   1.923 -2.7113 -0.7130  0.8543
15091TIP3    H266765   5.767   1.512   1.833  1.0815 -1.0149  0.8995
15092TIP3   OH266766   2.312   6.032  13.159  0.1114  0.0191 -0.1128
15092TIP3    H166767   2.283   6.084  13.084  0.2659  0.8756  0.4113
15092TIP3    H266768   2.398   5.999  13.134  0.1245  0.2321 -0.3493
15093TIP3   OH266769   1.411   2.302   2.909  0.4788  0.3304  0.2048
15093TIP3    H166770   1.429   2.230   2.848  0.1371  0.2295  0.2176
15093TIP3    H266771   1.366   2.368   2.856  2.3791  1.3339 -0.2423
15094TIP3   OH266772   4.313   4.842  14.616  0.2585 -0.2417  0.2508
15094TIP3    H166773   4.289   4.777  14.682 -2.8096 -0.0929 -0.5860
15094TIP3    H266774   4.245   4.909  14.623  1.5270  1.2695 -1.1169
15095TIP3   OH266775   6.427   2.020   1.805 -0.0163 -0.0037  0.6701
15095TIP3    H166776   6.384   2.020   1.719  0.4347  0.9906  0.4393
15095TIP3    H266777   6.463   2.108   1.814  0.9947 -0.4785  1.3603
15096TIP3   OH266778   1.643   2.186  13.351 -0.0842  0.6413 -1.1610
15096TIP3    H166779   1.598   2.265  13.322 -0.5815  0.1253 -1.8444
15096TIP3    H266780   1.710   2.170  13.284 -1.2718 -0.5879 -2.1108
15097TIP3   OH266781   5.694   5.408  17.072 -0.1277 -0.4529  0.4213
15097TIP3    H166782   5.762   5.460  17.113 -0.0899 -1.1441  1.2613
15097TIP3    H266783   5.692   5.326  17.122 -3.6894  0.7050  2.5409
15098TIP3   OH266784   5.175   5.844   5.009  0.3049 -0.3730 -0.3779
15098TIP3    H166785   5.194   5.865   5.100  1.0449 -2.0568 -0.0984
15098TIP3    H266786   5.118   5.767   5.013 -0.3173  0.0062 -1.3463
15099TIP3   OH266787   5.307   1.660   2.872  0.3322 -0.1763  0.1540
15099TIP3    H166788   5.384   1.610   2.903  0.6174  1.0243  1.5121
15099TIP3    H266789   5.285   1.717   2.946  0.3170  2.0576 -1.4774
15100TIP3   OH266790   2.165   4.762  15.223  0.1868 -0.2020  0.2789
15100TIP3    H166791   2.239   4.704  15.242  0.4249 -0.1679 -0.5084
15100TIP3    H266792   2.155   4.757  15.128  0.4143  1.2989  0.1598
15101TIP3   OH266793   5.586   5.381   0.773  0.0238  0.4901 -0.7487
15101TIP3    H166794   5.562   5.309   0.831 -0.6207  0.3670 -1.1559
15101TIP3    H266795   5.603   5.340   0.689  0.4844  0.7196 -0.7687
15102TIP3   OH266796   4.592   4.696  12.109 -0.3431  0.0338 -0.0753
15102TIP3    H166797   4.591   4.781  12.153 -0.4002  0.3761 -0.7274
15102TIP3    H266798   4.513   4.695  12.055 -0.9263 -0.8944  0.7628
15103TIP3   OH266799   3.248   2.156  10.402 -0.1984 -0.2301 -0.1294
15103TIP3    H166800   3.202   2.129  10.481 -0.9165  0.7961 -0.1818
15103TIP3    H266801   3.340   2.131  10.418 -0.4469 -0.6264  0.7448
15104TIP3   OH266802   4.607   6.232  10.472  0.2583 -0.0879 -0.0520
15104TIP3    H166803   4.613   6.322  10.505 -2.8896  0.5306 -0.8555
15104TIP3    H266804   4.629   6.177  10.548  0.5388  1.3476  0.9385
15105TIP3   OH266805   5.802   4.797  12.898 -0.2366  0.1910  0.1222
15105TIP3    H166806   5.720   4.808  12.849  0.1778  1.6370 -0.2803
15105TIP3    H266807   5.841   4.718  12.860 -0.5704  0.5250 -0.9432
15106TIP3   OH266808   6.541   6.606   6.092  0.0312 -0.6678  0.3424
15106TIP3    H166809   6.486   6.529   6.105  1.1323 -1.7362 -1.0399
15106TIP3    H266810   6.630   6.573   6.099  0.5257  0.5545  0.0690
15107TIP3   OH266811   3.566   0.521   5.226  0.6264  0.3742 -0.1825
15107TIP3    H166812   3.563   0.603   5.274  1.5567  0.4113 -0.1588
15107TIP3    H266813   3.489   0.472   5.255  1.0718  0.4692  1.2059
15108TIP3   OH266814   6.601   2.298  14.296 -0.8971  0.2663  0.0701
15108TIP3    H166815   6.618   2.228  14.233  0.5816  0.2387  0.4647
15108TIP3    H266816   6.605   2.255  14.381  1.6495  1.0172  0.4332
15109TIP3   OH266817   6.180   0.945   2.380 -0.0967  0.0753 -0.0720
15109TIP3    H166818   6.273   0.966   2.389 -0.1969  0.3442  0.3497
15109TIP3    H266819   6.151   0.924   2.468 -0.7054  1.1186 -0.0081
15110TIP3   OH266820   4.194   6.192  16.693  0.0849  0.0273  0.2143
15110TIP3    H166821   4.232   6.280  16.697  0.1218 -0.0197  1.3677
15110TIP3    H266822   4.214   6.154  16.779  1.8135 -1.8472 -0.9207
15111TIP3   OH266823   4.633   1.510  15.258 -0.1087  0.0333  0.0716
15111TIP3    H166824   4.653   1.600  15.233  1.2072 -0.1852  0.2965
15111TIP3    H266825   4.697   1.489  15.326 -2.0469 -0.2215  1.9190
15112TIP3   OH266826   0.071   5.254   1.313  0.2157 -0.6244  0.0062
15112TIP3    H166827   0.050   5.209   1.231  0.7337 -0.0711 -0.4361
15112TIP3    H266828   0.082   5.346   1.288 -0.2330 -0.3476  0.8002
15113TIP3   OH266829   5.953   3.775   3.465 -0.5110  0.1373 -0.8891
15113TIP3    H166830   5.991   3.796   3.550  0.4552  0.1147 -1.2965
15113TIP3    H266831   5.917   3.686   3.476 -0.8959  0.3541 -0.3537
15114TIP3   OH266832   3.652   1.232   2.685  0.1866  1.0132  0.8323
15114TIP3    H166833   3.572   1.222   2.634 -0.5360  1.6334  1.8234
15114TIP3    H266834   3.715   1.173   2.642 -0.8121  0.4471  0.1041
15115TIP3   OH266835   4.302   4.568  12.923  0.3881 -0.1746 -0.4126
15115TIP3    H166836   4.313   4.602  13.012 -0.7783  0.4513 -0.4794
15115TIP3    H266837   4.222   4.516  12.927  1.4089 -1.8372 -0.6466
15116TIP3   OH266838   1.616   5.959  16.840 -0.2147 -0.7733 -0.4742
15116TIP3    H166839   1.710   5.942  16.834 -0.1696 -0.2232 -1.8422
15116TIP3    H266840   1.593   5.995  16.754 -2.1055 -2.8956 -0.9550
15117TIP3   OH266841   0.320   4.919  14.971  0.2233  0.4192 -0.4040
15117TIP3    H166842   0.293   4.963  15.052  0.1533  0.2844 -0.3534
15117TIP3    H266843   0.389   4.975  14.935  2.4098 -1.0213  1.2939
15118TIP3   OH266844   6.727   6.189  16.917  0.8601 -0.1690  0.2462
15118TIP3    H166845   6.815   6.174  16.952  1.2609  1.8958  0.2656
15118TIP3    H266846   6.681   6.235  16.988  0.7175  1.3497 -0.7943
15119TIP3   OH266847   2.186   4.680  16.669  0.0250 -0.3252  0.2916
15119TIP3    H166848   2.239   4.623  16.613  1.6830  1.5558 -0.1307
15119TIP3    H266849   2.149   4.745  16.609 -2.3751 -1.2444  0.6725
15120TIP3   OH266850   0.337   4.932  16.883 -0.3715 -0.0961  0.3509
15120TIP3    H166851   0.269   4.940  16.816 -0.5836  0.4483  0.6197
15120TIP3    H266852   0.417   4.914  16.834 -0.5700  0.0389 -0.0285
15121TIP3   OH266853   5.097   3.188  10.963  0.5482  0.9342 -0.0738
15121TIP3    H166854   5.075   3.250  10.893 -0.9423  1.5470  0.9063
15121TIP3    H266855   5.021   3.188  11.020  0.4600 -1.8695 -0.0637
15122TIP3   OH266856   6.022   4.885   5.300 -0.1441 -0.2156 -0.1974
15122TIP3    H166857   5.997   4.973   5.271 -0.6593 -0.3647 -0.2024
15122TIP3    H266858   6.039   4.896   5.394 -1.5160 -0.3803  0.0901
15123TIP3   OH266859   6.337   4.075   3.668  0.1218 -0.5757 -0.0986
15123TIP3    H166860   6.391   4.010   3.714  0.0743 -1.4690 -1.2669
15123TIP3    H266861   6.276   4.106   3.734  1.7727  0.1521  1.1594
15124TIP3   OH266862   6.343   2.567  15.210 -0.2131 -0.0471 -0.2790
15124TIP3    H166863   6.271   2.518  15.249 -1.0590  0.3734 -1.2880
15124TIP3    H266864   6.388   2.503  15.153  0.5865 -0.4621  0.7702
15125TIP3   OH266865   6.075   6.593  16.013 -0.2248 -0.2600  0.7472
15125TIP3    H166866   6.099   6.562  16.100 -1.6753 -0.4701  1.1016
15125TIP3    H266867   6.137   6.549  15.954  0.2917 -0.7088  1.6041
15126TIP3   OH266868   3.483   2.302  14.556 -0.5422 -0.2809  0.0109
15126TIP3    H166869   3.541   2.334  14.625  0.8781 -0.9672 -0.8134
15126TIP3    H266870   3.453   2.217  14.588  0.5142 -0.8268 -0.4075
15127TIP3   OH266871   6.338   3.791  11.125  0.5685  0.2517 -0.3150
15127TIP3    H166872   6.291   3.752  11.051  0.2711  0.9102 -0.4771
15127TIP3    H266873   6.388   3.718  11.163 -0.8144 -0.5428  0.0533
15128TIP3   OH266874   4.512   5.505  13.537 -0.0195  0.4533  0.2230
15128TIP3    H166875   4.568   5.494  13.461  0.3005 -1.4701  0.6902
15128TIP3    H266876   4.427   5.471  13.509 -0.1812  0.6985  0.4118
15129TIP3   OH266877   3.633   0.569   2.057 -0.3550  0.7909 -0.1619
15129TIP3    H166878   3.617   0.638   2.121  2.7456  1.1939  0.3195
15129TIP3    H266879   3.692   0.609   1.992 -1.1802 -0.4484 -1.7612
15130TIP3   OH266880   6.359   4.926  15.260  0.1863  0.3940  0.1888
15130TIP3    H166881   6.270   4.925  15.295  0.5046 -0.3755  1.0111
15130TIP3    H266882   6.376   4.835  15.235  0.9295  0.4224  0.5541
15131TIP3   OH266883   6.533   2.508  10.549  0.1275 -0.1031 -0.3202
15131TIP3    H166884   6.619   2.512  10.508  1.4235  2.0540  2.2379
15131TIP3    H266885   6.470   2.511  10.476  2.1465 -1.9830 -2.2696
15132TIP3   OH266886   6.824   2.926  15.399 -0.0337 -0.0130  0.2180
15132TIP3    H166887   6.802   2.916  15.307 -0.6839 -0.2354  0.3955
15132TIP3    H266888   6.796   2.844  15.440  1.7819 -0.6237  0.3427
15133TIP3   OH266889   3.381   2.772  14.599 -0.3021 -0.5842  0.9431
15133TIP3    H166890   3.290   2.761  14.572 -0.6724 -1.0155  2.2660
15133TIP3    H266891   3.394   2.866  14.601  0.0964 -0.5121 -1.7110
15134TIP3   OH266892   0.677   5.524  11.078  0.1715  0.2390  0.5464
15134TIP3    H166893   0.732   5.449  11.099 -0.8812 -0.2936  1.5166
15134TIP3    H266894   0.672   5.525  10.983 -1.1100 -1.9198  0.5239
15135TIP3   OH266895   2.771   0.879   0.347  0.0784 -0.3115  0.5015
15135TIP3    H166896   2.697   0.925   0.386 -0.3017 -0.1066 -0.4343
15135TIP3    H266897   2.771   0.793   0.390  1.1622  0.7248  2.7100
15136TIP3   OH266898   2.406   3.693   5.278  0.2456  0.2746  0.4198
15136TIP3    H166899   2.401   3.600   5.301 -0.2936  0.2466  0.1957
15136TIP3    H266900   2.452   3.695   5.195 -1.8003 -0.0041 -0.7959
15137TIP3   OH266901   1.999   3.114   2.698  0.4059  0.0597 -0.2159
15137TIP3    H166902   1.913   3.089   2.732 -0.3737  2.0685 -0.5244
15137TIP3    H266903   2.055   3.118   2.775 -0.9131  2.8870  0.7654
15138TIP3   OH266904   1.605   5.922   5.656 -0.6881  0.0799  0.0622
15138TIP3    H166905   1.655   5.896   5.578  0.4647  2.8693 -0.2297
15138TIP3    H266906   1.516   5.934   5.625 -0.4850  0.0245 -0.5521
15139TIP3   OH266907   0.551   0.006   1.808  0.0758  0.4543  0.2000
15139TIP3    H166908   0.503   0.053   1.741  1.0331 -0.7815 -1.4223
15139TIP3    H266909   0.553  -0.085   1.778  2.1284  0.1962  0.9373
15140TIP3   OH266910   2.121   6.428   5.669 -0.3930  0.1017  0.2746
15140TIP3    H166911   2.080   6.395   5.749  0.0555  2.0206  1.3713
15140TIP3    H266912   2.063   6.499   5.641 -1.0450 -1.1306 -1.6836
15141TIP3   OH266913   2.891   3.610   4.384  0.9318  0.2792  0.1144
15141TIP3    H166914   2.831   3.682   4.401  0.6076  0.6400 -2.1792
15141TIP3    H266915   2.955   3.646   4.322  2.1320 -0.7658  0.6997
15142TIP3   OH266916   5.882   6.259   1.075  0.3013 -0.7917 -0.1891
15142TIP3    H166917   5.835   6.312   1.011 -0.8199 -0.6509  0.7253
15142TIP3    H266918   5.858   6.169   1.055  0.3539 -0.7880 -0.2715
15143TIP3   OH266919   6.005   4.319  11.879  0.5390 -0.2980  0.8906
15143TIP3    H166920   6.100   4.307  11.875  0.6277  0.4796  0.5222
15143TIP3    H266921   5.994   4.395  11.936  0.1153 -0.6392  1.2642
15144TIP3   OH266922   1.275   3.768   1.927  0.7437 -0.5515 -0.0585
15144TIP3    H166923   1.359   3.737   1.892 -0.0730 -2.0089 -0.7908
15144TIP3    H266924   1.259   3.711   2.003  0.6765  0.1120  0.4355
15145TIP3   OH266925   1.650   3.881   0.139 -0.4068  0.2553 -0.1836
15145TIP3    H166926   1.740   3.851   0.153 -0.0971 -0.3645 -2.8773
15145TIP3    H266927   1.607   3.809   0.093 -1.9063  1.0473 -0.0900
15146TIP3   OH266928   1.577   0.818  14.880  0.1053 -0.6554 -0.5929
15146TIP3    H166929   1.532   0.791  14.959 -1.2044 -0.4443 -1.2430
15146TIP3    H266930   1.667   0.786  14.891  0.2036  0.1928  1.3697
15147TIP3   OH266931   2.721   2.519  13.256 -0.5641 -0.2730 -0.1798
15147TIP3    H166932   2.706   2.489  13.166  0.1326  2.2154 -1.1915
15147TIP3    H266933   2.809   2.556  13.254  0.1716 -1.7238  2.0231
15148TIP3   OH266934   4.214   1.292  10.674  0.1531  0.1406 -0.6253
15148TIP3    H166935   4.222   1.345  10.594  0.7651  0.4701 -0.3547
15148TIP3    H266936   4.273   1.218  10.660  1.0466  0.7322 -0.0672
15149TIP3   OH266937   4.466   2.513  12.744  0.2743 -0.3374  0.7436
15149TIP3    H166938   4.545   2.462  12.730  0.2604  0.0194 -0.7942
15149TIP3    H266939   4.495   2.590  12.793  0.4477 -1.3051  2.2504
15150TIP3   OH266940   4.966   0.766  11.356 -0.5951 -0.0299 -0.5685
15150TIP3    H166941   5.057   0.787  11.334 -0.3579  1.3846  1.4184
15150TIP3    H266942   4.974   0.703  11.429 -1.2067  0.0275 -0.4511
15151TIP3   OH266943   0.289   6.390   1.509  0.4678  0.4316 -0.3456
15151TIP3    H166944   0.217   6.427   1.458  0.9201  1.4015 -0.3027
15151TIP3    H266945   0.319   6.316   1.457 -0.6411 -0.0682 -0.2959
15152TIP3   OH266946   3.917   4.102  10.804 -0.5843 -0.2789  0.1792
15152TIP3    H166947   3.991   4.068  10.855 -0.7211  2.6314  2.5628
15152TIP3    H266948   3.955   4.167  10.746 -0.7738 -1.9364 -1.9457
15153TIP3   OH266949   3.936   6.329   1.711 -0.0389 -0.1158  0.5837
15153TIP3    H166950   4.015   6.337   1.765  0.2852  0.0333  0.0958
15153TIP3    H266951   3.910   6.420   1.694  1.6790 -0.0115 -2.1168
15154TIP3   OH266952   1.307   3.956   5.165 -0.1812 -0.0568 -0.1498
15154TIP3    H166953   1.367   4.011   5.114  0.2557  0.5198  0.9588
15154TIP3    H266954   1.221   3.997   5.155  0.1118  0.7614  0.5322
15155TIP3   OH266955   3.386   3.097  10.202  0.1166 -1.0056  0.0479
15155TIP3    H166956   3.431   3.175  10.172  0.5128 -0.6942  1.3829
15155TIP3    H266957   3.312   3.131  10.254 -0.3455 -1.5181 -0.2635
15156TIP3   OH266958   4.858   6.248  13.516 -0.0297 -0.6512  0.2299
15156TIP3    H166959   4.813   6.212  13.591  2.3693 -0.1679  2.0442
15156TIP3    H266960   4.934   6.191  13.504  0.7920  0.5278 -0.4053
15157TIP3   OH266961   6.686   3.190  16.857  0.2186  0.1069  0.1557
15157TIP3    H166962   6.614   3.223  16.804 -0.9516 -0.8902  1.0577
15157TIP3    H266963   6.701   3.260  16.921 -1.0122 -0.2770  0.9140
15158TIP3   OH266964   3.597   2.820  15.189  0.0838  0.1266 -0.2199
15158TIP3    H166965   3.503   2.802  15.197 -0.0061  0.7616  0.1518
15158TIP3    H266966   3.602   2.913  15.168  0.6217  0.0360 -0.4901
15159TIP3   OH266967   3.247   6.003   0.181 -0.0986  0.0346 -0.1898
15159TIP3    H166968   3.212   6.042   0.101 -0.2418  2.2482  0.8665
15159TIP3    H266969   3.289   5.922   0.152  0.8333  1.3020 -2.6942
15160TIP3   OH266970   0.002   0.686   6.093  0.6135 -0.1519  0.5552
15160TIP3    H166971   0.025   0.617   6.031  2.8574 -0.4002  1.5692
15160TIP3    H266972  -0.026   0.639   6.171 -0.1547  0.1390  0.4637
15161TIP3   OH266973   1.733   3.670   0.598 -0.3356 -0.0776  0.5509
15161TIP3    H166974   1.757   3.751   0.553 -0.4242  0.0794  0.7839
15161TIP3    H266975   1.704   3.612   0.528  0.1812 -0.0742  0.3285
15162TIP3   OH266976   1.635   1.762   4.340 -0.4818  0.2774  0.0787
15162TIP3    H166977   1.721   1.746   4.379 -1.1352  0.5328  1.6675
15162TIP3    H266978   1.655   1.784   4.249  0.9943 -1.5374 -0.1050
15163TIP3   OH266979   1.383   3.615  15.488  0.3089 -0.4142 -0.5932
15163TIP3    H166980   1.319   3.569  15.434 -0.3820  0.2886 -0.3807
15163TIP3    H266981   1.459   3.556  15.489 -0.9324 -2.0956  0.5629
15164TIP3   OH266982   1.894   0.679   3.963 -0.5215  0.0678  0.1706
15164TIP3    H166983   1.960   0.611   3.975 -0.6827 -0.2713 -0.7923
15164TIP3    H266984   1.811   0.637   3.986 -0.4900  0.3141  0.7739
15165TIP3   OH266985   0.386   1.378   3.817 -0.3482  0.6346  0.0332
15165TIP3    H166986   0.405   1.300   3.870 -0.3612  0.9587  0.5231
15165TIP3    H266987   0.348   1.440   3.879 -1.1087  0.7368 -0.5224
15166TIP3   OH266988   6.558   0.799   4.390 -0.3315  0.9651  0.0863
15166TIP3    H166989   6.467   0.809   4.363 -0.2986 -0.1861 -0.5085
15166TIP3    H266990   6.590   0.724   4.340  1.3675  2.2093 -0.7852
15167TIP3   OH266991   0.399   5.790  15.853  0.4680 -0.2755 -0.3649
15167TIP3    H166992   0.330   5.725  15.865  0.9128 -0.3986  1.9420
15167TIP3    H266993   0.355   5.874  15.866  0.4584 -0.2700 -0.4306
15168TIP3   OH266994   2.466   3.499  16.858 -0.1037  0.3771 -0.1181
15168TIP3    H166995   2.495   3.449  16.935  2.2975 -1.3893 -1.9809
15168TIP3    H266996   2.481   3.591  16.882 -0.0870 -0.0793  1.7608
15169TIP3   OH266997   5.528   6.812   5.893 -0.2231  0.0978  0.3768
15169TIP3    H166998   5.494   6.791   5.980  1.2722  0.9075  1.1861
15169TIP3    H266999   5.458   6.784   5.833 -0.4621 -2.3621  1.6800
15170TIP3   OH267000   0.638   4.283   5.318 -0.0376  0.1835  0.5515
15170TIP3    H167001   0.654   4.242   5.403 -1.2331  1.8929  1.6667
15170TIP3    H267002   0.548   4.315   5.323 -0.5896 -0.7682 -1.8720
15171TIP3   OH267003   6.221   3.321  12.554  0.4891 -0.0398  0.6735
15171TIP3    H167004   6.257   3.293  12.638  0.6101 -0.7702  0.3891
15171TIP3    H267005   6.242   3.249  12.494 -0.2554  0.1330  0.1944
15172TIP3   OH267006   1.183   5.791   3.125 -0.2192  0.2518 -0.3788
15172TIP3    H167007   1.109   5.768   3.181 -0.8191  0.6697 -0.9774
15172TIP3    H267008   1.169   5.883   3.103  1.2023  0.7258  0.5770
15173TIP3   OH267009   4.673   6.611  11.754  0.1989  0.1534  0.1246
15173TIP3    H167010   4.586   6.646  11.775 -1.0360 -1.4277 -1.9315
15173TIP3    H267011   4.661   6.516  11.756  1.5479 -0.0871 -1.4112
15174TIP3   OH267012   3.006   5.794   3.607 -0.1426  0.2985  0.2748
15174TIP3    H167013   3.018   5.713   3.558 -0.8467  0.3852 -0.0583
15174TIP3    H267014   2.960   5.852   3.547 -1.5886  0.1958  1.2386
15175TIP3   OH267015   6.577   1.029  14.308  0.0155  0.2175  0.1341
15175TIP3    H167016   6.505   0.972  14.337  0.2433 -0.2677 -0.2350
15175TIP3    H267017   6.551   1.055  14.219  0.2847  0.0590  0.0091
15176TIP3   OH267018   4.288   2.748  12.419  0.3147 -0.6009  0.2014
15176TIP3    H167019   4.361   2.779  12.473  0.8952  1.5327 -1.6304
15176TIP3    H267020   4.330   2.700  12.348 -0.4996 -4.4650  2.0555
15177TIP3   OH267021   0.582   1.247  12.375 -0.7462 -0.9603  0.0153
15177TIP3    H167022   0.653   1.182  12.378  1.0364  0.9000  1.0549
15177TIP3    H267023   0.620   1.321  12.327 -2.7774 -0.7000 -1.2874
15178TIP3   OH267024   3.781   1.713  13.877 -0.7160  0.3816  0.3021
15178TIP3    H167025   3.754   1.626  13.907  1.3227 -1.0563 -1.7632
15178TIP3    H267026   3.810   1.757  13.957 -1.4224 -0.9348  1.3378
15179TIP3   OH267027   0.734   5.725  10.665 -0.4226 -0.4817  0.2055
15179TIP3    H167028   0.657   5.783  10.671 -1.0238 -1.0448 -1.4946
15179TIP3    H267029   0.701   5.639  10.690 -1.1519 -1.3278 -3.1773
15180TIP3   OH267030   6.668   3.998  11.956 -0.1738 -0.5370 -0.0102
15180TIP3    H167031   6.593   3.947  11.927 -0.5081 -0.3781  0.5645
15180TIP3    H267032   6.660   4.082  11.910  0.7515 -1.2254 -1.4879
15181TIP3   OH267033   0.114   5.936   3.364 -0.3859 -0.4869 -0.0915
15181TIP3    H167034   0.042   5.875   3.378  0.8953 -2.4587 -1.6487
15181TIP3    H267035   0.096   5.975   3.279 -1.2395  1.4915  0.9240
15182TIP3   OH267036   4.569   0.475   2.983  0.4538  0.0144 -0.0527
15182TIP3    H167037   4.476   0.457   2.970  0.3533  0.0512  0.5625
15182TIP3    H267038   4.599   0.509   2.899  0.1190 -0.8515 -0.5326
15183TIP3   OH267039   1.187   4.998  11.921  0.4116  0.4597 -0.1843
15183TIP3    H167040   1.270   5.012  11.966  0.4807  0.5419 -0.3389
15183TIP3    H267041   1.179   4.903  11.915 -0.0817  0.4132  0.9106
15184TIP3   OH267042   2.915   2.671  16.138 -0.0816 -0.5334 -0.3586
15184TIP3    H167043   2.929   2.617  16.215  0.7992 -1.0159 -0.8400
15184TIP3    H267044   3.001   2.708  16.119 -0.3340 -0.2545 -0.9807
15185TIP3   OH267045   5.988   3.988   3.761  0.1125  0.5211 -0.2977
15185TIP3    H167046   6.050   4.049   3.800 -0.9834  0.0234  2.4171
15185TIP3    H267047   6.002   3.906   3.807 -3.2164  0.6642  1.2338
15186TIP3   OH267048   5.747   0.710  10.934 -0.0861  0.5284  0.0149
15186TIP3    H167049   5.837   0.690  10.961  0.3729 -0.5047 -2.0226
15186TIP3    H267050   5.739   0.804  10.946  1.2778  0.6461  0.2448
15187TIP3   OH267051   6.610   3.398   3.657 -0.7371 -0.1412  0.1466
15187TIP3    H167052   6.676   3.410   3.588 -1.7951 -1.6673 -1.2113
15187TIP3    H267053   6.613   3.305   3.677 -1.4139  0.0431  1.2038
15188TIP3   OH267054   2.618   1.448   5.548 -0.1170  0.7293  0.1543
15188TIP3    H167055   2.612   1.458   5.643  0.5147  1.8601  0.0890
15188TIP3    H267056   2.528   1.453   5.517 -0.5074 -1.3131  0.8176
15189TIP3   OH267057   1.917   2.399   3.269 -0.1010 -0.1249 -0.0515
15189TIP3    H167058   1.955   2.466   3.327  0.3950 -1.1628  0.8564
15189TIP3    H267059   1.939   2.428   3.181 -0.6170  1.3440  0.2663
15190TIP3   OH267060   2.160   3.850   3.487  0.0969 -0.2547  0.1770
15190TIP3    H167061   2.094   3.914   3.515 -1.2149 -2.0464  1.4753
15190TIP3    H267062   2.159   3.783   3.556  4.5849  0.4109  1.1921
15191TIP3   OH267063   0.711   0.273   5.395 -0.2801 -0.1190  0.2861
15191TIP3    H167064   0.739   0.364   5.395  0.1109 -0.0948 -3.2564
15191TIP3    H267065   0.616   0.277   5.391 -0.2316  0.2111 -0.8864
15192TIP3   OH267066   1.121   1.718   1.125  0.3590  0.7261  0.2736
15192TIP3    H167067   1.179   1.761   1.061  1.2113  1.7908  1.6977
15192TIP3    H267068   1.135   1.766   1.206 -1.1784 -0.1866  1.1254
15193TIP3   OH267069   0.991   3.145  12.271  0.1111  0.1263 -0.5816
15193TIP3    H167070   0.905   3.104  12.265  1.0598 -1.8704 -1.6959
15193TIP3    H267071   0.997   3.177  12.361 -1.1757 -1.1381 -0.0135
15194TIP3   OH267072   2.083   1.928  17.038 -0.2708 -0.3231 -0.1343
15194TIP3    H167073   2.106   1.883  17.119  1.0346  0.0093 -0.2950
15194TIP3    H267074   2.163   1.927  16.986 -0.7883  0.4053 -0.9796
15195TIP3   OH267075   6.014   3.528  10.747  0.1864  0.0918  0.1168
15195TIP3    H167076   5.941   3.475  10.779  0.2850 -0.0353  0.1308
15195TIP3    H267077   6.069   3.467  10.698  1.0081 -0.1109  1.2465
15196TIP3   OH267078   3.389   0.721  11.141  0.0565 -0.2107 -0.3062
15196TIP3    H167079   3.305   0.678  11.154  0.2718 -0.5025  0.1439
15196TIP3    H267080   3.366   0.810  11.115 -0.3886 -0.5960 -1.2770
15197TIP3   OH267081   2.488   4.115   4.614  0.6773  0.0540 -0.5229
15197TIP3    H167082   2.393   4.123   4.606  0.3842 -2.4747 -0.3874
15197TIP3    H267083   2.509   4.035   4.565  2.5934  0.0186  0.2960
15198TIP3   OH267084   6.202   3.269  15.954 -0.3860 -0.1564  0.4585
15198TIP3    H167085   6.124   3.261  15.900  0.1477 -1.7310 -0.1404
15198TIP3    H267086   6.170   3.268  16.044 -1.2426  1.9806  0.2354
15199TIP3   OH267087   3.077   0.753  16.251 -0.1234 -0.2814 -0.6278
15199TIP3    H167088   3.120   0.707  16.178  0.1074 -2.8324  0.9928
15199TIP3    H267089   2.984   0.733  16.240 -0.1363 -0.3162 -0.4496
15200TIP3   OH267090   0.437   5.774  12.832  0.4870 -0.5663  0.0314
15200TIP3    H167091   0.509   5.804  12.777  0.7934 -2.1016 -0.4518
15200TIP3    H267092   0.402   5.854  12.872 -0.2982  0.7503 -3.0217
15201TIP3   OH267093   5.707   5.672   0.192 -0.1987 -0.2417 -0.2207
15201TIP3    H167094   5.627   5.722   0.212  0.1486  0.7452 -1.1512
15201TIP3    H267095   5.713   5.606   0.261 -2.1421 -0.7301 -0.4574
15202TIP3   OH267096   0.443   1.887  14.553  0.4830 -0.1574  0.1524
15202TIP3    H167097   0.523   1.839  14.578 -0.4970 -2.1814 -0.3620
15202TIP3    H267098   0.456   1.975  14.588  2.1128 -0.9685  1.7707
15203TIP3   OH267099   2.018   6.686  14.882 -0.0545 -0.1572  0.2648
15203TIP3    H167100   2.005   6.727  14.796 -0.4093 -1.4723 -0.3379
15203TIP3    H267101   2.112   6.672  14.887  0.0543  0.5517  0.4121
15204TIP3   OH267102   4.000   6.166  12.532  0.2042 -0.7955 -0.4496
15204TIP3    H167103   3.980   6.220  12.608  1.0176 -0.6907 -0.3063
15204TIP3    H267104   3.915   6.148  12.492 -0.3120 -1.5421  0.9425
15205TIP3   OH267105   0.314   1.736   4.274 -0.8031  0.3608  0.0535
15205TIP3    H167106   0.313   1.798   4.347 -0.4591  1.4240 -0.8110
15205TIP3    H267107   0.404   1.740   4.241 -1.0924  0.3216 -0.7659
15206TIP3   OH267108   1.546   3.320  11.974 -0.1482  0.7220  0.1630
15206TIP3    H167109   1.638   3.313  11.950 -0.2219 -0.5151  0.1563
15206TIP3    H267110   1.544   3.292  12.066 -0.4698  1.0690  0.2615
15207TIP3   OH267111   4.598   2.171  14.644 -0.0808  0.4458  0.1067
15207TIP3    H167112   4.574   2.252  14.689  0.0997  0.9385 -0.6628
15207TIP3    H267113   4.557   2.102  14.696 -0.3359  1.0370  0.7091
15208TIP3   OH267114   1.779   4.324   4.397 -0.2046 -0.1743 -0.9930
15208TIP3    H167115   1.863   4.279   4.388  0.0678 -0.1001  0.7811
15208TIP3    H267116   1.714   4.254   4.395  0.1866 -0.6762  1.2871
15209TIP3   OH267117   0.553   5.848  15.219 -0.0281 -0.1718 -0.1062
15209TIP3    H167118   0.501   5.821  15.144 -0.5181 -2.2198  0.8916
15209TIP3    H267119   0.525   5.790  15.290 -0.4860  2.4860  2.0490
15210TIP3   OH267120   5.517   3.655   4.741  0.5514 -0.6916 -0.3512
15210TIP3    H167121   5.460   3.732   4.735  2.4656  0.7544 -0.8243
15210TIP3    H267122   5.496   3.604   4.663 -0.4848 -0.4825 -0.2262
15211TIP3   OH267123   6.418   0.979   2.585  0.0254  0.4037 -0.1399
15211TIP3    H167124   6.507   1.009   2.569 -0.3807  0.7163 -1.9755
15211TIP3    H267125   6.379   1.048   2.638  0.4923  0.8870 -0.4143
15212TIP3   OH267126   4.406   4.665  16.055  0.1476 -0.0282  0.0871
15212TIP3    H167127   4.366   4.580  16.070 -0.0355  0.1535  0.6605
15212TIP3    H267128   4.401   4.709  16.140  0.1475  0.5906 -0.2297
15213TIP3   OH267129   6.800   6.710  16.677 -0.2792 -0.2549 -0.3630
15213TIP3    H167130   6.776   6.779  16.615 -1.6561 -1.0042 -0.7334
15213TIP3    H267131   6.716   6.670  16.701  0.4051 -1.2162  0.5200
15214TIP3   OH267132   1.324   2.346   4.846 -0.7339  0.0994 -0.4056
15214TIP3    H167133   1.348   2.295   4.923 -1.1482 -0.4744 -0.6519
15214TIP3    H267134   1.333   2.284   4.773 -0.0866  0.7053 -0.8509
15215TIP3   OH267135   1.403   6.842   6.586 -0.1967 -0.5645 -0.1291
15215TIP3    H167136   1.315   6.821   6.553  0.5397 -0.7527 -2.0741
15215TIP3    H267137   1.426   6.767   6.640 -0.9235 -0.8663 -0.2202
15216TIP3   OH267138   0.338   0.586   2.660 -0.3545  0.6192 -0.1198
15216TIP3    H167139   0.249   0.591   2.695 -0.3066 -0.0718  0.1153
15216TIP3    H267140   0.326   0.558   2.569 -0.2935 -3.2328  0.8457
15217TIP3   OH267141   0.755   2.218   2.279 -0.2971 -0.2854 -0.5734
15217TIP3    H167142   0.799   2.279   2.219 -0.4131 -0.5185 -0.8991
15217TIP3    H267143   0.666   2.251   2.286 -0.4172 -0.5334 -0.9135
15218TIP3   OH267144   3.803   4.516  13.877  0.1073 -0.1435  0.2688
15218TIP3    H167145   3.744   4.480  13.943 -0.2897 -1.1184 -0.6010
15218TIP3    H267146   3.883   4.465  13.885  0.1774 -0.0423  0.2195
15219TIP3   OH267147   0.565   0.563  16.353 -0.2279  0.1202 -0.4363
15219TIP3    H167148   0.660   0.570  16.352 -0.2335  0.8020  1.1010
15219TIP3    H267149   0.535   0.634  16.295  0.1877  0.6402 -0.0254
15220TIP3   OH267150   1.571   3.352   2.004 -0.0673  0.6253  0.1728
15220TIP3    H167151   1.637   3.420   2.017  0.3361  0.4355 -0.7665
15220TIP3    H267152   1.585   3.322   1.914 -1.6837  0.8352 -0.1746
15221TIP3   OH267153   3.806   4.514   1.830  0.1757  0.6563 -0.3818
15221TIP3    H167154   3.843   4.466   1.904 -1.2252 -1.0364 -0.7099
15221TIP3    H267155   3.718   4.537   1.858  0.0883  1.1486 -1.0416
15222TIP3   OH267156   2.595   2.261  11.754  0.3369 -0.2238  0.2852
15222TIP3    H167157   2.514   2.223  11.787 -1.2743  1.6113 -1.2575
15222TIP3    H267158   2.595   2.239  11.661  0.8760  0.9570 -0.0157
15223TIP3   OH267159   1.190   1.590   5.053  0.8166  0.1919 -0.1703
15223TIP3    H167160   1.263   1.561   4.997  0.4716 -0.4326 -0.3102
15223TIP3    H267161   1.225   1.585   5.142  0.9199 -0.1894 -0.2313
15224TIP3   OH267162   1.713   3.150  12.916 -0.0491  0.1560  0.0392
15224TIP3    H167163   1.699   3.062  12.883  2.3141 -1.0800  1.9627
15224TIP3    H267164   1.663   3.154  12.997  0.0477  0.4934  0.0875
15225TIP3   OH267165   1.968   2.683  15.869  0.6178  0.1112 -0.2710
15225TIP3    H167166   1.903   2.708  15.935 -0.7987 -0.4399 -1.4144
15225TIP3    H267167   1.978   2.588  15.881  1.4046  0.2251  0.0448
15226TIP3   OH267168   1.664   0.694   2.185  0.2008  0.7562 -0.8113
15226TIP3    H167169   1.705   0.747   2.116 -0.1579  0.5496 -1.1858
15226TIP3    H267170   1.721   0.617   2.192  0.4485  0.9562 -0.6106
15227TIP3   OH267171   1.812   1.255  12.770  0.1973 -0.1076  0.1207
15227TIP3    H167172   1.855   1.251  12.684  0.9188  1.2281  0.3945
15227TIP3    H267173   1.719   1.257  12.749  0.3742  0.8141 -0.6939
15228TIP3   OH267174   5.352   3.556  14.346  0.4274 -0.6053 -0.1257
15228TIP3    H167175   5.410   3.556  14.422  2.2390  2.4316 -1.3567
15228TIP3    H267176   5.275   3.606  14.374  1.3584  1.0362 -0.3906
15229TIP3   OH267177   4.655   3.625   1.128 -0.0747  0.6531 -0.2613
15229TIP3    H167178   4.718   3.655   1.062  0.4171  0.3412  0.0593
15229TIP3    H267179   4.570   3.649   1.092  0.2874  2.5770  0.0574
15230TIP3   OH267180   6.487   3.578  14.490  0.0481 -0.1932  0.1179
15230TIP3    H167181   6.555   3.545  14.431 -0.6936 -0.7978 -0.4207
15230TIP3    H267182   6.535   3.622  14.560  0.9510  0.5455 -0.9366
15231TIP3   OH267183   1.436   3.091   2.637 -0.4092 -0.4336 -0.4773
15231TIP3    H167184   1.491   3.056   2.567  0.1366  1.1024 -0.8491
15231TIP3    H267185   1.405   3.175   2.604  2.1518  1.7434  2.1253
15232TIP3   OH267186   4.308   3.001  11.511 -0.7395 -0.1997  0.2477
15232TIP3    H167187   4.294   3.029  11.421 -1.4087 -2.0869 -0.2745
15232TIP3    H267188   4.246   3.054  11.562 -2.6876 -1.3419 -0.8201
15233TIP3   OH267189   2.888   3.656   2.083  0.2282  0.6715 -0.4502
15233TIP3    H167190   2.828   3.593   2.124  1.8323 -1.7812 -1.6563
15233TIP3    H267191   2.902   3.622   1.995  1.0054  2.8959 -1.2404
15234TIP3   OH267192   2.677   2.743  11.266  0.8036  0.0424  0.2104
15234TIP3    H167193   2.645   2.794  11.192  2.4833  0.8847  0.0282
15234TIP3    H267194   2.700   2.808  11.332  0.2275 -0.6543  1.1327
15235TIP3   OH267195   2.679   5.224   5.587  0.1918 -0.2774 -0.4110
15235TIP3    H167196   2.747   5.279   5.549  0.3611  1.2979  1.9954
15235TIP3    H267197   2.597   5.270   5.568  0.3316  0.8988  1.5833
15236TIP3   OH267198   1.101   1.832   1.803  0.3208  0.3768  0.1697
15236TIP3    H167199   1.097   1.742   1.833  0.7524  0.4163  0.3540
15236TIP3    H267200   1.063   1.830   1.716 -1.2459  0.3164  0.8315
15237TIP3   OH267201   6.255   3.757  13.259 -0.0651 -0.4141  0.2031
15237TIP3    H167202   6.200   3.724  13.330 -1.6871  0.4043 -0.6145
15237TIP3    H267203   6.321   3.689  13.245  0.7090 -0.2999  2.8977
15238TIP3   OH267204   2.267   5.895   1.550  0.4972  0.0407  0.3208
15238TIP3    H167205   2.329   5.968   1.538  1.2581 -0.6747 -0.2200
15238TIP3    H267206   2.227   5.885   1.463 -2.8680  2.6126  1.3488
15239TIP3   OH267207   6.829   0.934  12.348 -0.4875 -0.3374  0.1441
15239TIP3    H167208   6.888   1.003  12.318 -0.8061  0.3999  1.1763
15239TIP3    H267209   6.885   0.856  12.354 -0.1775 -0.2361 -1.2210
15240TIP3   OH267210   6.638   3.099  14.145  0.5056  0.7896  0.0029
15240TIP3    H167211   6.557   3.122  14.192 -0.7376  0.3598 -1.8426
15240TIP3    H267212   6.673   3.184  14.117  1.1371  1.0334  1.4602
15241TIP3   OH267213   5.385   5.920   3.927  0.2027 -0.1770 -0.1166
15241TIP3    H167214   5.459   5.957   3.879 -0.0818  2.5937  1.4009
15241TIP3    H267215   5.422   5.845   3.973  1.3810 -0.5050 -1.5309
15242TIP3   OH267216   4.415   6.361  13.168  0.5066 -0.2929 -0.0935
15242TIP3    H167217   4.450   6.432  13.221 -0.3556  1.2525 -1.4838
15242TIP3    H267218   4.322   6.381  13.159 -0.6403 -3.5579  2.4156
15243TIP3   OH267219   2.011   5.493  16.993  0.0706  0.5171  0.1011
15243TIP3    H167220   2.028   5.584  17.016  0.3173  0.5747 -0.3003
15243TIP3    H267221   1.941   5.466  17.053  0.1129  0.9165  0.3336
15244TIP3   OH267222   2.022   2.326  12.393 -0.3618  0.0594 -0.0573
15244TIP3    H167223   2.052   2.235  12.393 -0.1271  0.1376  0.3335
15244TIP3    H267224   2.098   2.376  12.362 -1.3331 -0.1497 -3.1276
15245TIP3   OH267225   0.076   0.422   6.086  0.3911  0.1272  0.8226
15245TIP3    H167226   0.022   0.346   6.061  0.3138  0.5296 -0.3217
15245TIP3    H267227   0.086   0.414   6.180  1.3717 -1.9687  0.6102
15246TIP3   OH267228   2.559   0.016   0.592 -0.2141  0.2562  0.5937
15246TIP3    H167229   2.647  -0.011   0.566 -0.8362  0.3426 -1.9279
15246TIP3    H267230   2.517  -0.065   0.620  0.4281  0.0828  1.0851
15247TIP3   OH267231   5.071   1.645   2.725 -0.4094 -0.1867  0.0525
15247TIP3    H167232   5.139   1.662   2.790 -1.0343  0.9174  0.4351
15247TIP3    H267233   5.015   1.579   2.766 -0.1028 -0.4116  0.1165
15248TIP3   OH267234   1.759   5.753   1.648 -0.4167 -0.5366  0.1103
15248TIP3    H167235   1.749   5.785   1.558  1.3728  1.6846  0.6065
15248TIP3    H267236   1.707   5.814   1.700 -3.2888 -3.0962  0.5174
15249TIP3   OH267237   5.152   4.761   2.814 -0.2191 -0.3111 -0.2677
15249TIP3    H167238   5.077   4.749   2.756  0.7676 -1.6131 -1.3291
15249TIP3    H267239   5.165   4.675   2.855  1.0163 -0.2697 -0.5251
15250TIP3   OH267240   5.221   0.209   4.018  0.6620 -0.7800  0.9608
15250TIP3    H167241   5.260   0.160   4.090  1.4192 -0.3486  0.8565
15250TIP3    H267242   5.128   0.191   4.024  1.0404 -3.3417  0.1072
15251TIP3   OH267243   4.488   3.761  16.931  0.3472 -0.0108  0.2868
15251TIP3    H167244   4.483   3.828  16.863  0.5781 -1.1503 -0.8998
15251TIP3    H267245   4.534   3.803  17.003 -0.6131  1.4903  0.0758
15252TIP3   OH267246   0.899   4.923  13.251 -0.1886 -0.4883 -0.1866
15252TIP3    H167247   0.822   4.867  13.252 -1.0761  0.6797  0.6596
15252TIP3    H267248   0.870   5.002  13.205  0.2875  0.2320  0.7192
15253TIP3   OH267249   2.126   4.642   0.174  0.0607 -0.5442 -0.3578
15253TIP3    H167250   2.151   4.659   0.265  2.8295  0.2126 -1.1519
15253TIP3    H267251   2.084   4.556   0.176 -0.6622 -0.1792  1.7218
15254TIP3   OH267252   3.974   2.471   1.892  0.6750 -0.1769 -0.3366
15254TIP3    H167253   3.911   2.542   1.900  0.3874 -0.4123 -0.5317
15254TIP3    H267254   4.057   2.515   1.871  1.0224  0.3168  1.8262
15255TIP3   OH267255   4.948   0.673   5.897  0.3375 -0.3626  0.8386
15255TIP3    H167256   4.962   0.600   5.957  0.6747 -1.0396 -0.0360
15255TIP3    H267257   4.860   0.704   5.918 -0.4847 -2.0873  0.1581
15256TIP3   OH267258   2.653   1.132  14.477  0.3755 -0.1070 -0.1354
15256TIP3    H167259   2.581   1.148  14.538  1.2436  1.2058  0.5902
15256TIP3    H267260   2.704   1.062  14.518 -0.4348 -1.0036 -0.6259
15257TIP3   OH267261   4.455   1.050  16.640 -0.6184 -0.3460 -0.1410
15257TIP3    H167262   4.496   1.136  16.653 -2.5065  0.4289  0.9831
15257TIP3    H267263   4.467   1.005  16.723 -1.3805 -0.4025 -0.0603
15258TIP3   OH267264   0.414   1.748   0.759 -0.1998  0.0035 -0.4300
15258TIP3    H167265   0.473   1.679   0.729 -1.6523 -0.5297 -2.2205
15258TIP3    H267266   0.373   1.712   0.838  0.7199 -0.2312 -0.0497
15259TIP3   OH267267   3.856   3.793   0.635 -0.4580  0.3342  0.1485
15259TIP3    H167268   3.774   3.821   0.594 -0.1664  0.3639 -0.4232
15259TIP3    H267269   3.920   3.792   0.563 -0.0317  0.0028  0.5251
15260TIP3   OH267270   0.767   2.316  16.618  0.6075 -0.0478  0.5193
15260TIP3    H167271   0.686   2.311  16.670  1.2085  2.0624  1.7780
15260TIP3    H267272   0.745   2.372  16.544  0.5926 -0.5177  0.1637
15261TIP3   OH267273   4.561   3.769   3.032  0.1437 -0.3294  0.1919
15261TIP3    H167274   4.531   3.773   3.123  1.1914  0.5276  0.5221
15261TIP3    H267275   4.594   3.857   3.014 -0.9388 -0.2190 -1.3418
15262TIP3   OH267276   2.492   0.606   2.161 -0.6313 -0.1163  0.2827
15262TIP3    H167277   2.425   0.549   2.123 -0.4978  0.2206 -0.4813
15262TIP3    H267278   2.575   0.565   2.138 -0.5302  0.4288 -0.3739
15263TIP3   OH267279   3.873   4.406   2.707  0.2583  0.5602  0.4324
15263TIP3    H167280   3.937   4.336   2.700 -0.4931 -0.0444 -0.8471
15263TIP3    H267281   3.797   4.366   2.749  0.0575  0.7850  0.2911
15264TIP3   OH267282   5.525   0.644   5.614  0.4756 -0.3947  0.1343
15264TIP3    H167283   5.617   0.646   5.586  0.0392 -1.8760 -1.5728
15264TIP3    H267284   5.476   0.679   5.539 -0.3781  0.4767  1.0639
15265TIP3   OH267285   1.339   1.076  15.183 -0.9638  0.2241 -0.0956
15265TIP3    H167286   1.370   1.078  15.092 -1.1467 -0.5845 -0.1872
15265TIP3    H267287   1.288   0.995  15.188  0.1756 -0.4313  1.1083
15266TIP3   OH267288   0.800   0.067  15.548  0.2856 -0.1965  0.4924
15266TIP3    H167289   0.721   0.043  15.500  0.1411  1.1427  0.0369
15266TIP3    H267290   0.778   0.052  15.640 -0.2919 -0.3989  0.3232
15267TIP3   OH267291   1.355   1.242   5.399  0.1250  0.0790  0.5331
15267TIP3    H167292   1.340   1.262   5.306 -1.8717  0.2788  0.8697
15267TIP3    H267293   1.435   1.189   5.399  0.0902 -0.0449 -1.3083
15268TIP3   OH267294   2.188   4.081   4.638  0.7850  0.6582  0.3806
15268TIP3    H167295   2.154   4.028   4.710 -0.0542  1.6027  0.6915
15268TIP3    H267296   2.191   4.020   4.564 -0.8305  0.3070  0.5496
15269TIP3   OH267297   3.912   2.079   2.951  0.2455  0.0425  0.0157
15269TIP3    H167298   3.982   2.126   2.905  0.9802 -1.5369 -0.5731
15269TIP3    H267299   3.937   1.986   2.943 -1.6085 -0.5222  0.3181
15270TIP3   OH267300   2.590   3.681   0.827 -0.2651  0.1301  0.0169
15270TIP3    H167301   2.520   3.615   0.825 -0.0258 -0.1504  0.7158
15270TIP3    H267302   2.645   3.660   0.752 -1.5109  1.0061 -1.1941
15271TIP3   OH267303   0.613   2.656   5.462 -0.7805  0.1628  0.3867
15271TIP3    H167304   0.667   2.709   5.403 -0.5543  1.9427  2.1180
15271TIP3    H267305   0.625   2.566   5.430  1.2783  0.7725 -0.7728
15272TIP3   OH267306   4.855   0.866   0.913 -0.4089  0.1246 -0.2424
15272TIP3    H167307   4.784   0.857   0.977  0.9453  1.6781  1.5937
15272TIP3    H267308   4.811   0.892   0.832 -1.9132  1.8130  1.0313
15273TIP3   OH267309   2.318   4.533   2.984  0.7833  0.1012 -0.4425
15273TIP3    H167310   2.271   4.557   3.064  1.4503  2.1928 -0.6241
15273TIP3    H267311   2.274   4.453   2.954 -0.5127  0.1598  1.1381
15274TIP3   OH267312   1.518   4.237  16.952 -0.0745 -0.3764  0.0010
15274TIP3    H167313   1.551   4.297  16.885  0.5474  0.6132  1.1331
15274TIP3    H267314   1.579   4.247  17.025  0.8708 -3.4762 -0.2535
15275TIP3   OH267315   0.042   1.769   3.884 -0.0315 -0.5529 -0.2689
15275TIP3    H167316   0.065   1.820   3.961  0.4887 -1.4528  0.1890
15275TIP3    H267317   0.028   1.680   3.917  1.3017 -1.1958 -1.3382
15276TIP3   OH267318   4.705   4.222   4.239 -0.3557  0.3035 -0.0516
15276TIP3    H167319   4.710   4.299   4.183 -1.8083  0.7986  0.4632
15276TIP3    H267320   4.616   4.189   4.226  0.3459 -1.5274 -0.5488
15277TIP3   OH267321   6.352   1.021   0.084  0.4482  0.5251  0.6054
15277TIP3    H167322   6.404   1.025   0.004 -0.8876 -3.4186 -0.7309
15277TIP3    H267323   6.393   0.952   0.136  0.1386  1.6764  2.4672
15278TIP3   OH267324   4.508   4.720  11.269  0.6620  0.4732  0.8116
15278TIP3    H167325   4.462   4.770  11.337  1.1656  1.2888  0.5688
15278TIP3    H267326   4.582   4.776  11.244  1.7885 -0.7844  1.1756
15279TIP3   OH267327   3.126   5.481  16.716 -0.3107  0.3058  0.0435
15279TIP3    H167328   3.127   5.572  16.747 -0.3640  0.4582 -0.4002
15279TIP3    H267329   3.141   5.487  16.622 -1.2722 -0.0732 -0.1480
15280TIP3   OH267330   2.931   1.829   5.325  0.1776  0.4485  0.9697
15280TIP3    H167331   2.849   1.860   5.288  0.0415  0.8135  1.5649
15280TIP3    H267332   2.910   1.743   5.361  0.8684 -1.0418 -1.8779
15281TIP3   OH267333   0.705   2.072  11.108 -0.2085  0.4355 -0.3366
15281TIP3    H167334   0.689   2.149  11.161 -0.9314 -0.3811  0.6759
15281TIP3    H267335   0.622   2.023  11.110 -0.6891  0.9179 -3.1944
15282TIP3   OH267336   3.242   5.517   3.651  0.1376  0.8734 -0.4379
15282TIP3    H167337   3.298   5.571   3.706  1.4579 -1.0009  0.1667
15282TIP3    H267338   3.244   5.560   3.565  1.7426  1.3944 -0.1804
15283TIP3   OH267339   3.819   6.382  15.836 -0.7075 -0.4587  0.1030
15283TIP3    H167340   3.839   6.329  15.914 -0.9257 -0.5348  0.1075
15283TIP3    H267341   3.732   6.417  15.853 -1.2155 -1.3596 -0.5894
15284TIP3   OH267342   1.071   2.801  16.393  0.4328  0.1238  0.2196
15284TIP3    H167343   1.144   2.857  16.419  0.3220  0.5323 -0.3276
15284TIP3    H267344   1.023   2.853  16.328  0.1641 -0.4904 -0.0824
15285TIP3   OH267345   4.108   2.312  17.052 -0.5679 -0.5404 -0.7092
15285TIP3    H167346   4.184   2.292  16.998 -1.0024 -0.1930 -1.4592
15285TIP3    H267347   4.090   2.405  17.037  0.8514  0.2997  2.0095
15286TIP3   OH267348   0.724   4.165   2.848  0.1687 -0.1064  0.0183
15286TIP3    H167349   0.689   4.209   2.771  0.5043 -0.2685 -0.2334
15286TIP3    H267350   0.819   4.160   2.831  0.1456 -0.8448  0.0789
15287TIP3   OH267351   1.290   1.478   3.393 -0.7181 -0.3960 -0.3027
15287TIP3    H167352   1.229   1.551   3.403  0.3649  0.6007 -0.6206
15287TIP3    H267353   1.276   1.424   3.470 -1.8098 -0.0476 -0.2477
15288TIP3   OH267354   0.987   2.229  16.242 -0.5478  0.5748  0.2480
15288TIP3    H167355   1.075   2.229  16.205 -0.3757  0.5934  0.6533
15288TIP3    H267356   0.997   2.269  16.328 -0.8943  0.2640  0.4350
15289TIP3   OH267357   6.716   1.372   3.874  0.3495  0.3460 -0.2155
15289TIP3    H167358   6.674   1.286   3.872  1.3705 -0.1792  0.2836
15289TIP3    H267359   6.646   1.433   3.850 -0.7169 -0.4942  0.6101
15290TIP3   OH267360   3.688   1.396  16.783 -0.1878  0.1059 -0.1986
15290TIP3    H167361   3.704   1.305  16.757  3.1283  0.4716  0.1785
15290TIP3    H267362   3.662   1.390  16.875  4.4227 -0.4257  1.3181
15291TIP3   OH267363   5.636   6.380   4.909  0.7528 -0.2474 -0.5958
15291TIP3    H167364   5.667   6.290   4.914 -1.2940 -1.0136 -0.6542
15291TIP3    H267365   5.567   6.385   4.975  2.0244  1.8351  0.6890
15292TIP3   OH267366   5.370   1.647   6.296  0.3040 -0.2375 -0.2736
15292TIP3    H167367   5.385   1.566   6.344 -1.0855 -0.2905  0.1079
15292TIP3    H267368   5.455   1.692   6.298  1.0301 -1.5499 -0.2759
15293TIP3   OH267369   3.209   6.257   4.253  0.1018  0.4226 -0.1127
15293TIP3    H167370   3.143   6.322   4.229 -4.1637 -2.7057  1.9436
15293TIP3    H267371   3.189   6.235   4.344  1.7308 -3.3003 -0.4859
15294TIP3   OH267372   2.162   2.535  10.523 -0.2141  0.0669  0.4866
15294TIP3    H167373   2.225   2.467  10.500 -0.3160 -0.4791  1.7497
15294TIP3    H267374   2.086   2.516  10.468  0.7374  0.8528 -1.1940
15295TIP3   OH267375   0.322   0.958   4.243  0.0858  0.0154  0.4223
15295TIP3    H167376   0.298   0.980   4.333 -1.7588  0.7876 -0.1995
15295TIP3    H267377   0.321   1.042   4.197  2.7507 -0.0988 -0.0201
15296TIP3   OH267378   1.874   6.350  11.408  0.2208 -0.2447 -0.5904
15296TIP3    H167379   1.786   6.386  11.399  0.1435 -0.1865  0.2616
15296TIP3    H267380   1.897   6.318  11.321 -0.4696  0.1333 -0.9150
15297TIP3   OH267381   0.494   4.894   5.456  0.1878  0.2100 -0.3228
15297TIP3    H167382   0.559   4.826   5.443  3.0714  2.1917  2.3462
15297TIP3    H267383   0.412   4.846   5.469  1.7314 -2.6285 -0.2436
15298TIP3   OH267384   6.028   2.888  14.876  0.2527 -0.0613 -0.4408
15298TIP3    H167385   6.074   2.830  14.937  1.7092  0.7271 -0.7292
15298TIP3    H267386   5.991   2.829  14.811  0.9459 -0.7389 -0.2412
15299TIP3   OH267387   2.756   2.571   5.583  0.3612 -0.2935 -0.5070
15299TIP3    H167388   2.715   2.630   5.647  2.4768 -0.1489  0.8145
15299TIP3    H267389   2.753   2.485   5.625  1.3210 -0.2881 -0.4106
15300TIP3   OH267390   2.473   3.441   1.803 -0.4229 -0.2608  0.6733
15300TIP3    H167391   2.479   3.348   1.780 -0.1459 -0.1105  0.1223
15300TIP3    H267392   2.550   3.481   1.762 -1.4472  0.5133 -0.5797
15301TIP3   OH267393   3.757   2.940  13.109  0.2859 -0.0079 -0.1738
15301TIP3    H167394   3.815   2.939  13.033  0.9893  0.1436  0.3543
15301TIP3    H267395   3.669   2.930  13.072  0.6396 -0.1886 -0.9845
15302TIP3   OH267396   6.359   3.221   3.333  0.1932  0.1631 -0.1079
15302TIP3    H167397   6.392   3.268   3.256 -0.5456  0.3625 -0.3071
15302TIP3    H267398   6.340   3.289   3.397  0.5402  0.0166  0.1566
15303TIP3   OH267399   5.166   3.781  14.671  0.2641 -0.1809  0.5582
15303TIP3    H167400   5.116   3.703  14.696  0.3044  0.1254  1.6293
15303TIP3    H267401   5.220   3.800  14.747  2.2624 -0.6713 -0.6539
15304TIP3   OH267402   2.059   4.658  11.681  0.5492 -0.8429  0.2834
15304TIP3    H167403   2.002   4.731  11.706  1.0354 -0.2478 -0.3062
15304TIP3    H267404   2.068   4.666  11.586 -0.2807 -2.3382  0.0615
15305TIP3   OH267405   1.184   5.171   3.478 -0.0592  0.1574 -0.6220
15305TIP3    H167406   1.210   5.201   3.391 -1.1437 -3.0474 -2.2360
15305TIP3    H267407   1.237   5.093   3.493 -1.3852 -0.5501  0.6391
15306TIP3   OH267408   0.497   2.356  16.724 -0.0855  0.2311  0.0327
15306TIP3    H167409   0.453   2.322  16.646 -0.3216 -0.8662  0.6331
15306TIP3    H267410   0.426   2.382  16.783  0.0700  2.1835 -0.5461
15307TIP3   OH267411   5.979   0.032  14.173  0.1933 -0.0020  0.0808
15307TIP3    H167412   6.010   0.009  14.260 -0.0873  1.5760  0.6424
15307TIP3    H267413   6.027   0.112  14.150 -1.1894  0.7673 -0.3187
15308TIP3   OH267414   2.578   3.686  13.193 -0.1447  0.4583  0.3208
15308TIP3    H167415   2.568   3.718  13.103  0.1684  1.4570  0.6294
15308TIP3    H267416   2.618   3.600  13.183  0.6130  0.8860 -0.4796
15309TIP3   OH267417   2.719   2.244   0.076  0.0159 -0.0794 -0.6875
15309TIP3    H167418   2.682   2.212  -0.007 -0.6571  1.9324 -1.2005
15309TIP3    H267419   2.783   2.177   0.100 -2.9367 -3.0693 -0.4537
15310TIP3   OH267420   5.682   4.605   2.578 -0.5918 -0.1855 -0.3992
15310TIP3    H167421   5.746   4.649   2.521 -0.2964 -1.6947 -1.3074
15310TIP3    H267422   5.652   4.673   2.638  1.1414  0.8023 -0.5881
15311TIP3   OH267423   0.709   1.233   5.676  0.0903 -0.3605  0.6269
15311TIP3    H167424   0.684   1.193   5.759 -0.3169 -1.4265  0.0019
15311TIP3    H267425   0.626   1.252   5.632  0.3048  0.1257  0.4259
15312TIP3   OH267426   4.472   5.060  11.111 -0.0682  0.6167  0.6508
15312TIP3    H167427   4.553   5.020  11.141 -0.1437  1.3706  1.9199
15312TIP3    H267428   4.501   5.138  11.062  0.0188 -0.1119 -0.4954
15313TIP3   OH267429   0.545   4.158   2.026 -0.1368 -0.6553 -0.3953
15313TIP3    H167430   0.565   4.226   1.961 -1.5826  0.0394 -0.1515
15313TIP3    H267431   0.464   4.187   2.067 -0.6911 -2.4438 -0.1469
15314TIP3   OH267432   0.520   1.299   1.556  0.1882 -0.0356 -0.5798
15314TIP3    H167433   0.499   1.215   1.596 -1.3712  0.1903 -0.8683
15314TIP3    H267434   0.477   1.296   1.470 -1.6674  1.8071  0.1947
15315TIP3   OH267435   0.648   2.462   1.805 -0.0812 -0.1801  0.2684
15315TIP3    H167436   0.693   2.378   1.794  0.3711  0.3068 -2.5189
15315TIP3    H267437   0.719   2.526   1.808 -0.4808  0.2667  0.2028
15316TIP3   OH267438   3.091   6.067  10.952  0.1548 -0.3287 -0.7445
15316TIP3    H167439   3.051   6.103  10.873  2.1689 -0.9263 -2.1349
15316TIP3    H267440   3.107   5.975  10.930  1.0428 -0.4252  0.2289
15317TIP3   OH267441   5.129   5.303  10.858  0.4026  0.2360 -0.0032
15317TIP3    H167442   5.158   5.213  10.851  1.0222  0.3895  0.4481
15317TIP3    H267443   5.048   5.307  10.808 -0.4979 -0.9532  1.3227
15318TIP3   OH267444   0.522   4.626  12.390  0.3173  0.1338 -0.5071
15318TIP3    H167445   0.494   4.699  12.334  3.5352  1.2090 -0.9128
15318TIP3    H267446   0.449   4.613  12.451 -1.9802  1.0548 -2.8663
15319TIP3   OH267447   2.109   5.246   0.456  0.1280 -0.1838  0.0374
15319TIP3    H167448   2.170   5.316   0.434  1.3178 -1.6307 -1.6019
15319TIP3    H267449   2.038   5.255   0.393 -0.8718  0.8748  1.2805
15320TIP3   OH267450   4.998   4.215   3.917 -0.2826 -0.5241 -0.2475
15320TIP3    H167451   4.946   4.144   3.879 -0.3417 -1.1721  0.9862
15320TIP3    H267452   4.987   4.205   4.012  0.8507  0.2659 -0.0100
15321TIP3   OH267453   3.376   4.122  14.674  0.0841 -0.4068 -0.5323
15321TIP3    H167454   3.424   4.047  14.638  0.7739 -0.0649 -0.3297
15321TIP3    H267455   3.435   4.160  14.738 -0.1183  0.5323 -0.8901
15322TIP3   OH267456   4.166   0.489  15.646  0.2184 -0.2290  0.0240
15322TIP3    H167457   4.260   0.507  15.651  1.2504 -4.1702 -1.6316
15322TIP3    H267458   4.142   0.516  15.557  0.2747 -0.9940 -0.2293
15323TIP3   OH267459   6.657   4.905   3.363  0.0100  0.0284 -0.7745
15323TIP3    H167460   6.625   4.837   3.304 -0.6087  0.6889 -1.2155
15323TIP3    H267461   6.628   4.878   3.450  0.5838 -0.7476 -0.8120
15324TIP3   OH267462   5.770   0.777  11.681  0.3722  0.0050  0.5743
15324TIP3    H167463   5.692   0.722  11.668 -0.0656  0.5584  0.8171
15324TIP3    H267464   5.758   0.850  11.620  0.7460  0.0482  0.5493
15325TIP3   OH267465   3.239   4.311   1.123  0.1309 -0.2688 -0.0725
15325TIP3    H167466   3.163   4.280   1.172  0.2790  0.4092  0.6020
15325TIP3    H267467   3.240   4.406   1.138  2.0253 -0.4456  1.2660
15326TIP3   OH267468   1.911   3.486  13.930 -0.0593  0.3760 -0.4597
15326TIP3    H167469   1.859   3.558  13.966 -1.1442 -1.6592  2.3400
15326TIP3    H267470   1.988   3.481  13.987  0.6473  0.0716 -1.4121
15327TIP3   OH267471   5.460   0.056  12.397 -0.0130  0.5186  0.1786
15327TIP3    H167472   5.455  -0.039  12.412 -1.8238  0.6441  0.6058
15327TIP3    H267473   5.389   0.074  12.336 -1.0032  1.8783  1.6731
15328TIP3   OH267474   6.811   2.655  14.386  0.1539  0.3973  0.6825
15328TIP3    H167475   6.805   2.739  14.341  0.8312 -0.1243 -0.4290
15328TIP3    H267476   6.721   2.634  14.410 -0.3317  0.4314 -0.9752
15329TIP3   OH267477   2.546   4.310  15.370  0.0853 -0.0669 -0.1829
15329TIP3    H167478   2.639   4.303  15.390  0.2478 -0.5177 -1.0522
15329TIP3    H267479   2.538   4.393  15.323  0.0424 -0.0097 -0.0745
15330TIP3   OH267480   1.794   3.372  11.847  0.3726  0.2037 -0.4262
15330TIP3    H167481   1.787   3.468  11.839  0.6293  0.1956 -0.7961
15330TIP3    H267482   1.886   3.357  11.870 -0.3121  0.2129  2.6210
15331TIP3   OH267483   2.602   5.939   3.064 -0.1098  1.0957  0.3280
15331TIP3    H167484   2.667   5.979   3.121 -1.1432  1.1408  1.5177
15331TIP3    H267485   2.597   5.997   2.988  0.9359  1.2941  0.4005
15332TIP3   OH267486   1.528   0.081   5.743 -0.4534  0.4172 -0.4866
15332TIP3    H167487   1.442   0.110   5.773 -1.6987 -1.2481 -2.2425
15332TIP3    H267488   1.527  -0.014   5.755  1.6372  0.4734  0.5732
15333TIP3   OH267489   0.486   4.069   0.709  0.1705 -0.1990  0.2811
15333TIP3    H167490   0.458   4.036   0.623  1.5564  0.1031 -0.3228
15333TIP3    H267491   0.409   4.114   0.744 -0.2238  0.2876 -1.1311
15334TIP3   OH267492   3.440   3.741   1.070 -0.6160 -0.0885  0.2625
15334TIP3    H167493   3.349   3.710   1.068 -0.9338  0.7990  0.3968
15334TIP3    H267494   3.440   3.818   1.013 -0.1249  0.3680  0.8667
15335TIP3   OH267495   3.307   0.577   5.026  0.3207 -0.5577 -0.2467
15335TIP3    H167496   3.281   0.602   4.937 -0.1236 -0.9541 -0.2271
15335TIP3    H267497   3.289   0.655   5.079 -0.7736 -0.7897 -0.2457
15336TIP3   OH267498   5.828   5.488   0.871 -0.0493 -0.0688  0.4798
15336TIP3    H167499   5.831   5.460   0.963 -0.2894 -0.1510  0.4636
15336TIP3    H267500   5.756   5.438   0.833 -0.7586  0.8708  0.5541
15337TIP3   OH267501   6.738   0.916  15.255  0.1276 -0.6834 -0.9599
15337TIP3    H167502   6.733   0.963  15.172  3.5163 -2.6356 -2.4623
15337TIP3    H267503   6.744   0.824  15.230 -0.7016 -1.5204  1.5967
15338TIP3   OH267504   1.403   5.892  17.002 -0.4297 -0.8073  0.1062
15338TIP3    H167505   1.324   5.939  16.975 -1.2778 -1.3394  1.5369
15338TIP3    H267506   1.475   5.938  16.960 -1.3347  1.0252  0.4923
15339TIP3   OH267507   2.597   3.522   3.565  0.1749 -0.4479 -0.2239
15339TIP3    H167508   2.672   3.546   3.512  0.0836 -0.7123 -0.4793
15339TIP3    H267509   2.631   3.457   3.627  0.4969  0.5498  0.6877
15340TIP3   OH267510   0.446   1.298   4.525  0.0423  0.2757  0.2277
15340TIP3    H167511   0.414   1.317   4.614  1.2143 -0.1861  0.7675
15340TIP3    H267512   0.450   1.384   4.483 -1.0686  0.4375  0.4220
15341TIP3   OH267513   0.414   6.686   2.541 -0.1931  0.3179  0.2453
15341TIP3    H167514   0.387   6.686   2.449 -1.6215  1.6443  0.6220
15341TIP3    H267515   0.508   6.703   2.539 -0.3027  0.8400 -0.9530
15342TIP3   OH267516   5.738   6.635   1.899 -0.4582 -0.6398  0.2023
15342TIP3    H167517   5.644   6.627   1.878 -0.6550 -0.4649  0.9866
15342TIP3    H267518   5.745   6.606   1.990  0.3782 -1.3978 -0.0932
15343TIP3   OH267519   4.244   6.123   0.085 -0.0800 -0.0488 -0.0293
15343TIP3    H167520   4.245   6.216   0.109  0.6708 -0.5615  2.2720
15343TIP3    H267521   4.151   6.098   0.091 -0.1514  0.3129  0.5481
15344TIP3   OH267522   0.830   3.764  16.770 -0.2006  0.7321 -0.3624
15344TIP3    H167523   0.873   3.702  16.711  1.8356  0.4132  1.3219
15344TIP3    H267524   0.767   3.811  16.715  0.9454 -0.1640 -2.5402
15345TIP3   OH267525   0.660   3.161  15.767 -0.1003  0.0337 -0.3962
15345TIP3    H167526   0.678   3.242  15.813  1.1150 -0.6217  0.3372
15345TIP3    H267527   0.703   3.171  15.682  2.1739 -0.7130  0.5761
15346TIP3   OH267528   3.954   0.374  13.715 -0.0183 -0.3548  0.1551
15346TIP3    H167529   3.886   0.309  13.697  0.1619 -0.6093  0.3935
15346TIP3    H267530   3.987   0.351  13.802  0.2917 -0.1626  0.0889
15347TIP3   OH267531   5.079   4.445  11.365 -0.0206  0.3150 -0.3871
15347TIP3    H167532   5.125   4.392  11.300  2.1749  1.8309 -0.1777
15347TIP3    H267533   4.995   4.400  11.378 -0.5242 -0.1361 -4.0963
15348TIP3   OH267534   1.642   1.341   5.396 -0.0040  0.5658 -0.3253
15348TIP3    H167535   1.653   1.321   5.489 -1.8558  2.0705  0.2685
15348TIP3    H267536   1.612   1.432   5.394  2.5729  1.5195 -2.5755
15349TIP3   OH267537   3.602   0.937   3.132  0.5718 -0.1547  0.7328
15349TIP3    H167538   3.570   0.961   3.219 -1.8393 -0.2261 -0.0488
15349TIP3    H267539   3.634   1.019   3.094 -1.7871  0.6866  0.3908
15350TIP3   OH267540   4.439   4.270   1.716 -0.1590  0.2935  0.1081
15350TIP3    H167541   4.524   4.240   1.684  0.3813  0.7604  1.0599
15350TIP3    H267542   4.428   4.356   1.676 -1.2213 -0.6540 -1.7719
15351TIP3   OH267543   1.409   2.573  12.616  0.2145  0.4151  0.4487
15351TIP3    H167544   1.469   2.579  12.541  0.8995  1.0562  1.0260
15351TIP3    H267545   1.355   2.651  12.610 -1.9855 -1.1290 -1.2025
15352TIP3   OH267546   6.793   0.904   4.099  0.5441  0.3262 -0.5851
15352TIP3    H167547   6.789   0.926   4.006  2.4028  1.6751 -0.3914
15352TIP3    H267548   6.881   0.869   4.112  0.6725  1.1057  0.8460
15353TIP3   OH267549   0.249   0.577   4.923  0.4129 -0.0978  0.3311
15353TIP3    H167550   0.155   0.591   4.913  0.5912  0.0071 -1.4529
15353TIP3    H267551   0.274   0.633   4.997 -0.7365  0.6720  0.1536
15354TIP3   OH267552   4.523   1.635  10.374  0.1052  0.0065  0.2896
15354TIP3    H167553   4.607   1.610  10.412 -0.7596 -0.2639  2.1148
15354TIP3    H267554   4.526   1.730  10.370  0.9569 -0.0434 -0.8291
15355TIP3   OH267555   2.511   5.524  12.773 -0.4895 -0.0671  0.6077
15355TIP3    H167556   2.542   5.444  12.815  0.9734  0.7894  1.2257
15355TIP3    H267557   2.485   5.580  12.846 -0.8492  0.2875  0.2113
15356TIP3   OH267558   3.344   4.437   4.299  0.2169 -0.6379 -0.5048
15356TIP3    H167559   3.365   4.364   4.356  0.9852  0.0651  0.1302
15356TIP3    H267560   3.383   4.514   4.341  0.1487  0.0174 -1.5758
15357TIP3   OH267561   0.373   3.097   2.181 -0.1944 -0.0783 -0.5598
15357TIP3    H167562   0.280   3.115   2.191 -0.3299 -0.4579 -1.1430
15357TIP3    H267563   0.391   3.028   2.245  0.2000  1.5905  1.2472
15358TIP3   OH267564   5.152   3.113  17.051  0.8462  0.3882 -0.5665
15358TIP3    H167565   5.216   3.094  16.982  0.7407  1.6101 -1.0423
15358TIP3    H267566   5.173   3.052  17.121  1.8928  0.0906 -1.1096
15359TIP3   OH267567   0.379   0.088   1.635 -0.5303 -0.0327  0.1205
15359TIP3    H167568   0.342   0.012   1.590 -2.4955  0.3190  0.9915
15359TIP3    H267569   0.321   0.102   1.710  1.3733  0.6847  1.5527
15360TIP3   OH267570   1.848   3.093  16.082 -0.0160  0.2279 -0.6588
15360TIP3    H167571   1.831   3.146  16.004 -0.2634  0.3894 -0.4987
15360TIP3    H267572   1.941   3.074  16.079 -0.3909 -1.7086 -2.2189
15361TIP3   OH267573   5.876   1.002   3.327 -0.4267  0.0324  0.5740
15361TIP3    H167574   5.790   0.983   3.364 -1.5086  0.0950 -1.7725
15361TIP3    H267575   5.891   0.933   3.263  0.5512  0.9111 -0.1764
15362TIP3   OH267576   2.110   4.715  14.666  0.1472 -0.2464  0.4032
15362TIP3    H167577   2.122   4.652  14.595  1.3883 -0.2648  0.6041
15362TIP3    H267578   2.173   4.784  14.647 -1.3675  1.0947  0.0479
15363TIP3   OH267579   0.913   1.915   3.686  0.0210 -0.2389 -0.0107
15363TIP3    H167580   0.884   1.986   3.628 -0.2483 -0.4628 -0.1567
15363TIP3    H267581   0.931   1.842   3.627  2.0181  0.2221 -0.0482
15364TIP3   OH267582   3.960   5.668  13.427 -0.4591  0.6696  0.1877
15364TIP3    H167583   3.973   5.573  13.430  1.2332  0.8715  0.1377
15364TIP3    H267584   3.953   5.694  13.519 -1.4598  0.4516  0.1855
15365TIP3   OH267585   0.800   1.675  14.815  0.8403 -0.2121  0.3077
15365TIP3    H167586   0.852   1.602  14.783 -0.1033 -1.3573  1.3078
15365TIP3    H267587   0.852   1.715  14.884  1.3545  0.0759 -0.2389
15366TIP3   OH267588   5.084   5.812   2.172 -0.0826  0.6463  0.8484
15366TIP3    H167589   5.179   5.805   2.162  0.0474  1.9181  0.9295
15366TIP3    H267590   5.051   5.812   2.082 -0.1145 -0.7682  0.8383
15367TIP3   OH267591   6.450   3.893   2.388 -0.2869  0.0760 -0.0187
15367TIP3    H167592   6.447   3.855   2.300  0.5088 -1.9724  0.7790
15367TIP3    H267593   6.403   3.830   2.442 -0.4211  1.1162  1.1008
15368TIP3   OH267594   2.000   5.696   2.958  0.3638 -0.3750 -0.4053
15368TIP3    H167595   2.045   5.736   2.883 -0.0683  0.5493 -0.1865
15368TIP3    H267596   1.920   5.659   2.921  0.4560 -0.4868 -0.4973
15369TIP3   OH267597   6.157   4.288   6.468  0.0995  0.3571 -0.3612
15369TIP3    H167598   6.234   4.236   6.445 -1.0452 -0.8343 -1.7296
15369TIP3    H267599   6.184   4.379   6.456  1.3363 -0.0394 -0.6665
15370TIP3   OH267600   0.104   4.622   5.955 -0.2614 -0.2886  0.1026
15370TIP3    H167601   0.060   4.659   6.032  0.5563  1.0862 -0.0615
15370TIP3    H267602   0.155   4.549   5.989  0.1662  0.3654  0.8924
15371TIP3   OH267603   4.174   6.458   2.410  0.0561 -0.5962 -0.0890
15371TIP3    H167604   4.228   6.531   2.379  1.7556 -1.3879  0.9123
15371TIP3    H267605   4.084   6.487   2.395  0.7151  0.0007 -3.5445
15372TIP3   OH267606   1.714   2.293  10.441 -0.2667  0.3999  0.2566
15372TIP3    H167607   1.672   2.320  10.523  0.1480  2.0639 -0.0345
15372TIP3    H267608   1.714   2.197  10.444 -1.3230  0.4148  1.6474
15373TIP3   OH267609   5.264   2.466   3.360 -0.2199 -0.1632  0.0735
15373TIP3    H167610   5.240   2.473   3.453  2.0252  2.1633  0.5972
15373TIP3    H267611   5.345   2.517   3.353 -0.3356 -0.2683 -3.1934
15374TIP3   OH267612   0.189   5.642  15.997 -0.2127 -0.5893 -0.1074
15374TIP3    H167613   0.197   5.663  16.090  4.8927 -0.2952 -0.3226
15374TIP3    H267614   0.208   5.548  15.993  2.6048 -0.0758 -0.9055
15375TIP3   OH267615   6.061   2.934  16.653 -0.4423  0.1620  0.7109
15375TIP3    H167616   6.089   3.004  16.713 -2.2746  0.5460  1.1873
15375TIP3    H267617   5.966   2.947  16.644 -0.6677 -1.6648  0.0206
15376TIP3   OH267618   5.426   0.856   5.357 -0.0966 -0.4425 -0.1447
15376TIP3    H167619   5.505   0.846   5.305  1.1699  0.5735  1.4941
15376TIP3    H267620   5.398   0.946   5.343 -0.5969 -0.6007 -0.2032
15377TIP3   OH267621   1.675   1.374  14.797 -0.2287  0.7997  0.3955
15377TIP3    H167622   1.606   1.417  14.746 -1.5042 -1.5273  0.0092
15377TIP3    H267623   1.628   1.317  14.858  1.3349  1.8126  2.6778
15378TIP3   OH267624   5.898   5.961   3.801 -0.0348  0.0684  0.2982
15378TIP3    H167625   5.917   5.979   3.894  0.6007  0.5582  0.0800
15378TIP3    H267626   5.984   5.944   3.762  0.0215  2.3644 -0.7268
15379TIP3   OH267627   6.334   0.100  16.899 -0.4517 -0.5882  0.2113
15379TIP3    H167628   6.394   0.171  16.922  0.6089 -0.5826 -2.2410
15379TIP3    H267629   6.248   0.142  16.898 -0.0160  0.3383  0.1298
15380TIP3   OH267630   4.745   5.265   2.668  0.0336  0.4332 -0.1822
15380TIP3    H167631   4.815   5.224   2.618  0.3787 -0.6845  1.1733
15380TIP3    H267632   4.775   5.264   2.759 -2.3996 -1.6516  0.7186
15381TIP3   OH267633   2.270   2.466  12.289  0.0529  0.0985 -0.0131
15381TIP3    H167634   2.203   2.507  12.233 -1.9764  0.5953  2.5876
15381TIP3    H267635   2.304   2.538  12.341  0.8939 -0.5764  0.3880
15382TIP3   OH267636   2.607   5.314   1.800  0.4536  0.5081  0.3549
15382TIP3    H167637   2.527   5.315   1.747  0.4665  0.6447  0.3379
15382TIP3    H267638   2.654   5.235   1.771 -0.4849 -0.5460  1.5836
15383TIP3   OH267639   6.549   6.474  17.071  0.2801 -0.1669  0.1324
15383TIP3    H167640   6.644   6.470  17.064  0.2955  0.1955  0.1535
15383TIP3    H267641   6.520   6.517  16.991  0.1540  0.0127  0.2751
15384TIP3   OH267642   0.763   6.767   1.407  0.1478 -0.1736  0.4663
15384TIP3    H167643   0.734   6.755   1.498  0.1540 -1.2508  0.3367
15384TIP3    H267644   0.711   6.840   1.374 -2.0214 -1.6816  0.4149
15385TIP3   OH267645   4.906   4.736  15.223  0.1959  0.1530 -0.3074
15385TIP3    H167646   4.953   4.778  15.151 -1.3664  1.1017 -0.8253
15385TIP3    H267647   4.923   4.642  15.212  1.1733  0.3985 -1.0194
15386TIP3   OH267648   2.060   1.086  13.920  0.0118  0.1151  0.5244
15386TIP3    H167649   1.975   1.059  13.884  0.2230 -0.4218  0.4227
15386TIP3    H267650   2.122   1.074  13.848 -0.0575  1.9477  0.1052
15387TIP3   OH267651   5.846   1.073   5.415 -0.4155 -0.0390  0.2641
15387TIP3    H167652   5.866   0.980   5.420 -1.2030 -0.2448 -0.1895
15387TIP3    H267653   5.904   1.107   5.347 -1.4478 -0.5897 -0.9251
15388TIP3   OH267654   2.943   6.066   1.581  0.2091 -0.5261  0.4196
15388TIP3    H167655   2.952   6.045   1.488 -1.4956 -2.3499  0.5932
15388TIP3    H267656   3.004   6.006   1.625  0.2737 -0.3833  0.5228
15389TIP3   OH267657   3.566   4.577   1.984  0.3816 -0.2702  0.6573
15389TIP3    H167658   3.477   4.601   1.957  0.1256 -0.2744  1.4576
15389TIP3    H267659   3.592   4.646   2.045 -0.2782 -1.8224  2.8098
15390TIP3   OH267660   6.175   0.775   1.462  0.7112 -0.0017 -0.8631
15390TIP3    H167661   6.230   0.851   1.443 -1.3801  2.6422  2.5132
15390TIP3    H267662   6.225   0.723   1.525  0.7054  0.6017 -0.3525
15391TIP3   OH267663   6.795   6.671  14.127 -0.7135  0.2681  0.0856
15391TIP3    H167664   6.719   6.701  14.177  0.7966  1.2132  1.9459
15391TIP3    H267665   6.870   6.696  14.181  0.9233 -0.7729 -1.6095
15392TIP3   OH267666   2.092   0.967   0.981  0.0633 -0.1483 -0.6837
15392TIP3    H167667   2.008   0.919   0.981 -0.9166  1.4188 -2.6125
15392TIP3    H267668   2.158   0.899   0.994 -1.4172 -1.6521 -0.6518
15393TIP3   OH267669   3.372   3.290   1.174 -0.1236  0.0693  0.1022
15393TIP3    H167670   3.371   3.305   1.269 -0.0385  1.1181 -0.0525
15393TIP3    H267671   3.458   3.253   1.156 -0.2318 -0.3780  0.4559
15394TIP3   OH267672   0.208   3.872  14.234 -0.3607  0.0058  0.2392
15394TIP3    H167673   0.217   3.793  14.287 -0.3750  0.5391  1.0667
15394TIP3    H267674   0.171   3.937  14.295 -0.7670  0.5213 -0.5435
15395TIP3   OH267675   0.141   3.809  13.477 -0.2823 -0.2317 -0.3506
15395TIP3    H167676   0.066   3.807  13.536  0.2151  0.3309  0.3253
15395TIP3    H267677   0.153   3.902  13.456  2.4475  0.2736  2.5621
15396TIP3   OH267678   6.172   1.534  12.153 -0.3228  0.1511  0.5261
15396TIP3    H167679   6.202   1.623  12.134 -0.4087 -0.1955 -1.4148
15396TIP3    H267680   6.122   1.543  12.234  0.9802  1.5754  1.2514
15397TIP3   OH267681   0.107   5.626  14.635  0.0773  0.2257 -0.3170
15397TIP3    H167682   0.155   5.546  14.611  0.6293  0.0107  1.3858
15397TIP3    H267683   0.172   5.679  14.681 -0.6436  1.1077 -0.3035
15398TIP3   OH267684   2.959   2.117  15.596 -0.6314 -0.4503  0.4509
15398TIP3    H167685   3.050   2.093  15.578  0.3540  1.6112  2.3038
15398TIP3    H267686   2.919   2.127  15.509  2.0256  2.5629 -0.5850
15399TIP3   OH267687   6.250   4.912  11.006  0.3892  0.2572 -0.0614
15399TIP3    H167688   6.260   4.989  10.950  2.1262  0.2405  0.1639
15399TIP3    H267689   6.192   4.854  10.956  0.5838  0.9211 -1.0982
15400TIP3   OH267690   1.987   1.907  11.263 -0.0754 -0.3256  0.4938
15400TIP3    H167691   1.986   2.003  11.254 -0.2400 -0.3403  0.3627
15400TIP3    H267692   2.067   1.889  11.313  0.3233 -0.1699 -0.0724
15401TIP3   OH267693   2.334   2.059  15.022  0.1488  0.2136 -0.6775
15401TIP3    H167694   2.386   2.005  15.082 -0.6248  0.3987  0.1755
15401TIP3    H267695   2.354   2.149  15.048 -1.5254  0.2829  0.4990
15402TIP3   OH267696   6.304   2.376   5.372  0.2232 -0.1138  0.2146
15402TIP3    H167697   6.252   2.373   5.453  0.4330  1.0630  0.4143
15402TIP3    H267698   6.247   2.420   5.309  0.6093  0.3228  0.1617
15403TIP3   OH267699   6.195   2.518  12.231 -0.3023  0.1337 -0.3467
15403TIP3    H167700   6.107   2.548  12.253 -0.1790 -0.4257  1.0323
15403TIP3    H267701   6.252   2.588  12.262 -0.2007 -0.0160 -0.1952
15404TIP3   OH267702   1.471   3.808  15.696 -0.3707  0.3081  0.0523
15404TIP3    H167703   1.419   3.744  15.648 -0.7018 -0.5569  1.5203
15404TIP3    H267704   1.547   3.760  15.727  0.1140  0.9930 -0.0373
15405TIP3   OH267705   4.248   2.547   3.018  0.5270  0.8099 -0.5493
15405TIP3    H167706   4.222   2.472   3.072  0.4362  1.4261  0.2880
15405TIP3    H267707   4.341   2.559   3.036  1.5480 -1.4247 -3.5875
15406TIP3   OH267708   1.053   4.684  11.256  0.3426  0.1098 -0.2862
15406TIP3    H167709   1.129   4.669  11.312  1.7578  1.1920 -1.7957
15406TIP3    H267710   1.074   4.765  11.209 -1.4517  0.0691 -1.2425
15407TIP3   OH267711   3.083   4.894   5.494 -0.1937  0.0806 -0.7581
15407TIP3    H167712   2.992   4.893   5.523  0.1054 -0.0203  0.2008
15407TIP3    H267713   3.077   4.901   5.398 -1.2773 -3.0142 -1.0457
15408TIP3   OH267714   1.921   1.219   5.304  0.7680  0.3540  0.2627
15408TIP3    H167715   1.895   1.302   5.344 -1.2731 -1.3528  2.7941
15408TIP3    H267716   1.867   1.212   5.225  2.4329  2.2512 -1.1546
15409TIP3   OH267717   4.937   2.016  13.269  0.1104 -0.1718  0.0435
15409TIP3    H167718   5.015   2.068  13.288  0.4635 -1.4992  2.7187
15409TIP3    H267719   4.866   2.064  13.312 -0.3251  0.1777 -1.0113
15410TIP3   OH267720   4.895   5.920  15.626  0.1845  0.8693  1.4241
15410TIP3    H167721   4.907   6.001  15.577 -0.1030  1.0432  1.6330
15410TIP3    H267722   4.800   5.907  15.627  0.2937 -0.3950 -0.0877
15411TIP3   OH267723   6.326   5.573   2.847  1.1430  0.4779 -0.6932
15411TIP3    H167724   6.294   5.546   2.761  1.0825  2.3663 -1.3150
15411TIP3    H267725   6.248   5.608   2.892  0.6134 -2.7217  1.1725
15412TIP3   OH267726   1.528   4.620  17.082 -0.0082 -0.3942  0.5608
15412TIP3    H167727   1.451   4.584  17.036  0.3279 -0.6323  0.1807
15412TIP3    H267728   1.601   4.601  17.024  0.0382  2.0810 -0.3031
15413TIP3   OH267729   3.058   2.836   3.297  0.3133 -0.1105  0.1119
15413TIP3    H167730   3.021   2.878   3.219  1.4244  0.8494  0.0637
15413TIP3    H267731   3.100   2.908   3.345 -0.7363 -0.5985  1.8562
15414TIP3   OH267732   1.333   0.435   5.557 -0.3095 -0.0025 -0.0289
15414TIP3    H167733   1.423   0.415   5.530  0.2501  0.0729  1.6607
15414TIP3    H267734   1.317   0.376   5.631 -1.6854 -0.0645 -0.3633
15415TIP3   OH267735   3.689   1.464   3.089 -0.3068 -0.1642  0.1298
15415TIP3    H167736   3.707   1.475   2.995  0.8425  2.8066  0.5974
15415TIP3    H267737   3.767   1.423   3.124 -0.3222 -0.3569 -0.0597
15416TIP3   OH267738   0.773   2.725  15.188 -0.0456  0.8587  0.3897
15416TIP3    H167739   0.721   2.710  15.268 -0.7698 -1.5097 -0.4121
15416TIP3    H267740   0.711   2.765  15.127 -0.7989 -1.1373 -0.2654
15417TIP3   OH267741   2.797   2.365  11.995  0.5586 -0.6549  0.2554
15417TIP3    H167742   2.802   2.348  12.089  2.9518 -0.2868  0.2560
15417TIP3    H267743   2.709   2.336  11.970  0.4997 -2.4566  2.2628
15418TIP3   OH267744   6.703   5.301   6.001 -0.0857 -0.0090 -0.0084
15418TIP3    H167745   6.636   5.255   5.952 -0.1098 -0.1844  0.1900
15418TIP3    H267746   6.704   5.389   5.963  0.6434 -0.4488 -1.0507
15419TIP3   OH267747   1.712   5.633  15.940  0.0205  0.3871  0.2997
15419TIP3    H167748   1.727   5.545  15.974  0.4132 -0.1488 -1.1876
15419TIP3    H267749   1.639   5.623  15.878  0.8619  0.8380 -0.8078
15420TIP3   OH267750   5.687   4.096  10.475 -0.5289  0.1270  0.3044
15420TIP3    H167751   5.638   4.153  10.533  1.2503 -0.0009  2.0745
15420TIP3    H267752   5.732   4.155  10.415 -0.3559  0.4575  0.7544
15421TIP3   OH267753   0.780   1.510  17.075 -0.2123  0.1227 -0.4092
15421TIP3    H167754   0.757   1.417  17.075 -0.7338  0.2340  0.6766
15421TIP3    H267755   0.712   1.551  17.021  0.3075 -0.1874 -1.3026
15422TIP3   OH267756   4.320   1.748  13.350 -0.0555  0.1574 -0.2122
15422TIP3    H167757   4.407   1.715  13.330 -0.8769 -0.1276 -4.2103
15422TIP3    H267758   4.299   1.712  13.436  3.5619 -0.0254  0.7375
15423TIP3   OH267759   0.466   3.502  11.977 -0.0083 -0.0676  0.0073
15423TIP3    H167760   0.479   3.489  11.883  0.2104 -0.1678  0.0503
15423TIP3    H267761   0.406   3.577  11.983 -1.2064 -0.9798 -0.2435
15424TIP3   OH267762   4.199   0.268  12.338  0.8996 -0.3514  0.0128
15424TIP3    H167763   4.177   0.257  12.245  0.5129  0.2855  0.0280
15424TIP3    H267764   4.280   0.218  12.348  2.0101  1.1209 -1.1143
15425TIP3   OH267765   4.143   2.653  11.627 -0.1853 -0.1859 -0.2629
15425TIP3    H167766   4.089   2.722  11.664 -0.6555 -1.0494  0.7255
15425TIP3    H267767   4.105   2.636  11.541  0.2014  1.0581 -0.6929
15426TIP3   OH267768   5.945   4.128   1.716  0.4562  0.2911 -0.3710
15426TIP3    H167769   6.012   4.149   1.651  0.0968  0.9466 -0.5426
15426TIP3    H267770   5.866   4.110   1.665 -0.0514  1.6243 -0.1164
15427TIP3   OH267771   4.463   4.842   4.389  0.1974 -0.0544  0.7124
15427TIP3    H167772   4.457   4.747   4.382  2.4418 -0.2692  0.8487
15427TIP3    H267773   4.543   4.858   4.440  0.2043  1.8992  0.2035
15428TIP3   OH267774   4.925   0.565  11.552  0.1451  0.2463 -0.2282
15428TIP3    H167775   4.863   0.506  11.510  0.4541  0.3516 -0.8356
15428TIP3    H267776   4.996   0.508  11.580  0.4528  0.3271 -0.8325
15429TIP3   OH267777   1.371   1.329  12.402 -0.1481  0.2386 -0.5965
15429TIP3    H167778   1.333   1.397  12.458  0.8260  0.7110 -0.4752
15429TIP3    H267779   1.398   1.375  12.323  0.1947 -0.0668 -0.6621
15430TIP3   OH267780   0.534   2.708  13.770 -0.7061  0.0663  0.3185
15430TIP3    H167781   0.523   2.723  13.676 -0.1544 -1.1063  0.0498
15430TIP3    H267782   0.626   2.728  13.787 -1.2005  2.0362  0.9981
15431TIP3   OH267783   2.341   4.833  15.491  0.3088 -0.0022 -0.1007
15431TIP3    H167784   2.293   4.911  15.518 -3.2750 -0.7338 -3.4493
15431TIP3    H267785   2.330   4.771  15.563 -0.8242  1.0431  0.6436
15432TIP3   OH267786   2.055   3.460  15.523 -0.3793 -0.0325  0.4292
15432TIP3    H167787   2.087   3.543  15.558  0.2442 -0.0547 -0.0636
15432TIP3    H267788   1.959   3.469  15.523 -0.6590 -1.0341  4.5850
15433TIP3   OH267789   6.029   5.021   3.803  0.4320 -0.3867 -0.6510
15433TIP3    H167790   6.098   5.084   3.822 -0.6359  0.5934  0.0936
15433TIP3    H267791   6.020   5.023   3.708 -0.1319  1.2036 -0.5837
15434TIP3   OH267792   6.794   3.847  11.410 -0.2029  0.4773  0.0877
15434TIP3    H167793   6.822   3.871  11.498  0.1732 -1.0834  0.4204
15434TIP3    H267794   6.799   3.929  11.360  4.7835  0.4562  0.1142
15435TIP3   OH267795   0.919   2.000  16.963  0.3181  0.4841 -0.1583
15435TIP3    H167796   0.888   2.089  16.977 -0.3576  0.2592 -0.2118
15435TIP3    H267797   0.862   1.965  16.894  0.6180  0.0308 -0.1825
15436TIP3   OH267798   0.626   1.188  15.950 -0.0119 -0.3822  0.3760
15436TIP3    H167799   0.567   1.115  15.969 -0.3929 -0.0451  0.5166
15436TIP3    H267800   0.705   1.147  15.913 -1.0089 -0.7358 -1.4974
15437TIP3   OH267801   0.506   1.510   0.125  0.0108 -0.5826  0.6756
15437TIP3    H167802   0.590   1.550   0.101 -0.2976 -1.3161 -1.8694
15437TIP3    H267803   0.525   1.417   0.130 -0.9826 -0.9994 -1.9216
15438TIP3   OH267804   2.984   1.828  16.405  0.6075  0.3702  0.3568
15438TIP3    H167805   2.926   1.904  16.410  0.5742  0.4563 -0.9304
15438TIP3    H267806   2.930   1.754  16.433 -0.2781  0.3962 -1.1365
15439TIP3   OH267807   1.563   5.233  11.408 -0.1591  0.1941 -0.4241
15439TIP3    H167808   1.484   5.267  11.449 -0.7140 -1.7129  0.2053
15439TIP3    H267809   1.532   5.187  11.330  0.3174 -0.4868 -0.2249
15440TIP3   OH267810   5.958   3.295   4.262 -0.1117  0.1746 -0.1442
15440TIP3    H167811   5.915   3.319   4.344 -1.8231  0.3733 -1.0656
15440TIP3    H267812   5.914   3.215   4.234  1.0159 -0.3546 -0.4923
15441TIP3   OH267813   0.758   1.456   4.958 -0.0332 -0.0557  0.3272
15441TIP3    H167814   0.822   1.499   4.901 -1.1429 -0.3326 -1.1973
15441TIP3    H267815   0.685   1.517   4.963  0.2066  0.1590  1.8693
15442TIP3   OH267816   1.130   6.636  15.565  0.2155  0.7931 -0.2950
15442TIP3    H167817   1.206   6.695  15.564  0.9980 -0.1955 -0.2339
15442TIP3    H267818   1.115   6.614  15.473  0.4493  0.4316 -0.2484
15443TIP3   OH267819   1.859   5.648   0.539  0.1511  0.0773  0.0379
15443TIP3    H167820   1.943   5.664   0.583 -0.3709 -0.1304  1.1321
15443TIP3    H267821   1.862   5.705   0.462  1.1452  0.3435  0.2539
15444TIP3   OH267822   2.720   0.865  14.122  0.0449  0.0447 -0.0860
15444TIP3    H167823   2.730   0.890  14.214  1.1066 -0.1823 -0.1229
15444TIP3    H267824   2.717   0.948  14.074  3.3613  0.2435 -0.1894
15445TIP3   OH267825   1.542   6.686  14.548 -0.0206  0.4775  0.4521
15445TIP3    H167826   1.464   6.659  14.598 -0.8501  1.0384 -0.4877
15445TIP3    H267827   1.609   6.700  14.615  0.1725 -2.7625  1.0915
15446TIP3   OH267828   2.438   6.846   4.548 -0.3859 -0.8616  0.1754
15446TIP3    H167829   2.474   6.761   4.572 -1.9265 -2.0691 -1.4963
15446TIP3    H267830   2.382   6.828   4.473  0.6041  1.8941 -1.4100
15447TIP3   OH267831   4.022   6.325   0.039  0.1660  0.2739  0.2757
15447TIP3    H167832   3.932   6.331   0.006 -0.6183  0.8167  2.3194
15447TIP3    H267833   4.012   6.316   0.134  2.2760  2.1129  0.7721
15448TIP3   OH267834   1.290   1.266   5.821  0.1927  0.4053 -0.3245
15448TIP3    H167835   1.340   1.336   5.779 -0.5743  1.7198  0.8744
15448TIP3    H267836   1.292   1.288   5.914 -1.2498 -0.4209 -0.0759
15449TIP3   OH267837   0.649   1.931   1.643  0.4506  0.4267 -0.2020
15449TIP3    H167838   0.666   1.962   1.732 -0.5201  0.8064 -0.1406
15449TIP3    H267839   0.577   1.868   1.653  0.9293 -0.2040 -0.6157
15450TIP3   OH267840   2.727   5.568  11.926 -0.7851 -0.1029 -0.3743
15450TIP3    H167841   2.775   5.488  11.908 -0.4777 -0.6087  2.2890
15450TIP3    H267842   2.666   5.545  11.996 -0.7072  1.9552  0.4704
15451TIP3   OH267843   5.855   5.725  14.590  0.2193 -0.3823 -0.8700
15451TIP3    H167844   5.829   5.815  14.608 -0.4547 -0.6075 -0.6704
15451TIP3    H267845   5.799   5.672  14.647  2.0401 -0.8582  0.5694
15452TIP3   OH267846   5.854   1.421   0.382  0.5442  0.4523 -0.1128
15452TIP3    H167847   5.933   1.396   0.430  0.8239  1.7933  0.1820
15452TIP3    H267848   5.885   1.433   0.292  0.1150 -1.5985 -0.5800
15453TIP3   OH267849   5.134   2.281   1.182  0.0570  0.2896  0.0411
15453TIP3    H167850   5.160   2.358   1.232  0.6936  0.1298 -0.0313
15453TIP3    H267851   5.216   2.249   1.144 -0.2204 -0.3440 -0.0331
15454TIP3   OH267852   5.111   5.038   0.368 -0.8185  0.2846  0.5017
15454TIP3    H167853   5.044   5.039   0.437 -1.3236 -1.6940  0.0835
15454TIP3    H267854   5.065   5.007   0.290  0.6083 -1.4144  0.2790
15455TIP3   OH267855   1.022   4.790   1.800 -0.0991 -1.2577  0.0437
15455TIP3    H167856   1.067   4.714   1.838 -0.5989 -1.2765  0.6265
15455TIP3    H267857   0.961   4.817   1.869 -1.4452 -1.6418 -0.9599
15456TIP3   OH267858   6.182   1.411  12.745  0.3403 -0.0395 -0.3028
15456TIP3    H167859   6.236   1.363  12.682 -0.6256 -0.0145 -1.1825
15456TIP3    H267860   6.199   1.369  12.829  1.0998 -0.5541 -0.7037
15457TIP3   OH267861   1.341   6.223   0.458 -0.3982 -0.3138  0.9419
15457TIP3    H167862   1.280   6.285   0.418  0.4994 -0.2145 -0.3507
15457TIP3    H267863   1.320   6.225   0.551 -0.0830  2.3155  1.0305
15458TIP3   OH267864   5.184   0.206  13.354 -0.5708  0.8071 -0.4947
15458TIP3    H167865   5.103   0.258  13.357 -0.8593  0.3477  0.0342
15458TIP3    H267866   5.153   0.115  13.347 -0.0686  0.7316 -1.8596
15459TIP3   OH267867   6.602   1.307  13.076 -0.4027 -0.1061 -0.1851
15459TIP3    H167868   6.558   1.322  13.160  1.1897  0.8483  0.5294
15459TIP3    H267869   6.694   1.294  13.100  0.1183  0.4232 -1.8011
15460TIP3   OH267870   0.186   6.855   3.088 -0.0725 -0.0852  0.4078
15460TIP3    H167871   0.106   6.831   3.041  0.5865 -3.8721  0.9264
15460TIP3    H267872   0.157   6.923   3.149 -2.8985 -1.1976  0.4842
15461TIP3   OH267873   0.867   6.541   1.971 -0.1642  0.1552 -0.0151
15461TIP3    H167874   0.786   6.588   1.955  0.2171  1.5516  1.8034
15461TIP3    H267875   0.911   6.538   1.886 -1.5032  0.5621 -0.7437
15462TIP3   OH267876   6.458   5.547  15.997 -0.0508 -0.1367 -0.1085
15462TIP3    H167877   6.401   5.479  15.960 -0.8602 -0.5955  1.8518
15462TIP3    H267878   6.397   5.612  16.033  0.7116  1.0573 -0.8847
15463TIP3   OH267879   4.069   5.764   1.097 -0.0859 -0.1627  0.1126
15463TIP3    H167880   4.066   5.836   1.159 -0.0713  0.2160 -0.3209
15463TIP3    H267881   3.984   5.767   1.053  0.4845  0.5481 -0.9725
15464TIP3   OH267882   6.743   2.130  16.574  0.4145 -0.1080 -0.3341
15464TIP3    H167883   6.698   2.132  16.489  1.3619 -1.3562 -0.8936
15464TIP3    H267884   6.739   2.221  16.605  0.6914  0.5257 -2.0546
15465TIP3   OH267885   0.523   2.527  11.777 -0.6430  0.0876 -0.1809
15465TIP3    H167886   0.519   2.623  11.776  1.0985  0.2236  1.4191
15465TIP3    H267887   0.452   2.501  11.836  1.0057  0.6476  2.1877
15466TIP3   OH267888   5.513   5.793  10.216  0.6311 -0.3845  0.0592
15466TIP3    H167889   5.580   5.737  10.255 -0.3973 -1.5681  0.1577
15466TIP3    H267890   5.430   5.750  10.236 -0.2414  1.4426  0.5907
15467TIP3   OH267891   6.834   2.953   0.390  0.0341  0.6755 -0.4452
15467TIP3    H167892   6.912   2.910   0.427  0.3807  1.1497 -0.6056
15467TIP3    H267893   6.762   2.922   0.444  0.3440  0.2708 -0.2539
15468TIP3   OH267894   0.405   2.862  12.795 -0.4730  0.3618  0.0784
15468TIP3    H167895   0.356   2.934  12.754 -1.8541 -0.8905 -0.5903
15468TIP3    H267896   0.421   2.800  12.723  1.5473  0.4057  0.4331
15469TIP3   OH267897   4.339   0.567   6.115 -0.3137 -0.0572  0.1661
15469TIP3    H167898   4.428   0.532   6.119 -0.1600 -0.2085 -2.5709
15469TIP3    H267899   4.290   0.515   6.179  1.0757 -1.5119  0.1157
15470TIP3   OH267900   4.415   3.733  12.824  0.3740 -0.0940 -0.2282
15470TIP3    H167901   4.423   3.713  12.731  0.3219 -2.2328  0.1651
15470TIP3    H267902   4.478   3.803  12.839  0.3586  0.3153 -1.8654
15471TIP3   OH267903   3.288   1.814   5.569  0.0333  0.2034 -0.2441
15471TIP3    H167904   3.271   1.872   5.644  0.3627  0.5456 -0.4288
15471TIP3    H267905   3.310   1.730   5.609 -2.5620 -0.4308 -0.0005
15472TIP3   OH267906   4.547   0.966   0.561 -0.1519  0.3259 -0.1593
15472TIP3    H167907   4.538   0.984   0.655 -1.1767 -1.5676  0.1585
15472TIP3    H267908   4.637   0.991   0.541  0.5282 -0.4751  1.6544
15473TIP3   OH267909   6.143   4.851   5.552 -0.1321  0.5350 -0.1943
15473TIP3    H167910   6.228   4.815   5.525  0.3513  2.0411 -0.7416
15473TIP3    H267911   6.093   4.774   5.581  1.0980 -0.4872 -0.6901
15474TIP3   OH267912   1.386   0.879  11.533 -0.2045  0.3539  0.3539
15474TIP3    H167913   1.293   0.859  11.547 -0.6644  0.5153 -2.0453
15474TIP3    H267914   1.425   0.795  11.508  0.1784  0.4226  0.7026
15475TIP3   OH267915   0.925   1.622  11.818 -0.2753  0.3717 -0.0250
15475TIP3    H167916   0.886   1.637  11.732  0.0241 -1.0724 -0.4333
15475TIP3    H267917   0.875   1.680  11.877  0.0741  2.0186 -1.2634
15476TIP3   OH267918   4.462   1.372  14.486 -0.1182 -0.0416 -0.1844
15476TIP3    H167919   4.437   1.386  14.578  1.2388  0.1648  0.1788
15476TIP3    H267920   4.484   1.460  14.454  0.5566 -0.2619 -0.3435
15477TIP3   OH267921   5.825   5.985  13.730 -0.1573  0.8336 -0.0313
15477TIP3    H167922   5.849   6.061  13.783  1.2296 -0.6902  1.7139
15477TIP3    H267923   5.751   5.945  13.777 -1.8305  1.8229 -1.7181
15478TIP3   OH267924   2.995   2.250  13.028  0.0685 -0.0596 -0.1117
15478TIP3    H167925   3.072   2.302  13.053 -0.1120  0.0300  0.2734
15478TIP3    H267926   3.017   2.214  12.942  1.0256 -0.9745  0.4924
15479TIP3   OH267927   6.651   4.800  15.892  0.0562  0.6893  0.4675
15479TIP3    H167928   6.591   4.772  15.961 -0.8803  0.1791 -0.5177
15479TIP3    H267929   6.729   4.746  15.904 -1.0705 -1.2479 -0.3647
15480TIP3   OH267930   4.342   6.544  12.086  0.3910 -0.3161  0.1463
15480TIP3    H167931   4.289   6.483  12.137 -0.0374  1.9427  2.6007
15480TIP3    H267932   4.279   6.596  12.036  0.5132  0.0580  0.3704
15481TIP3   OH267933   2.388   0.624  11.192 -0.1923 -0.4144  0.1360
15481TIP3    H167934   2.373   0.667  11.276  0.8802  1.6552 -0.6471
15481TIP3    H267935   2.348   0.682  11.127  0.8872 -0.8116 -0.9378
15482TIP3   OH267936   0.983   1.241   0.404 -0.0822 -0.2054 -0.1148
15482TIP3    H167937   1.070   1.277   0.416  0.1116 -1.3137  2.4231
15482TIP3    H267938   0.930   1.283   0.473 -0.8425 -1.6111  0.1900
15483TIP3   OH267939   2.466   5.177  13.359 -0.3186 -0.2622 -0.4597
15483TIP3    H167940   2.550   5.221  13.351 -0.2045 -0.5177 -0.6574
15483TIP3    H267941   2.415   5.233  13.419  0.0546 -0.2085 -0.1914
15484TIP3   OH267942   0.460   5.469   1.236  0.1045 -0.1453 -0.9833
15484TIP3    H167943   0.375   5.491   1.273  1.2678  0.1431  1.8649
15484TIP3    H267944   0.445   5.389   1.186 -1.7009 -0.6352  0.2352
15485TIP3   OH267945   4.603   0.414   2.348 -0.0587 -0.1722  0.0152
15485TIP3    H167946   4.619   0.462   2.267  0.4423 -0.4732 -0.0669
15485TIP3    H267947   4.667   0.343   2.347 -0.2019 -0.3134  0.5624
15486TIP3   OH267948   1.056   5.529   6.240 -0.1626 -0.2724  0.7542
15486TIP3    H167949   0.977   5.550   6.289  0.2674 -1.3758  1.9806
15486TIP3    H267950   1.121   5.592   6.270  0.0982 -0.9422  1.6390
15487TIP3   OH267951   0.087   0.280  16.409 -0.5723 -0.4209 -0.2776
15487TIP3    H167952   0.115   0.368  16.382 -0.9297  0.3892  1.7652
15487TIP3    H267953   0.152   0.254  16.475 -1.1634 -1.1526  0.0237
15488TIP3   OH267954   5.885   2.187  11.576  0.1167 -0.1884 -0.0922
15488TIP3    H167955   5.847   2.232  11.501  0.6463  1.1060  0.3881
15488TIP3    H267956   5.821   2.119  11.598 -0.4533 -0.0261 -1.1697
15489TIP3   OH267957   0.780   0.104  13.952  0.2750  0.2635  0.4731
15489TIP3    H167958   0.700   0.112  14.004  0.0026  1.4083 -0.0952
15489TIP3    H267959   0.850   0.134  14.011  0.0402  1.0261  0.3706
15490TIP3   OH267960   0.052   4.466  13.086 -0.3544  0.4692 -0.8583
15490TIP3    H167961   0.059   4.484  12.992  1.0582  0.7370 -0.7128
15490TIP3    H267962   0.112   4.393  13.101  0.6840  1.4983  0.1182
15491TIP3   OH267963   3.436   5.411  15.584 -0.2679 -0.0004 -0.0478
15491TIP3    H167964   3.382   5.470  15.637 -2.4056 -1.0610 -0.9485
15491TIP3    H267965   3.477   5.353  15.648 -1.7458 -0.4078  0.5534
15492TIP3   OH267966   0.378   2.373   1.705 -0.4475  0.2375  0.4058
15492TIP3    H167967   0.461   2.376   1.753  0.5620 -0.9489 -1.1855
15492TIP3    H267968   0.403   2.355   1.615 -2.4019  0.7947 -0.2848
15493TIP3   OH267969   0.772   6.477   4.758 -0.1070  0.3607 -0.2864
15493TIP3    H167970   0.801   6.508   4.672 -2.6301  0.3915 -1.2033
15493TIP3    H267971   0.759   6.383   4.747 -1.2521  0.4984 -0.2117
15494TIP3   OH267972   3.733   2.262  16.489  0.8236  0.3147 -0.2099
15494TIP3    H167973   3.823   2.252  16.519  1.3989  0.1192 -1.8989
15494TIP3    H267974   3.697   2.173  16.491  1.6665 -0.1360 -2.3986
15495TIP3   OH267975   4.715   1.991   5.356  0.1549 -0.3451 -0.4621
15495TIP3    H167976   4.711   1.908   5.308  1.7487 -0.2145 -0.8791
15495TIP3    H267977   4.693   2.057   5.291 -0.4861 -0.3825 -0.2885
15496TIP3   OH267978   6.699   5.841  15.695  0.0245 -0.1205  0.0372
15496TIP3    H167979   6.678   5.926  15.656 -0.4215 -0.2025  0.0917
15496TIP3    H267980   6.789   5.824  15.668  0.4275  0.7779  0.7436
15497TIP3   OH267981   2.071   0.983   0.196 -0.3967 -0.0863  0.0122
15497TIP3    H167982   2.017   0.928   0.138 -1.7533  1.8856 -0.7249
15497TIP3    H267983   2.038   1.072   0.182  0.0541  0.6549  2.9539
15498TIP3   OH267984   5.772   3.149  10.577  0.1216  0.3777  0.0337
15498TIP3    H167985   5.767   3.241  10.603  1.4801  0.1339  1.3516
15498TIP3    H267986   5.866   3.133  10.566 -0.1275 -0.7464 -0.6133
15499TIP3   OH267987   1.829   4.222   0.432  0.5750 -0.0222 -0.0143
15499TIP3    H167988   1.885   4.152   0.397 -1.2961 -1.3679 -0.4911
15499TIP3    H267989   1.831   4.210   0.527  0.6805 -0.4055 -0.0637
15500TIP3   OH267990   0.038   3.856  15.599 -0.2540 -0.0058  0.4558
15500TIP3    H167991   0.048   3.782  15.659  3.8718 -0.2030 -0.2378
15500TIP3    H267992   0.027   3.931  15.656  1.9685 -0.4029  1.4883
15501TIP3   OH267993   5.480   3.107  11.516  0.0519  1.1605  0.4146
15501TIP3    H167994   5.420   3.035  11.530  0.8084  0.1291 -1.3827
15501TIP3    H267995   5.427   3.176  11.476 -0.5780  1.4787  1.7495
15502TIP3   OH267996   2.233   2.125  15.933  0.0970  1.2148 -0.2799
15502TIP3    H167997   2.284   2.140  15.854  0.0072 -1.1108 -0.8657
15502TIP3    H267998   2.285   2.061  15.983 -2.0231 -1.0943 -0.8123
15503TIP3   OH267999   3.551   1.107  12.273 -0.5758 -0.1890  0.1859
15503TIP3    H168000   3.457   1.118  12.287 -0.8217 -2.4834  0.7149
15503TIP3    H268001   3.573   1.028  12.323  1.6872  0.4261  0.2584
15504TIP3   OH268002   3.895   4.388  12.873 -0.1788  0.1920 -0.0292
15504TIP3    H168003   3.962   4.380  12.940  1.1923 -0.7797 -1.4390
15504TIP3    H268004   3.878   4.482  12.866 -0.4281  0.3019  1.7084
15505TIP3   OH268005   0.823   3.893   4.846 -0.5730  0.1703  0.0214
15505TIP3    H168006   0.888   3.906   4.915 -1.6562 -1.5325  1.4142
15505TIP3    H268007   0.869   3.843   4.779 -0.3056 -0.6284  0.7931
15506TIP3   OH268008   4.923   1.075   0.133 -0.3696 -0.4246 -0.7251
15506TIP3    H168009   4.899   1.159   0.094  0.1260 -0.0595 -0.2635
15506TIP3    H268010   4.915   1.012   0.061  0.4912  0.2254 -1.4119
15507TIP3   OH268011   3.438   4.028  14.100 -0.3259 -0.1637  0.3529
15507TIP3    H168012   3.501   4.021  14.028 -0.7212 -1.1086  0.0934
15507TIP3    H268013   3.429   4.122  14.114 -1.9224  0.2041 -2.3470
15508TIP3   OH268014   5.006   5.678  15.644 -0.2622 -0.4059 -0.1853
15508TIP3    H168015   4.974   5.767  15.629 -1.0748 -0.8025 -0.8970
15508TIP3    H268016   4.971   5.655  15.730 -0.0780 -0.0420 -0.0146
15509TIP3   OH268017   2.214   6.340   4.729  0.2927  0.2305  0.4159
15509TIP3    H168018   2.289   6.330   4.669  0.8537  2.4612  0.6813
15509TIP3    H268019   2.148   6.386   4.677 -1.1267 -2.0516  0.0652
15510TIP3   OH268020   4.930   4.791  17.066  0.5021  0.5143 -0.4786
15510TIP3    H168021   4.904   4.784  16.975  0.5177  0.0865 -0.4546
15510TIP3    H268022   4.881   4.722  17.111  1.0911  0.2008 -0.3003
15511TIP3   OH268023   2.707   0.880   0.018  0.1825  0.0601 -0.1066
15511TIP3    H168024   2.769   0.877  -0.055 -0.0446  0.4969 -0.3198
15511TIP3    H268025   2.658   0.961   0.004 -0.3776 -0.2419  0.1107
15512TIP3   OH268026   6.433   0.823  15.955 -0.5197 -0.0259  1.1497
15512TIP3    H168027   6.513   0.788  15.916 -0.2584  1.3336  0.3818
15512TIP3    H268028   6.362   0.777  15.911 -0.1757 -0.4798  1.0648
15513TIP3   OH268029   5.792   5.440  11.768 -0.2933  0.4615  0.5427
15513TIP3    H168030   5.739   5.432  11.847  0.2642 -0.7860  0.8078
15513TIP3    H268031   5.881   5.458  11.800  0.1313 -1.0124  0.2765
15514TIP3   OH268032   6.136   3.069  11.073 -0.3017 -0.0984  0.4307
15514TIP3    H168033   6.122   3.039  10.983  1.0253 -0.7402  0.4061
15514TIP3    H268034   6.147   3.163  11.066 -1.0721 -0.0293  0.0454
15515TIP3   OH268035   6.680   3.471   2.176 -0.4119 -0.0471 -0.4420
15515TIP3    H168036   6.722   3.536   2.120 -0.4316  1.3524  1.0954
15515TIP3    H268037   6.751   3.432   2.227 -0.7334  1.1863  1.0187
15516TIP3   OH268038   2.797   4.046  14.815  0.2582 -0.0580 -0.4069
15516TIP3    H168039   2.871   4.048  14.756 -1.6232 -1.9076 -3.0714
15516TIP3    H268040   2.825   3.989  14.887  1.8551  0.4075 -0.6287
15517TIP3   OH268041   1.816   0.111   5.354  0.4502  0.0591 -0.2572
15517TIP3    H168042   1.745   0.064   5.397 -0.2309  0.6700 -0.6787
15517TIP3    H268043   1.772   0.184   5.309  1.3289  0.3648 -0.6399
15518TIP3   OH268044   5.293   4.138   3.748  0.1804 -0.2039 -0.1070
15518TIP3    H168045   5.350   4.142   3.671  1.2990 -0.2954  0.6866
15518TIP3    H268046   5.206   4.162   3.715  1.0230  1.8220 -1.0005
15519TIP3   OH268047   3.571   3.484  16.577 -0.3058  0.1270 -0.0056
15519TIP3    H168048   3.609   3.444  16.498 -0.3359  0.8229 -0.3869
15519TIP3    H268049   3.575   3.578  16.560 -0.7154  0.2700  0.6459
15520TIP3   OH268050   5.366   5.275   2.999  0.3668  0.1504 -0.0757
15520TIP3    H168051   5.349   5.211   2.931  0.5830 -0.2400  0.2321
15520TIP3    H268052   5.438   5.238   3.050 -2.5204 -1.8306  3.1095
15521TIP3   OH268053   4.421   3.858   2.787  0.0186 -0.1255  0.4342
15521TIP3    H168054   4.450   3.847   2.877 -1.3702  1.8278  1.1782
15521TIP3    H268055   4.358   3.788   2.772 -0.4248  0.0773  1.3113
15522TIP3   OH268056   6.629   6.136   4.891  0.4191  0.1797  0.2367
15522TIP3    H168057   6.646   6.208   4.831  1.8898 -0.6068 -0.3337
15522TIP3    H268058   6.548   6.097   4.860  0.3736  0.7020 -0.3121
15523TIP3   OH268059   6.215   5.305  13.831  0.3509  0.2327 -0.3951
15523TIP3    H168060   6.142   5.301  13.892  1.1012 -0.5443  0.5041
15523TIP3    H268061   6.242   5.213  13.819  1.0844  0.4872 -0.8088
15524TIP3   OH268062   3.017   4.950  14.127  0.2582  0.2911  0.8066
15524TIP3    H168063   3.043   4.969  14.036  1.3515 -0.2552  0.9928
15524TIP3    H268064   2.967   4.869  14.121  0.2394  0.3113  0.6815
15525TIP3   OH268065   6.283   2.156   4.745 -0.2001 -0.1495 -0.6619
15525TIP3    H168066   6.227   2.111   4.809  1.8366 -1.4377  0.3396
15525TIP3    H268067   6.357   2.096   4.732  1.4344  1.8556 -1.1687
15526TIP3   OH268068   1.147   2.091   1.854 -0.2553  0.0159 -0.1778
15526TIP3    H168069   1.131   2.089   1.949  0.0536 -0.2930 -0.1313
15526TIP3    H268070   1.137   2.000   1.826 -1.6651  0.2916 -0.6728
15527TIP3   OH268071   6.774   0.242  10.926  0.6664  0.8956 -0.1374
15527TIP3    H168072   6.807   0.219  10.838  0.3973 -0.0661  0.0006
15527TIP3    H268073   6.697   0.296  10.909 -0.9725 -1.4072 -0.5963
15528TIP3   OH268074   1.971   6.826   2.273  0.0137 -0.3807  0.1471
15528TIP3    H168075   1.910   6.765   2.315 -0.8463 -0.0108 -0.5390
15528TIP3    H268076   2.026   6.770   2.218 -0.7071 -0.5579 -0.4078
15529TIP3   OH268077   2.563   5.864  13.887 -0.3324  0.3406 -0.4841
15529TIP3    H168078   2.563   5.921  13.810 -1.2621  0.6605 -0.2694
15529TIP3    H268079   2.496   5.902  13.944  1.8914  1.4620  1.5308
15530TIP3   OH268080   0.617   4.024   6.503  0.5735  0.3087 -0.2696
15530TIP3    H168081   0.659   4.049   6.585  0.7999  1.1724 -0.6423
15530TIP3    H268082   0.638   3.931   6.493 -1.6741 -0.5952  1.9870
15531TIP3   OH268083   0.078   3.203   0.601  0.3155  0.1156  0.1706
15531TIP3    H168084   0.123   3.121   0.621  0.2035  0.1121  0.4121
15531TIP3    H268085  -0.008   3.193   0.642  0.6370  0.7430  1.0189
15532TIP3   OH268086   5.991   5.753   1.229 -1.0213  0.0340 -0.0821
15532TIP3    H168087   6.016   5.670   1.270 -0.9010  0.4536  0.6983
15532TIP3    H268088   5.911   5.780   1.275 -0.2047  1.1267  0.7317
15533TIP3   OH268089   3.036   0.722  10.232 -0.5172 -0.3318  0.1619
15533TIP3    H168090   3.097   0.655  10.202  1.8026  1.6076  0.2859
15533TIP3    H268091   3.059   0.737  10.324 -1.6275 -0.0040  0.4036
15534TIP3   OH268092   4.673   5.811  13.448  0.6073  0.1255 -0.2640
15534TIP3    H168093   4.697   5.832  13.538  0.0377  1.7867 -0.4678
15534TIP3    H268094   4.580   5.834  13.442  0.1522 -1.6942 -0.7957
15535TIP3   OH268095   6.838   1.699   2.221 -0.1033 -0.5487 -0.5678
15535TIP3    H168096   6.828   1.708   2.127 -0.1208 -3.3543 -0.9163
15535TIP3    H268097   6.775   1.631   2.246  0.8468 -0.8428  1.2195
15536TIP3   OH268098   4.639   0.074  11.426  0.3524  0.1852  0.5616
15536TIP3    H168099   4.730   0.073  11.453  0.1021 -1.2474  1.4231
15536TIP3    H268100   4.643   0.080  11.330  1.3462 -0.0880  0.5748
15537TIP3   OH268101   3.688   2.244   1.889  0.0144  0.2610 -0.1859
15537TIP3    H168102   3.693   2.156   1.925 -0.1028  0.8824  1.4554
15537TIP3    H268103   3.740   2.298   1.949  1.3655  1.0955 -1.9814
15538TIP3   OH268104   2.227   3.154  14.447 -0.5501  0.3514 -0.5001
15538TIP3    H168105   2.150   3.170  14.501  0.0696  2.5344 -0.1744
15538TIP3    H268106   2.213   3.206  14.368  1.2121  1.9879  0.2056
15539TIP3   OH268107   5.123   0.775   4.370 -0.1311  0.2340  0.3548
15539TIP3    H168108   5.091   0.859   4.402 -1.3837  0.4865 -1.4232
15539TIP3    H268109   5.183   0.798   4.299 -0.2358 -0.3653  0.0691
15540TIP3   OH268110   5.903   5.162   2.329 -0.2323  0.1315 -0.3746
15540TIP3    H168111   5.905   5.075   2.368  1.2052  0.5095  0.4652
15540TIP3    H268112   5.872   5.147   2.239  1.0526 -1.4148 -0.6116
15541TIP3   OH268113   1.761   0.345  13.704  0.0017 -0.2406 -0.8445
15541TIP3    H168114   1.694   0.300  13.756 -0.6541  2.0116  0.3832
15541TIP3    H268115   1.804   0.404  13.767  1.8460 -0.2176 -2.0437
15542TIP3   OH268116   3.438   2.232  16.545 -0.2985  0.4044 -1.1415
15542TIP3    H168117   3.506   2.282  16.500 -0.4787  0.8044 -0.9732
15542TIP3    H268118   3.403   2.172  16.479  1.1401 -0.7657 -0.8963
15543TIP3   OH268119   1.353   1.051  13.707 -0.2693 -0.1288 -0.4381
15543TIP3    H168120   1.349   0.993  13.783 -2.5747  1.0081  0.3930
15543TIP3    H268121   1.369   1.138  13.743 -1.3495  0.4285 -1.2370
15544TIP3   OH268122   1.737   2.603  15.677  0.0640  0.0837 -0.0421
15544TIP3    H168123   1.828   2.632  15.677  0.2419 -0.2781  2.1728
15544TIP3    H268124   1.692   2.666  15.732 -0.7694 -0.4177 -0.1343
15545TIP3   OH268125   0.640   1.526  15.636 -0.1356  0.4028 -0.7023
15545TIP3    H168126   0.707   1.488  15.693 -0.6459  0.3804 -0.1125
15545TIP3    H268127   0.686   1.595  15.589  0.0963  0.9896  0.3583
15546TIP3   OH268128   2.368   0.095  16.996  0.8378  0.1953 -0.4847
15546TIP3    H168129   2.323   0.073  16.914  0.5652 -0.0544 -0.2693
15546TIP3    H268130   2.419   0.174  16.974 -0.4739  1.0757 -0.4711
15547TIP3   OH268131   0.309   6.702   1.416  0.3695 -1.0478  1.2569
15547TIP3    H168132   0.392   6.665   1.448 -0.1089 -0.9483  2.7100
15547TIP3    H268133   0.245   6.633   1.433  0.2601 -1.4624 -0.6448
15548TIP3   OH268134   3.808   6.118  16.361 -0.1181 -0.2896  0.3598
15548TIP3    H168135   3.825   6.069  16.281  0.6736 -0.0873  0.3971
15548TIP3    H268136   3.717   6.098  16.383  0.6512 -3.2503  1.3542
15549TIP3   OH268137   1.382   0.241  13.434 -0.0684 -0.0284 -0.5015
15549TIP3    H168138   1.467   0.268  13.399  0.0876 -0.9902 -0.8823
15549TIP3    H268139   1.331   0.322  13.439  0.6412  0.4486 -0.9152
15550TIP3   OH268140   1.249   0.655  14.240 -0.2208  0.0767 -0.0732
15550TIP3    H168141   1.222   0.734  14.286  0.0592  1.4009 -2.0717
15550TIP3    H268142   1.218   0.667  14.150  2.2889 -0.7543 -1.1538
15551TIP3   OH268143   5.105   3.021   5.697  0.2016  0.2712  0.1177
15551TIP3    H168144   5.025   3.062   5.730  0.3468  1.0724 -0.5164
15551TIP3    H268145   5.079   2.984   5.612 -0.1667 -1.7647  1.0386
15552TIP3   OH268146   6.024   3.751   4.479 -0.0997  0.5403  0.0756
15552TIP3    H168147   5.934   3.722   4.495  0.5675 -1.6322  0.2083
15552TIP3    H268148   6.069   3.738   4.562  0.7544 -0.0886 -0.4733
15553TIP3   OH268149   5.345   5.413   5.230 -0.1635 -0.4716  0.2064
15553TIP3    H168150   5.353   5.335   5.176  0.5183 -0.1376 -0.1853
15553TIP3    H268151   5.254   5.413   5.260 -0.1674 -1.4030  0.1967
15554TIP3   OH268152   1.469   4.128   3.245 -0.3563 -0.2450  0.0537
15554TIP3    H168153   1.469   4.218   3.211 -2.2731  0.5263  1.8578
15554TIP3    H268154   1.400   4.083   3.195  1.1188 -1.0014 -1.3865
15555TIP3   OH268155   4.629   1.377   5.901 -0.3115  0.2834 -0.1312
15555TIP3    H168156   4.618   1.307   5.966  0.0489  0.5044  0.1733
15555TIP3    H268157   4.635   1.332   5.817  0.4518 -0.0909  0.1142
15556TIP3   OH268158   1.715   4.945  15.378  0.0346 -0.2154 -0.0803
15556TIP3    H168159   1.630   4.919  15.341 -0.6554  1.5842  0.1066
15556TIP3    H268160   1.779   4.918  15.313 -0.9406  0.7157 -1.4830
15557TIP3   OH268161   0.150   3.702   1.824 -0.5513  0.2734 -0.7335
15557TIP3    H168162   0.095   3.779   1.837 -0.2862  0.3824 -0.2277
15557TIP3    H268163   0.235   3.726   1.862 -0.5312 -0.3373 -0.3759
15558TIP3   OH268164   4.769   5.835   1.762  0.6655 -0.5267 -0.8031
15558TIP3    H168165   4.807   5.872   1.842  1.3571 -3.2029  0.2438
15558TIP3    H268166   4.795   5.896   1.693 -1.2935  2.7704  1.0861
15559TIP3   OH268167   1.077   2.051  14.804  0.0755 -0.1567 -0.4522
15559TIP3    H168168   1.162   2.093  14.791  0.0119 -0.3559 -1.6404
15559TIP3    H268169   1.073   1.985  14.735  0.2111 -2.2225  1.4058
15560TIP3   OH268170   4.694   2.185  16.979  0.2188 -0.2116 -0.1791
15560TIP3    H168171   4.651   2.114  17.028 -1.3202  0.5044 -0.4325
15560TIP3    H268172   4.636   2.201  16.905  0.8847  0.8756 -0.4834
15561TIP3   OH268173   3.163   5.579   1.908 -0.4902 -0.6173 -0.3923
15561TIP3    H168174   3.115   5.578   1.825 -0.9960 -1.7452 -0.1088
15561TIP3    H268175   3.118   5.646   1.961  0.9336  1.4087 -1.6055
15562TIP3   OH268176   4.386   2.201  13.128  0.0101  0.6083 -0.0288
15562TIP3    H168177   4.371   2.291  13.154 -1.4779  0.4648 -0.3248
15562TIP3    H268178   4.355   2.149  13.202 -0.0813  0.3134 -0.2700
15563TIP3   OH268179   5.307   3.016   2.696 -0.0035 -0.4149 -0.0914
15563TIP3    H168180   5.268   2.940   2.741 -1.2994 -0.8561 -1.8688
15563TIP3    H268181   5.308   2.992   2.604 -0.2055  1.6371 -0.6799
15564TIP3   OH268182   3.324   5.955   4.403  0.0480 -0.0969  0.6666
15564TIP3    H168183   3.418   5.972   4.401 -0.0040  0.0985 -0.7635
15564TIP3    H268184   3.316   5.860   4.402  0.2257 -0.1530  2.0932
15565TIP3   OH268185   3.681   4.927  13.792 -0.3150  0.2005 -0.6846
15565TIP3    H168186   3.607   4.929  13.853 -0.6676  0.2157 -1.1075
15565TIP3    H268187   3.699   5.019  13.774  0.8255  0.2617  0.6238
15566TIP3   OH268188   5.683   0.249   4.750  0.1696  0.2536  0.1605
15566TIP3    H168189   5.725   0.321   4.703 -1.0101  0.1237 -1.1448
15566TIP3    H268190   5.631   0.292   4.818  1.6554  0.4562  1.2209
15567TIP3   OH268191   3.417   4.931  16.265  0.2345 -0.0371 -0.8620
15567TIP3    H168192   3.477   4.857  16.255 -0.3339 -0.2794 -2.8991
15567TIP3    H268193   3.384   4.923  16.355  0.8876 -1.7224 -0.7390
15568TIP3   OH268194   5.491   1.513   5.772 -0.9375  0.3764 -0.0663
15568TIP3    H168195   5.461   1.563   5.848 -0.8188  0.1267  0.1487
15568TIP3    H268196   5.439   1.432   5.774 -1.6921  0.8256 -0.8685
15569TIP3   OH268197   5.570   0.047  16.812 -0.4775 -0.0524  0.1408
15569TIP3    H168198   5.496   0.079  16.863  0.8582  0.4621  1.8713
15569TIP3    H268199   5.599  -0.031  16.858  0.3029 -0.0073 -0.2543
15570TIP3   OH268200   6.475   3.210  17.096 -0.1032 -0.1802 -0.0727
15570TIP3    H168201   6.543   3.151  17.127 -0.3782 -0.0172  0.8633
15570TIP3    H268202   6.395   3.157  17.095 -0.1720 -0.0770 -0.1401
15571TIP3   OH268203   5.647   3.413  10.549  0.3963  0.0053 -0.3296
15571TIP3    H168204   5.638   3.426  10.455 -1.7252  1.0445 -0.0409
15571TIP3    H268205   5.567   3.366  10.574  1.4965 -1.3409  0.7993
15572TIP3   OH268206   2.192   6.591   0.651  0.2961  0.3442 -0.0894
15572TIP3    H168207   2.144   6.533   0.710 -0.0858  0.7820  0.0366
15572TIP3    H268208   2.132   6.664   0.636 -0.3778 -0.6285 -2.4971
15573TIP3   OH268209   1.013   1.590   1.891 -0.8432  0.0648  0.0759
15573TIP3    H168210   1.101   1.587   1.928 -0.7506 -0.3347 -0.1794
15573TIP3    H268211   0.997   1.502   1.858 -0.5953  0.6221 -1.6240
15574TIP3   OH268212   1.865   1.158   3.672 -0.3904  0.1762 -0.2568
15574TIP3    H168213   1.782   1.176   3.628 -1.1934 -0.4747  0.9238
15574TIP3    H268214   1.843   1.158   3.766  0.8395 -0.5012  0.0522
15575TIP3   OH268215   5.786   1.999   0.972 -0.1460 -0.3787 -0.3953
15575TIP3    H168216   5.733   1.935   1.019 -0.6244 -0.2986 -0.8168
15575TIP3    H268217   5.876   1.973   0.989 -0.0376  1.9321  3.9345
15576TIP3   OH268218   3.731   6.318   0.765 -0.1676 -0.1471 -0.4467
15576TIP3    H168219   3.636   6.319   0.755 -0.5507 -2.3331  1.9618
15576TIP3    H268220   3.746   6.302   0.858  2.5901  0.0927 -0.7492
15577TIP3   OH268221   5.257   6.725   3.914 -0.2404 -0.2139 -0.3059
15577TIP3    H168222   5.292   6.740   3.826  0.1255 -1.6951 -0.4288
15577TIP3    H268223   5.327   6.754   3.972 -1.0032  2.0783 -0.4313
15578TIP3   OH268224   4.566   6.025  16.006  0.3054 -0.4177 -0.2815
15578TIP3    H168225   4.580   6.051  16.097  1.4789  0.5990 -0.7138
15578TIP3    H268226   4.490   6.076  15.978 -0.8964 -1.7253  0.4775
15579TIP3   OH268227   0.845   4.537  11.489  0.3149 -0.2802 -0.0037
15579TIP3    H168228   0.888   4.564  11.570 -1.9606 -0.2521  1.2751
15579TIP3    H268229   0.882   4.451  11.469  3.2503  1.0670 -0.7924
15580TIP3   OH268230   0.468   1.078   1.014 -0.1575 -0.6067 -0.1612
15580TIP3    H168231   0.542   1.128   0.981 -0.1642 -0.0927  0.5758
15580TIP3    H268232   0.413   1.142   1.059 -0.2667 -1.2314  0.6246
15581TIP3   OH268233   0.045   5.477   4.175 -0.4072 -0.0384  0.1969
15581TIP3    H168234   0.021   5.393   4.214  1.1088 -0.6222 -0.0325
15581TIP3    H268235   0.136   5.491   4.203 -0.1609  0.8231 -0.9481
15582TIP3   OH268236   2.022   4.097  14.806 -0.1929  0.3164 -0.4166
15582TIP3    H168237   1.983   4.134  14.885 -0.7291  1.3138 -1.1305
15582TIP3    H268238   2.116   4.113  14.816  0.1174 -1.8879  1.2032
15583TIP3   OH268239   2.415   2.854  14.753 -0.1853  0.3932  0.2386
15583TIP3    H168240   2.341   2.836  14.811 -0.3383  2.4618  0.7472
15583TIP3    H268241   2.492   2.846  14.810 -0.2964  1.8598  0.6214
15584TIP3   OH268242   2.021   1.902   3.680  0.2521  0.3420  0.6661
15584TIP3    H168243   2.022   1.811   3.650 -1.1015  0.4029  0.3753
15584TIP3    H268244   2.009   1.953   3.600 -0.1983  0.7026  0.9611
15585TIP3   OH268245   3.164   0.502  14.580 -0.3728 -0.2415  0.4657
15585TIP3    H168246   3.192   0.411  14.582  0.6705  0.0705  0.5381
15585TIP3    H268247   3.234   0.550  14.624  0.0897  0.8425 -1.3544
15586TIP3   OH268248   1.532   0.921  11.029  0.1895 -0.4166 -0.7806
15586TIP3    H168249   1.462   0.928  11.093  0.8518 -0.7679 -0.0030
15586TIP3    H268250   1.542   0.827  11.013  2.3924 -0.6326  1.3173
15587TIP3   OH268251   0.953   5.013  12.750 -0.6411  0.1475  0.3049
15587TIP3    H168252   0.880   5.011  12.811 -0.8057 -2.6553  0.1343
15587TIP3    H268253   1.012   4.943  12.779  1.8820  2.0972  0.2580
15588TIP3   OH268254   4.578   5.956  12.970 -0.0048  0.8183 -0.5694
15588TIP3    H168255   4.602   5.987  13.057  1.1801 -0.8606 -0.2360
15588TIP3    H268256   4.645   5.891  12.949 -3.5710 -3.5390  0.0006
15589TIP3   OH268257   4.043   3.267   2.481  0.1461 -0.2853 -0.0562
15589TIP3    H168258   4.010   3.267   2.391 -0.7590  0.0518  0.2661
15589TIP3    H268259   4.133   3.235   2.473 -0.1630 -0.9716 -0.9883
15590TIP3   OH268260   4.205   5.123  14.506 -0.1684  0.3658 -0.1544
15590TIP3    H168261   4.206   5.217  14.523  0.5428  0.5970 -1.3365
15590TIP3    H268262   4.129   5.110  14.449 -0.1967  0.2424 -0.0894
15591TIP3   OH268263   2.580   5.281  14.632 -0.3071 -0.2772  0.2010
15591TIP3    H168264   2.671   5.293  14.604 -0.8283 -0.0083 -1.5043
15591TIP3    H268265   2.529   5.293  14.552 -1.7980 -1.1553  0.9808
15592TIP3   OH268266   3.425   6.598  12.106  0.0388  0.0803  0.6186
15592TIP3    H168267   3.387   6.662  12.166 -2.9567  1.1456 -2.1053
15592TIP3    H268268   3.391   6.514  12.135 -4.8172  0.9607 -1.5299
15593TIP3   OH268269   2.379   5.179  12.615 -0.2090  0.0553 -0.4449
15593TIP3    H168270   2.323   5.239  12.664 -2.4194 -2.6148  0.5320
15593TIP3    H268271   2.325   5.151  12.541  0.5043 -1.2630 -0.4900
15594TIP3   OH268272   6.834   5.781  12.868 -0.0160 -0.4469 -0.5615
15594TIP3    H168273   6.767   5.782  12.799  0.5870  0.0607 -1.1583
15594TIP3    H268274   6.837   5.690  12.897 -1.5320 -0.3388  0.0526
15595TIP3   OH268275   1.927   3.883  11.874  0.1876  0.0147  0.1736
15595TIP3    H168276   1.909   3.958  11.931 -0.4040  1.3956 -1.7589
15595TIP3    H268277   2.020   3.865  11.887  0.1401  0.4979  1.2972
15596TIP3   OH268278   6.654   5.341   2.257 -0.4329  0.7713 -0.5037
15596TIP3    H168279   6.721   5.400   2.221  0.1407  1.7500  1.9449
15596TIP3    H268280   6.688   5.253   2.240  0.5730  1.2172 -0.9164
15597TIP3   OH268281   4.086   6.812  15.689 -1.1997 -0.2893  0.0250
15597TIP3    H168282   4.075   6.835  15.596 -1.1912  0.9400  0.3049
15597TIP3    H268283   4.085   6.717  15.691 -0.4763 -0.3552 -1.3375
15598TIP3   OH268284   3.702   4.434   5.682 -0.1075 -0.4918 -0.2720
15598TIP3    H168285   3.648   4.450   5.759 -0.3948 -0.5628 -0.4585
15598TIP3    H268286   3.790   4.462   5.708 -0.0183 -1.3427  0.3799
15599TIP3   OH268287   0.813   0.538   5.335  0.6733 -0.1495 -0.2432
15599TIP3    H168288   0.777   0.556   5.248  0.8681  1.0527 -0.0851
15599TIP3    H268289   0.906   0.555   5.326  0.8612 -1.0003 -0.0408
15600TIP3   OH268290   5.223   2.524  12.378  0.3700  0.1038  0.0694
15600TIP3    H168291   5.177   2.540  12.461  0.7517 -1.4069  0.6109
15600TIP3    H268292   5.153   2.521  12.312  0.1294  2.1471  0.1487
15601TIP3   OH268293   1.394   6.653  13.521  0.1326  0.1421  0.0580
15601TIP3    H168294   1.339   6.677  13.596  0.9713 -0.0487  0.7490
15601TIP3    H268295   1.355   6.572  13.488 -0.7351  0.6676 -0.2352
15602TIP3   OH268296   2.742   1.400   3.780 -0.4362 -0.4563  0.1478
15602TIP3    H168297   2.707   1.377   3.866  1.9310  0.3826  1.4452
15602TIP3    H268298   2.819   1.343   3.770  0.7346  1.1397 -0.2703
15603TIP3   OH268299   1.591   0.739  15.215 -0.7201  0.1359  0.1861
15603TIP3    H168300   1.538   0.664  15.188 -0.3126 -0.1441  0.1452
15603TIP3    H268301   1.540   0.781  15.284 -0.1072 -1.3328  1.6107
15604TIP3   OH268302   6.227   4.412  16.285  0.6991 -0.1809 -0.2341
15604TIP3    H168303   6.218   4.319  16.268 -0.2902 -0.1623  0.1679
15604TIP3    H268304   6.321   4.424  16.302  0.9655 -0.9544 -1.1012
15605TIP3   OH268305   1.760   2.404   5.441 -0.2274 -0.1680  0.0416
15605TIP3    H168306   1.777   2.462   5.367  0.7995 -2.7174 -1.9111
15605TIP3    H268307   1.666   2.409   5.455 -0.0525  2.6097  0.6091
15606TIP3   OH268308   1.064   6.580  12.254 -0.4124 -0.3581 -0.3102
15606TIP3    H168309   1.042   6.672  12.263  0.7938 -0.2579  3.1899
15606TIP3    H268310   1.039   6.541  12.338 -2.0295 -3.5614 -2.0792
15607TIP3   OH268311   5.016   6.502   4.640 -0.1773 -0.3559 -0.3220
15607TIP3    H168312   5.090   6.453   4.675 -0.1585 -0.6626 -0.7805
15607TIP3    H268313   5.043   6.527   4.551  0.9651  2.9037  0.7645
15608TIP3   OH268314   5.083   1.901   3.078 -0.3706  0.2186 -0.5319
15608TIP3    H168315   5.064   1.922   2.987 -1.3390 -1.6597 -0.8042
15608TIP3    H268316   5.143   1.971   3.106 -0.6414  1.2594 -2.3504
15609TIP3   OH268317   5.834   2.851  13.072 -0.3987 -0.5541  0.0688
15609TIP3    H168318   5.832   2.911  12.998 -0.4609  0.3138  0.7455
15609TIP3    H268319   5.812   2.907  13.148  0.5544 -1.2160  0.8588
15610TIP3   OH268320   4.671   5.302   5.629  0.3431 -0.5208  0.0154
15610TIP3    H168321   4.644   5.342   5.712  1.8104  0.3601  0.0973
15610TIP3    H268322   4.702   5.215   5.653 -1.2963 -1.1222  0.0663
15611TIP3   OH268323   4.956   0.500  10.744 -0.1612 -0.1929  0.1477
15611TIP3    H168324   4.892   0.470  10.809  1.6679  1.0869  2.7530
15611TIP3    H268325   4.979   0.588  10.773  2.2033 -0.3250 -1.0776
15612TIP3   OH268326   2.444   0.535  15.077  0.0856  0.0088  0.2527
15612TIP3    H168327   2.406   0.448  15.078 -1.0003  0.4361 -0.9344
15612TIP3    H268328   2.391   0.586  15.138 -1.3518  0.5959 -1.3782
15613TIP3   OH268329   5.796   2.515  15.488 -0.0169 -0.2069 -0.0563
15613TIP3    H168330   5.807   2.420  15.481 -4.4356 -1.0847  1.6854
15613TIP3    H268331   5.815   2.534  15.580 -1.1516  0.1996  0.1028
15614TIP3   OH268332   0.368   1.312  14.165 -0.0436 -0.3965 -0.6075
15614TIP3    H168333   0.285   1.352  14.189  0.0021  0.1738 -1.3533
15614TIP3    H268334   0.399   1.270  14.245 -0.4581  0.4327  0.0027
15615TIP3   OH268335   1.033   2.959   5.497  0.4340 -0.1787 -0.5215
15615TIP3    H168336   0.981   3.011   5.559  0.7040  0.2824 -0.6739
15615TIP3    H268337   0.969   2.921   5.437  0.2655  0.3939 -0.7146
15616TIP3   OH268338   6.119   5.599  12.944  0.0885  0.4501 -0.1775
15616TIP3    H168339   6.119   5.554  12.860  1.1444 -0.7109  0.4138
15616TIP3    H268340   6.081   5.535  13.005 -2.5270  1.9647 -0.0595
15617TIP3   OH268341   6.539   2.865  13.117  0.3719  0.8700 -0.1265
15617TIP3    H168342   6.471   2.918  13.159 -0.4912 -1.0025  0.9791
15617TIP3    H268343   6.504   2.776  13.118  2.5730 -0.0589 -0.1667
15618TIP3   OH268344   1.127   5.139  15.831  0.4427  0.1099 -0.0290
15618TIP3    H168345   1.118   5.187  15.749 -3.1169 -0.8894 -0.3658
15618TIP3    H268346   1.172   5.058  15.807 -0.2326 -0.0040 -0.9553
15619TIP3   OH268347   0.774   4.139   1.402  0.0364 -0.5160  0.2452
15619TIP3    H168348   0.689   4.166   1.437 -0.2557 -3.3861  2.0970
15619TIP3    H268349   0.765   4.146   1.307 -1.3449  1.5695  0.4630
15620TIP3   OH268350   1.681   0.889   3.847 -0.6216 -0.1513  0.0322
15620TIP3    H168351   1.629   0.813   3.873  0.4735 -0.4773  1.3874
15620TIP3    H268352   1.771   0.856   3.844 -0.1115  1.1256  0.8033
15621TIP3   OH268353   5.657   1.030   3.169  0.1295  0.0975 -0.0337
15621TIP3    H168354   5.751   1.014   3.161  0.1414  0.0706  0.1702
15621TIP3    H268355   5.618   0.943   3.161  0.1142  0.1204 -0.2221
15622TIP3   OH268356   4.168   1.897   4.515  0.8029  0.1514 -0.3970
15622TIP3    H168357   4.217   1.819   4.540  1.4337  0.9112  0.8491
15622TIP3    H268358   4.079   1.881   4.545  1.0141  0.0558  0.1895
15623TIP3   OH268359   3.650   4.215   6.260  0.3040 -0.0996  0.1238
15623TIP3    H168360   3.642   4.303   6.297  0.0215  0.7146 -1.8020
15623TIP3    H268361   3.671   4.228   6.168  1.7086 -2.0779  0.0924
15624TIP3   OH268362   6.045   1.344  14.685 -0.2500 -0.0329  0.9488
15624TIP3    H168363   6.115   1.292  14.645  0.4057  0.3651  1.5466
15624TIP3    H268364   6.092   1.409  14.738 -1.0815  0.1581  1.4585
15625TIP3   OH268365   3.262   2.209   1.209 -0.0248 -0.1092 -0.0457
15625TIP3    H168366   3.289   2.211   1.301  0.2229  1.4018 -0.1268
15625TIP3    H268367   3.205   2.133   1.203 -1.2971  0.6266  1.7403
15626TIP3   OH268368   2.182   2.340  14.028  1.2530 -0.2499  0.0553
15626TIP3    H168369   2.088   2.354  14.040  1.1551  0.1830 -1.1083
15626TIP3    H268370   2.223   2.418  14.065  1.1648 -0.4185  0.5213
15627TIP3   OH268371   2.276   4.179  14.843  0.0577 -0.0837 -0.2143
15627TIP3    H168372   2.254   4.269  14.821  0.5881 -0.1527 -1.0590
15627TIP3    H268373   2.371   4.174  14.835  0.0346 -0.7156 -0.1812
15628TIP3   OH268374   2.065   3.045  15.632 -0.3549 -0.1838  0.2439
15628TIP3    H168375   1.971   3.037  15.641 -0.2683  0.5616  2.2995
15628TIP3    H268376   2.101   2.993  15.704  0.6777  1.7555  1.2251
15629TIP3   OH268377   5.053   4.240   2.811  0.3038 -0.4453 -0.0459
15629TIP3    H168378   5.133   4.225   2.862  0.1637 -1.0143  0.0199
15629TIP3    H268379   4.989   4.270   2.875  0.6392  0.6455 -0.2088
15630TIP3   OH268380   2.866   4.971   4.945 -0.2563  0.4012 -0.1946
15630TIP3    H168381   2.830   4.959   5.033 -0.1197  2.2811  0.1464
15630TIP3    H268382   2.799   5.019   4.898 -0.6520 -1.2439 -1.4002
15631TIP3   OH268383   0.843   5.509  12.874  0.1654 -0.3815 -0.5418
15631TIP3    H168384   0.884   5.590  12.844 -0.3550  0.2347  0.3524
15631TIP3    H268385   0.861   5.446  12.805  1.5156  0.2008 -0.7591
15632TIP3   OH268386   3.716   3.938   1.413 -0.3984 -0.0262 -0.3487
15632TIP3    H168387   3.633   3.985   1.406 -1.1585 -0.8163  2.2166
15632TIP3    H268388   3.762   3.981   1.485 -0.1728 -1.7928  0.6259
15633TIP3   OH268389   0.185   5.147   2.944 -0.6137 -1.1681 -0.8318
15633TIP3    H168390   0.261   5.203   2.962 -0.2903 -1.1446 -2.1637
15633TIP3    H268391   0.218   5.058   2.953 -1.1272 -1.1879  1.2834
15634TIP3   OH268392   5.684   3.289  15.581  0.3832  0.3595 -0.5743
15634TIP3    H168393   5.771   3.251  15.592  0.1666  0.0696  0.2340
15634TIP3    H268394   5.696   3.361  15.520  1.2698  0.6149 -0.1086
15635TIP3   OH268395   2.430   5.477  13.794 -0.0007 -0.5663 -0.3239
15635TIP3    H168396   2.394   5.419  13.861  0.6812  0.4663  0.9757
15635TIP3    H268397   2.491   5.533  13.841 -0.5250  1.1208 -1.5538
15636TIP3   OH268398   5.971   1.924  12.536  0.4555  0.5168  0.2278
15636TIP3    H168399   6.015   1.851  12.581 -0.1362 -0.3243 -0.5052
15636TIP3    H268400   6.013   2.002  12.570  0.1955 -0.0941  2.0684
15637TIP3   OH268401   3.827   5.999  14.184  0.0961 -0.4379 -0.3949
15637TIP3    H168402   3.884   6.069  14.152 -2.0883  2.1303  0.9482
15637TIP3    H268403   3.739   6.027  14.160 -1.0818 -1.5161  2.2534
15638TIP3   OH268404   5.836   4.139   2.824  1.4552 -0.1957 -0.6197
15638TIP3    H168405   5.875   4.090   2.896  0.9783  1.6463  0.9771
15638TIP3    H268406   5.792   4.072   2.770  2.0282 -1.6533  0.6504
15639TIP3   OH268407   5.188   2.786   2.771 -0.3870 -0.2160  0.2409
15639TIP3    H168408   5.178   2.691   2.764 -1.4150 -0.1006 -0.0021
15639TIP3    H268409   5.100   2.818   2.789  0.4084  0.4078  3.8409
15640TIP3   OH268410   5.465   5.770   0.959 -0.2981  0.3281  0.0630
15640TIP3    H168411   5.507   5.710   1.020  2.1478  0.8929 -0.9328
15640TIP3    H268412   5.433   5.842   1.014  0.0352 -0.1390  0.8810
15641TIP3   OH268413   5.636   2.154   2.608 -0.1845  0.3033 -0.0056
15641TIP3    H168414   5.695   2.138   2.682 -1.1187  0.6263  0.8225
15641TIP3    H268415   5.575   2.081   2.610 -0.3779  0.4575 -0.2965
15642TIP3   OH268416   6.094   2.794  13.604  0.4789 -0.1831  0.2430
15642TIP3    H168417   6.183   2.794  13.569  0.6957 -2.6176  0.5973
15642TIP3    H268418   6.100   2.846  13.684  1.8859 -1.2321  0.8617
15643TIP3   OH268419   2.429   3.372  14.208 -0.1857 -0.6081  0.5056
15643TIP3    H168420   2.494   3.310  14.173 -0.2790  0.0145 -0.8315
15643TIP3    H268421   2.449   3.377  14.301  1.6414 -0.5223  0.1492
15644TIP3   OH268422   6.784   5.898   4.347 -0.3550  0.1023  0.1337
15644TIP3    H168423   6.785   5.976   4.402 -0.2673 -0.5119  1.0132
15644TIP3    H268424   6.722   5.839   4.390  0.5354 -0.8155  0.1891
15645TIP3   OH268425   2.282   2.527   6.345 -0.1801  0.3242  0.0322
15645TIP3    H168426   2.297   2.614   6.381 -1.2067  0.7467 -0.5142
15645TIP3    H268427   2.209   2.492   6.395 -0.0544 -0.0460 -0.0400
15646TIP3   OH268428   4.001   5.781   5.687  0.2163 -0.7121 -0.0869
15646TIP3    H168429   4.032   5.763   5.775  0.6014  2.6317  0.5945
15646TIP3    H268430   3.910   5.807   5.698  0.0193 -1.0582 -0.7988
15647TIP3   OH268431   0.342   0.744  15.603  0.0502 -0.3676  0.1850
15647TIP3    H168432   0.393   0.754  15.522  0.5256 -0.9571  0.4039
15647TIP3    H268433   0.342   0.650  15.620 -1.0449 -0.3701  0.2415
15648TIP3   OH268434   2.119   4.073   4.060  0.1633 -0.1321 -0.0035
15648TIP3    H168435   2.032   4.094   4.093 -0.5064 -1.8234 -0.5570
15648TIP3    H268436   2.165   4.156   4.057 -1.2061  0.6987  0.9536
15649TIP3   OH268437   1.796   3.405  16.643  0.2327 -0.3546  0.3724
15649TIP3    H168438   1.838   3.488  16.668  1.1477 -1.2422  1.8753
15649TIP3    H268439   1.867   3.353  16.605 -0.2819 -0.5848 -0.3048
15650TIP3   OH268440   3.510   1.334  12.452  0.0667  0.2865  0.1399
15650TIP3    H168441   3.498   1.418  12.407  0.4635  0.2212 -0.0922
15650TIP3    H268442   3.534   1.274  12.382 -0.6123 -0.1137  0.2426
15651TIP3   OH268443   2.089   6.527  16.556  0.0903 -0.0344  0.2548
15651TIP3    H168444   2.073   6.489  16.469 -0.6728 -0.2634  0.4889
15651TIP3    H268445   2.026   6.484  16.613  1.3267 -0.6976  1.1649
15652TIP3   OH268446   0.571   4.414  12.995 -0.1945 -0.6518 -0.2534
15652TIP3    H168447   0.665   4.412  12.977 -0.4313 -0.5822 -1.6339
15652TIP3    H268448   0.554   4.503  13.025  0.0746 -0.4295 -0.7392
15653TIP3   OH268449   2.241   6.675   2.845  0.5470  0.0526 -0.3558
15653TIP3    H168450   2.172   6.741   2.839  1.2117  0.9950  1.4524
15653TIP3    H268451   2.204   6.606   2.900  0.2522 -0.5785 -1.3181
15654TIP3   OH268452   0.101   3.120  14.587  0.1588  0.5079  0.3020
15654TIP3    H168453   0.029   3.084  14.638 -0.1605  1.2721  0.3986
15654TIP3    H268454   0.113   3.208  14.621  0.8991  0.5177  0.0372
15655TIP3   OH268455   6.007   0.388   4.894  0.0374 -0.2142 -0.1786
15655TIP3    H168456   6.003   0.306   4.846 -0.4171 -0.6691  0.5989
15655TIP3    H268457   5.993   0.456   4.828  0.8895 -0.7285 -0.9020
15656TIP3   OH268458   0.238   0.778  12.296 -0.2727 -0.7859  0.1963
15656TIP3    H168459   0.307   0.797  12.233 -1.0756  1.1208 -0.1860
15656TIP3    H268460   0.277   0.800  12.381  0.0766 -1.1665  0.1352
15657TIP3   OH268461   3.668   1.919  12.934  0.3957  0.1931 -0.0308
15657TIP3    H168462   3.639   1.975  12.862  0.0559  0.4637  0.3063
15657TIP3    H268463   3.705   1.980  12.998 -2.0985  0.3587  1.3868
15658TIP3   OH268464   4.420   1.749   3.051  0.2522 -0.3197 -0.3230
15658TIP3    H168465   4.387   1.659   3.049  1.3632 -0.7169 -2.2459
15658TIP3    H268466   4.510   1.743   3.022  0.7774  1.2858  0.8235
15659TIP3   OH268467   6.341   2.125   0.661  0.1226 -0.5090  0.0623
15659TIP3    H168468   6.366   2.207   0.619 -3.5792  0.0114 -1.5333
15659TIP3    H268469   6.336   2.061   0.590  2.0104 -1.9701  1.1390
15660TIP3   OH268470   5.955   4.064  11.501 -0.4708 -0.3102 -0.4037
15660TIP3    H168471   5.905   3.983  11.503 -0.7185 -0.1465  0.2471
15660TIP3    H268472   5.894   4.130  11.470  0.1826 -0.6550 -2.6304
15661TIP3   OH268473   1.951   5.526   5.117  0.4022  0.0044  0.4872
15661TIP3    H168474   1.893   5.597   5.091  0.0030 -0.4543  0.1017
15661TIP3    H268475   1.910   5.447   5.081  1.6105 -0.2576 -0.3984
15662TIP3   OH268476   1.640   5.694  12.033  0.4406  0.0021 -0.0990
15662TIP3    H168477   1.637   5.788  12.049 -1.3618  0.0822 -0.6240
15662TIP3    H268478   1.699   5.684  11.958  2.5017  0.4237  1.3806
15663TIP3   OH268479   0.595   4.651  16.973  0.5131  0.3297 -0.1696
15663TIP3    H168480   0.501   4.654  16.952  0.3407  1.9087  0.7265
15663TIP3    H268481   0.627   4.575  16.924 -1.4355 -0.9334  0.3679
15664TIP3   OH268482   4.704   6.485  12.159 -0.4552 -0.3871 -0.5064
15664TIP3    H168483   4.796   6.486  12.183 -0.7797 -0.4817  0.8202
15664TIP3    H268484   4.662   6.431  12.226 -1.3807 -0.9178 -1.4718
15665TIP3   OH268485   3.737   5.287  12.681 -0.4690  0.4103 -0.3440
15665TIP3    H168486   3.683   5.364  12.663 -1.7793 -0.8635 -2.2016
15665TIP3    H268487   3.678   5.212  12.672  0.5705 -0.8393  2.2080
15666TIP3   OH268488   1.904   4.309   5.007  0.1981  0.2359 -0.5558
15666TIP3    H168489   1.980   4.333   4.954  0.2577  0.2954 -0.4465
15666TIP3    H268490   1.845   4.384   5.000  1.9209  2.1584  2.6899
15667TIP3   OH268491   4.875   0.854  17.049 -0.0497  0.7633 -0.4715
15667TIP3    H168492   4.953   0.832  16.999  0.5762  1.5898  0.1147
15667TIP3    H268493   4.820   0.904  16.988  0.0904  0.5858 -0.7436
15668TIP3   OH268494   6.716   2.706  11.872  0.0210  0.3886 -0.0129
15668TIP3    H168495   6.714   2.723  11.778  1.0141  0.4891 -0.0250
15668TIP3    H268496   6.740   2.613  11.878  2.3948  0.9587  0.1501
15669TIP3   OH268497   4.922   5.851  11.401  0.5562 -0.2894  0.2291
15669TIP3    H168498   4.966   5.872  11.319 -0.5274  1.6722  0.1099
15669TIP3    H268499   4.919   5.933  11.450 -2.8634 -0.2619  0.2490
15670TIP3   OH268500   1.792   4.084  14.487 -0.5628 -0.4276 -0.1199
15670TIP3    H168501   1.827   4.158  14.536 -1.6152  0.2711 -0.4060
15670TIP3    H268502   1.824   4.007  14.535  1.7688  0.1353 -0.6585
15671TIP3   OH268503   2.600   1.430  13.497  0.1608  0.0589 -0.0374
15671TIP3    H168504   2.624   1.340  13.476  2.4628  0.6820 -0.3830
15671TIP3    H268505   2.666   1.483  13.451 -1.6326  1.9680 -0.5295
15672TIP3   OH268506   5.687   0.851   3.466 -0.4398 -0.4050 -0.2407
15672TIP3    H168507   5.728   0.778   3.420 -0.4153  0.1658 -1.1407
15672TIP3    H268508   5.596   0.852   3.435 -0.9206 -1.1194  1.0848
15673TIP3   OH268509   5.388   2.613  12.134  0.4905  0.1872  0.1597
15673TIP3    H168510   5.479   2.641  12.142  0.1367  1.1496  1.0252
15673TIP3    H268511   5.364   2.585  12.223 -0.1546  0.2312  0.0043
15674TIP3   OH268512   1.711   6.404   1.915  0.3155 -0.4086 -0.7541
15674TIP3    H168513   1.677   6.351   1.987  0.6491  0.3578 -0.0127
15674TIP3    H268514   1.661   6.376   1.839 -0.1681 -1.1137 -0.1906
15675TIP3   OH268515   4.702   2.945  11.290 -0.0335 -0.4193 -0.2371
15675TIP3    H168516   4.646   2.895  11.349  0.6579  0.8390  1.5737
15675TIP3    H268517   4.641   3.001  11.242 -0.4650  0.3218  1.1049
15676TIP3   OH268518   6.188   1.624   0.308 -1.1331  0.4423 -0.0258
15676TIP3    H168519   6.202   1.689   0.238  1.4829 -0.0780 -0.0838
15676TIP3    H268520   6.118   1.568   0.275 -0.5048  0.6978 -1.9065
15677TIP3   OH268521   4.087   6.752  11.334 -0.0151  0.1311 -0.6856
15677TIP3    H168522   4.150   6.722  11.268 -0.2685  0.7402 -1.2172
15677TIP3    H268523   4.067   6.842  11.309 -0.4005  0.2510  0.0149
15678TIP3   OH268524   0.207   6.551   2.162 -0.0837  0.0269 -0.3780
15678TIP3    H168525   0.166   6.513   2.240 -1.9454  0.2347 -1.1941
15678TIP3    H268526   0.135   6.560   2.099  1.1945  0.6727 -1.8197
15679TIP3   OH268527   6.252   3.879  16.217  0.1637  0.1484  0.3050
15679TIP3    H168528   6.256   3.872  16.312 -1.2686  0.5884  0.4272
15679TIP3    H268529   6.271   3.972  16.199  2.2119 -0.2795 -0.0055
15680TIP3   OH268530   0.684   2.581  13.525  1.1712  0.4492 -0.1128
15680TIP3    H168531   0.646   2.513  13.471  1.3921  0.1603  0.0926
15680TIP3    H268532   0.748   2.625  13.468 -0.1889  1.6217 -0.7944
15681TIP3   OH268533   2.817   2.160   3.663 -0.1551  0.0784  0.6789
15681TIP3    H168534   2.912   2.155   3.677 -0.1266 -2.9303  0.1713
15681TIP3    H268535   2.780   2.098   3.726 -1.1370 -3.2806 -2.7828
15682TIP3   OH268536   4.757   3.578   4.835 -0.4162  0.0256  0.3260
15682TIP3    H168537   4.846   3.604   4.857  0.5925 -1.9906 -1.0552
15682TIP3    H268538   4.730   3.640   4.767  1.0603 -0.9944 -1.2754
15683TIP3   OH268539   6.035   6.856  15.914  0.6944 -0.1051  0.1841
15683TIP3    H168540   6.089   6.846  15.835 -0.2644 -2.0515 -0.2960
15683TIP3    H268541   6.041   6.771  15.958 -1.1197 -0.0339  0.6521
15684TIP3   OH268542   3.625   0.860   2.572  0.4500 -0.0857 -0.5970
15684TIP3    H168543   3.583   0.896   2.650  0.0888  0.4316 -1.0313
15684TIP3    H268544   3.568   0.788   2.544 -0.1244  0.5674 -1.1426
15685TIP3   OH268545   4.250   6.183   0.694 -0.1576 -0.2987  0.2218
15685TIP3    H168546   4.300   6.196   0.774 -1.2379 -2.1606  1.2546
15685TIP3    H268547   4.175   6.242   0.702 -0.2267 -0.4314  0.5453
15686TIP3   OH268548   2.430   5.493   5.942  0.0723 -0.2173  0.3561
15686TIP3    H168549   2.398   5.551   6.011 -0.2836 -1.1652  1.0129
15686TIP3    H268550   2.497   5.544   5.897  0.7283  0.2325  1.7783
15687TIP3   OH268551   5.547   2.336  12.261  0.0717  0.0859  0.6205
15687TIP3    H168552   5.608   2.264  12.244  0.2983  0.0612  1.5231
15687TIP3    H268553   5.483   2.298  12.322 -0.5337  0.2766  0.1123
15688TIP3   OH268554   2.806   4.351   2.558 -0.2379  0.0155 -0.2985
15688TIP3    H168555   2.883   4.331   2.610  0.5578  0.3809 -1.3080
15688TIP3    H268556   2.740   4.288   2.588  0.0960  0.3802  1.3193
15689TIP3   OH268557   3.015   3.645  11.446  0.1573  0.0769  0.0278
15689TIP3    H168558   2.922   3.634  11.428 -0.3079 -1.4023  2.8055
15689TIP3    H268559   3.024   3.738  11.468 -0.5174  0.3541 -0.8125
15690TIP3   OH268560   0.934   3.436  13.632  0.0133 -0.0742 -0.0797
15690TIP3    H168561   1.003   3.493  13.664 -1.3247  0.6621  1.6659
15690TIP3    H268562   0.891   3.486  13.563  0.8012 -0.3008 -0.7591
15691TIP3   OH268563   3.365   4.087   3.229 -0.1088  0.2798 -0.0958
15691TIP3    H168564   3.350   4.181   3.216 -1.3766 -0.0257 -1.1241
15691TIP3    H268565   3.367   4.051   3.140  0.0462 -0.7226  0.2971
15692TIP3   OH268566   2.459   1.847   2.672  0.0022  0.5298 -0.3047
15692TIP3    H168567   2.473   1.756   2.698 -2.7799 -0.1643 -0.9155
15692TIP3    H268568   2.540   1.872   2.627  0.1877 -2.2446 -1.7067
15693TIP3   OH268569   5.058   4.961   6.202 -0.3320 -0.6070  0.9686
15693TIP3    H168570   5.118   4.926   6.136 -0.0127  0.3218  0.7572
15693TIP3    H268571   5.029   4.884   6.251  0.0746 -1.2086  0.2820
15694TIP3   OH268572   4.920   0.375   5.140 -0.4644  0.3720  0.2753
15694TIP3    H168573   5.001   0.373   5.089 -1.3130  0.0245 -1.1249
15694TIP3    H268574   4.855   0.412   5.080 -1.7635 -1.1327  0.6872
15695TIP3   OH268575   3.142   2.405  16.495 -0.2703  0.2475 -0.0025
15695TIP3    H168576   3.055   2.441  16.514 -0.8892 -1.3549  0.3536
15695TIP3    H268577   3.167   2.360  16.576  1.3432  1.4517  0.2432
15696TIP3   OH268578   0.622   5.241  15.702  0.0332  0.2593  0.0335
15696TIP3    H168579   0.692   5.216  15.641 -0.8831  0.3649 -1.0886
15696TIP3    H268580   0.617   5.168  15.763  0.5219 -0.1629 -0.4112
15697TIP3   OH268581   6.278   2.454  16.392 -0.5249 -0.4354  0.2592
15697TIP3    H168582   6.188   2.477  16.415 -0.8268 -0.5067 -0.7861
15697TIP3    H268583   6.302   2.385  16.454 -1.7081 -1.4360 -0.3531
15698TIP3   OH268584   4.486   4.782   2.059 -0.2209  0.9847 -0.3277
15698TIP3    H168585   4.449   4.726   2.128  0.4566  1.3275  0.3268
15698TIP3    H268586   4.566   4.818   2.097  0.7125  0.4052 -1.6441
15699TIP3   OH268587   3.219   2.376  13.047 -0.3654 -0.3869  0.3295
15699TIP3    H168588   3.277   2.437  13.002  0.1013 -0.9671  0.1427
15699TIP3    H268589   3.278   2.313  13.089 -0.7490  0.3411  2.0802
15700TIP3   OH268590   1.741   4.814  11.707  0.5801  0.1738 -0.1684
15700TIP3    H168591   1.830   4.848  11.708  0.8103 -0.4415  0.0445
15700TIP3    H268592   1.700   4.858  11.632  0.6879  1.3803  0.4462
15701TIP3   OH268593   3.173   1.049   2.151 -0.3347  0.5193  0.0672
15701TIP3    H168594   3.131   0.965   2.132 -1.6943  0.5750  2.4137
15701TIP3    H268595   3.101   1.106   2.179  0.7240  2.0840 -0.2694
15702TIP3   OH268596   4.054   3.492  13.866  1.0174 -0.2056  0.8624
15702TIP3    H168597   4.134   3.541  13.848 -0.3020  1.3811 -1.2346
15702TIP3    H268598   4.062   3.413  13.812  1.1859 -0.0654  0.6803
15703TIP3   OH268599   2.139   5.918  11.765  0.2124  0.0160 -0.5101
15703TIP3    H168600   2.184   5.840  11.732  0.0097 -0.1688 -0.3568
15703TIP3    H268601   2.195   5.950  11.835  1.0366  0.8562 -1.5332
15704TIP3   OH268602   3.939   1.692   0.182 -0.0486 -0.4293 -0.0207
15704TIP3    H168603   3.855   1.736   0.195  0.3845  0.4727 -0.1780
15704TIP3    H268604   3.964   1.714   0.092  0.5703 -0.2985  0.1760
15705TIP3   OH268605   0.380   5.315  12.983  0.4851  0.1071  0.2519
15705TIP3    H168606   0.336   5.357  13.057 -1.8839  0.0045 -0.9845
15705TIP3    H268607   0.398   5.387  12.922  2.3140  0.1757  0.8322
15706TIP3   OH268608   0.969   0.161  16.109 -0.1503  0.0566 -0.5347
15706TIP3    H168609   0.913   0.084  16.102 -0.8094  0.4641  0.0763
15706TIP3    H268610   1.050   0.136  16.064 -0.3413 -0.9906 -0.3290
15707TIP3   OH268611   5.996   2.053   6.230  0.0293  0.2720 -0.1798
15707TIP3    H168612   6.032   1.998   6.160 -0.2106 -3.4325  2.3513
15707TIP3    H268613   5.901   2.044   6.222 -0.0144  0.2761  0.3066
15708TIP3   OH268614   0.866   2.324   0.205  0.3932 -0.0179  1.0626
15708TIP3    H168615   0.779   2.349   0.238  0.3620  0.8254  0.3740
15708TIP3    H268616   0.858   2.328   0.110  1.7799  2.3294  0.9721
15709TIP3   OH268617   6.315   1.054  12.072 -0.5494 -0.4027 -0.9240
15709TIP3    H168618   6.331   1.147  12.086 -0.5008 -0.5247 -0.1321
15709TIP3    H268619   6.392   1.024  12.023 -0.0654 -0.2299 -0.2954
15710TIP3   OH268620   5.055   1.812   4.925  0.1630 -0.1076  0.3596
15710TIP3    H168621   5.074   1.737   4.869 -0.8653 -0.1028 -0.0111
15710TIP3    H268622   5.121   1.878   4.900  0.5852 -0.6036  0.1466
15711TIP3   OH268623   6.825   4.048  14.165 -0.5643  0.1968  0.3891
15711TIP3    H168624   6.876   4.108  14.219  0.6797 -0.1535 -0.3703
15711TIP3    H268625   6.765   4.005  14.227  0.9870 -0.3767  1.5667
15712TIP3   OH268626   4.567   1.505   4.535 -1.2261 -0.7336  0.7547
15712TIP3    H168627   4.528   1.426   4.573 -0.2600 -1.1365  0.9285
15712TIP3    H268628   4.511   1.524   4.460  0.0421 -3.1763 -0.9435
15713TIP3   OH268629   3.719   1.658  15.255  0.0574  0.4413  0.0321
15713TIP3    H168630   3.666   1.611  15.319  0.4262 -2.9035 -1.9013
15713TIP3    H268631   3.673   1.646  15.171  1.5119  1.3991 -0.9581
15714TIP3   OH268632   2.666   5.098  15.245  0.5128  0.5092 -0.1412
15714TIP3    H168633   2.644   5.009  15.215 -0.4145 -0.0914  2.0824
15714TIP3    H268634   2.589   5.126  15.294  0.8881  2.4926 -0.5833
15715TIP3   OH268635   1.359   5.823  12.194  0.2438 -0.0145 -0.0140
15715TIP3    H168636   1.446   5.856  12.173  0.5362 -0.4667  0.4483
15715TIP3    H268637   1.345   5.847  12.285 -0.8827  1.6623 -0.5804
15716TIP3   OH268638   5.502   5.326  11.687 -0.2684  0.0639 -0.0305
15716TIP3    H168639   5.554   5.359  11.761 -0.1369  0.1972 -0.1839
15716TIP3    H268640   5.554   5.347  11.610 -0.2175 -0.4337 -0.1342
15717TIP3   OH268641   2.938   3.873   3.529 -0.4263 -0.5251  0.1647
15717TIP3    H168642   2.911   3.910   3.445  0.7043  3.6421  1.4055
15717TIP3    H268643   3.032   3.858   3.519 -0.3041 -0.0978  0.6273
15718TIP3   OH268644   6.078   4.793   3.160 -0.2588 -0.3888  0.9005
15718TIP3    H168645   6.018   4.868   3.160  0.0725 -0.1161  1.5714
15718TIP3    H268646   6.045   4.737   3.089 -0.7972  0.1556  0.7021
15719TIP3   OH268647   0.823   5.629  11.824 -0.1828 -0.1410  0.3515
15719TIP3    H168648   0.917   5.650  11.821  0.2183 -1.5402  1.5915
15719TIP3    H268649   0.821   5.534  11.837 -1.8131 -0.3961 -1.3603
15720TIP3   OH268650   0.685   3.472  12.790  0.2252 -0.4474 -0.2804
15720TIP3    H168651   0.634   3.553  12.797  3.7303  2.0517 -1.1199
15720TIP3    H268652   0.707   3.450  12.880  2.0171  1.5646 -0.1666
15721TIP3   OH268653   5.263   5.125  12.294 -0.2334 -0.5816  1.0485
15721TIP3    H168654   5.318   5.186  12.244 -0.7528 -0.1263  1.0220
15721TIP3    H268655   5.315   5.045  12.300  1.1107  0.3349  2.3704
15722TIP3   OH268656   2.442   1.756  13.313 -0.7611  0.0779  0.2287
15722TIP3    H168657   2.387   1.748  13.391 -2.0634 -1.3600 -0.7634
15722TIP3    H268658   2.453   1.666  13.282 -0.8800  0.6587 -1.6318
15723TIP3   OH268659   2.362   3.595   4.438 -0.2144 -0.0340 -0.2079
15723TIP3    H168660   2.299   3.658   4.402 -0.6356 -0.3562 -0.0387
15723TIP3    H268661   2.445   3.644   4.441 -0.7393  0.8190  0.8339
15724TIP3   OH268662   0.541   2.727  16.081 -0.0398  0.0460  0.0560
15724TIP3    H168663   0.481   2.771  16.021 -0.6624  0.8454  1.2059
15724TIP3    H268664   0.628   2.739  16.043 -0.3385  1.2356 -0.2872
15725TIP3   OH268665   2.211   4.853   4.895  0.0739 -0.0134  0.2083
15725TIP3    H168666   2.242   4.789   4.831  0.2107  0.8166 -0.5810
15725TIP3    H268667   2.234   4.815   4.980  2.3268  0.0365 -0.2966
15726TIP3   OH268668   5.659   1.325  16.047 -0.7763  0.4541  0.0053
15726TIP3    H168669   5.735   1.370  16.011 -0.6319 -0.6416 -1.1323
15726TIP3    H268670   5.680   1.232  16.039 -1.4602  0.1455  1.4086
15727TIP3   OH268671   1.620   6.681  12.073 -0.2443  0.3168 -0.0555
15727TIP3    H168672   1.628   6.764  12.026 -0.5119  1.0519  1.1478
15727TIP3    H268673   1.540   6.691  12.125  0.3399 -0.2392  0.9739
15728TIP3   OH268674   2.465   4.446   0.645  0.3195  0.1678 -0.4698
15728TIP3    H168675   2.512   4.470   0.565  2.3501  0.0307  0.6296
15728TIP3    H268676   2.386   4.501   0.644 -0.8061 -1.2736 -3.5541
15729TIP3   OH268677   3.381   0.616  15.416 -0.4314 -0.5649  0.0765
15729TIP3    H168678   3.399   0.564  15.494  0.8225  0.0296  0.2106
15729TIP3    H268679   3.464   0.616  15.367 -0.5512  0.8340 -0.1827
15730TIP3   OH268680   1.787   2.905  11.395 -0.1640 -1.0434 -0.4118
15730TIP3    H168681   1.714   2.964  11.415 -0.4589 -0.0720 -3.7345
15730TIP3    H268682   1.843   2.910  11.473 -2.0255  0.7026  0.9444
15731TIP3   OH268683   4.924   2.158   0.471 -0.2295  0.2110  0.3175
15731TIP3    H168684   4.906   2.240   0.425 -0.1887  0.9219  1.5249
15731TIP3    H268685   4.875   2.164   0.552 -2.1413 -1.9993 -0.5404
15732TIP3   OH268686   0.567   0.344   0.432 -0.2851  0.2864  0.4050
15732TIP3    H168687   0.552   0.269   0.373 -2.4803 -0.0196  1.2656
15732TIP3    H268688   0.595   0.304   0.514 -1.1365  0.4162  0.7647
15733TIP3   OH268689   2.167   4.414  11.786  0.0809 -0.3141  0.3896
15733TIP3    H168690   2.153   4.494  11.735  1.3050 -0.4284 -0.1743
15733TIP3    H268691   2.216   4.356  11.728  0.7792 -0.7742  1.3891
15734TIP3   OH268692   6.702   5.695  14.702 -0.2432 -0.2930 -0.1925
15734TIP3    H168693   6.790   5.656  14.695  0.6469  1.4333  0.9155
15734TIP3    H268694   6.695   5.751  14.625  0.6561  1.4781  0.9637
15735TIP3   OH268695   1.198   5.366  10.852  0.0186  0.3602 -0.3775
15735TIP3    H168696   1.138   5.369  10.778  0.1507  1.5015 -0.4630
15735TIP3    H268697   1.246   5.284  10.841  0.3795  0.7410 -1.8422
15736TIP3   OH268698   3.746   1.353   3.697 -0.8044 -0.2026 -0.6609
15736TIP3    H168699   3.739   1.299   3.776 -0.6232 -0.5190 -0.8562
15736TIP3    H268700   3.831   1.328   3.660 -2.3221 -2.6636 -2.8307
15737TIP3   OH268701   1.219   3.483   4.234  0.3216  0.5866 -0.0154
15737TIP3    H168702   1.294   3.541   4.225  0.5947  0.1331 -0.6948
15737TIP3    H268703   1.143   3.539   4.219  0.5533  0.9057  0.0061
15738TIP3   OH268704   1.725   6.283  14.220 -0.5241  0.2791 -0.2447
15738TIP3    H168705   1.777   6.252  14.146  0.4107 -0.7190  0.7881
15738TIP3    H268706   1.656   6.336  14.181 -0.3491 -0.6374 -1.8596
15739TIP3   OH268707   5.722   6.374   3.909 -0.6154  0.3579 -0.5728
15739TIP3    H168708   5.702   6.394   4.000  1.5383  1.4746 -0.2794
15739TIP3    H268709   5.673   6.439   3.858 -0.7311  0.6142 -0.1324
15740TIP3   OH268710   1.719   1.176  11.563 -0.0195  0.0083 -0.2626
15740TIP3    H168711   1.671   1.119  11.503 -1.4717  1.3993 -0.4979
15740TIP3    H268712   1.674   1.166  11.647  1.1459 -0.8826  0.2895
15741TIP3   OH268713   1.944   6.157  16.603  0.1835  0.4119 -0.0665
15741TIP3    H168714   1.890   6.236  16.602 -0.3919  0.0283 -0.6681
15741TIP3    H268715   1.969   6.145  16.511  1.6985  0.8412  0.2701
15742TIP3   OH268716   3.435   4.301  14.209  0.4518  0.0157 -0.4570
15742TIP3    H168717   3.505   4.302  14.274  0.7352  1.2052 -0.7578
15742TIP3    H268718   3.356   4.327  14.257  1.0784  3.2874 -0.9726
15743TIP3   OH268719   6.251   6.766  10.968 -0.4195 -0.1471  0.2688
15743TIP3    H168720   6.290   6.808  10.891  0.5235 -0.7905  0.3875
15743TIP3    H268721   6.279   6.820  11.042 -1.6906  0.7289  0.1426
15744TIP3   OH268722   0.997   4.704  14.053  0.5683  0.5739 -0.6318
15744TIP3    H168723   0.956   4.722  13.968 -1.8631  0.0626  0.3400
15744TIP3    H268724   1.026   4.789  14.084 -1.7218  1.3860 -0.4907
15745TIP3   OH268725   4.323   4.668   5.112  0.1213 -0.1436 -0.0208
15745TIP3    H168726   4.381   4.623   5.173 -0.0710  0.0151  0.2844
15745TIP3    H268727   4.362   4.755   5.101 -0.0572 -0.0376  0.1830
15746TIP3   OH268728   6.105   0.847  14.020  0.3013  0.3819 -0.2126
15746TIP3    H168729   6.119   0.864  14.113  0.5953 -1.4131  0.1124
15746TIP3    H268730   6.193   0.842  13.983  0.3325 -2.0315  0.0667
15747TIP3   OH268731   2.672   4.983   0.462  0.3398 -0.1718 -0.3838
15747TIP3    H168732   2.713   4.940   0.387  1.4485 -0.1086  0.1512
15747TIP3    H268733   2.723   4.952   0.537  0.4488  1.1878  0.1329
15748TIP3   OH268734   5.690   2.355   3.757  0.2329  0.1260 -0.2253
15748TIP3    H168735   5.724   2.272   3.791 -1.8724 -0.4859  0.5727
15748TIP3    H268736   5.673   2.338   3.665  0.2559 -0.1869 -0.1736
15749TIP3   OH268737   0.965   0.215   1.365  0.3709  0.1957 -0.5041
15749TIP3    H168738   0.936   0.256   1.447  1.9114  1.1302 -0.3927
15749TIP3    H268739   1.000   0.130   1.392 -0.6590 -0.2290 -0.4360
15750TIP3   OH268740   3.165   2.406   5.667  0.2406  0.1451  0.4799
15750TIP3    H168741   3.113   2.440   5.593  0.7094  1.5455  0.7626
15750TIP3    H268742   3.233   2.353   5.626 -0.1394  0.0448 -0.0303
15751TIP3   OH268743   0.595   5.171  13.772 -0.0277  0.6157 -0.6199
15751TIP3    H168744   0.514   5.214  13.745 -0.7141  0.3157  0.8665
15751TIP3    H268745   0.583   5.153  13.865  2.1744  1.5397 -0.0898
15752TIP3   OH268746   1.703   6.738  14.748  0.2407 -0.4347  0.1096
15752TIP3    H168747   1.698   6.680  14.824  0.6368  0.0215  0.4901
15752TIP3    H268748   1.796   6.758  14.739 -0.0383  1.4055  0.9575
15753TIP3   OH268749   1.964   2.416  15.972 -0.1694  0.2879 -0.0935
15753TIP3    H168750   1.914   2.381  16.045 -0.4313 -1.1167 -0.9139
15753TIP3    H268751   1.950   2.354  15.900  0.7528  1.1753 -1.0908
15754TIP3   OH268752   1.176   3.218   1.090  0.2662  0.2429 -0.1609
15754TIP3    H168753   1.123   3.273   1.032  2.5216  1.8277 -0.8262
15754TIP3    H268754   1.266   3.232   1.062  1.2763 -0.5754  2.3631
15755TIP3   OH268755   1.282   4.568   3.821  0.2181 -0.2361  0.0448
15755TIP3    H168756   1.302   4.475   3.811 -0.7513 -0.4139 -0.3612
15755TIP3    H268757   1.194   4.570   3.859  0.6213  0.5110  0.9763
15756TIP3   OH268758   6.024   3.164   4.624  0.7152  0.0333  0.0114
15756TIP3    H168759   6.023   3.068   4.623 -0.2909 -0.0603  2.4947
15756TIP3    H268760   6.097   3.187   4.568 -0.3145 -2.0977 -2.4093
15757TIP3   OH268761   1.505   6.212   5.481 -0.2877 -0.3203 -0.6539
15757TIP3    H168762   1.499   6.149   5.409  1.9980  0.2401 -1.4269
15757TIP3    H268763   1.530   6.294   5.438  0.6633  0.1289  0.7141
15758TIP3   OH268764   3.938   2.561  12.195 -0.1395 -0.2155  0.0639
15758TIP3    H168765   4.017   2.576  12.246 -1.4347 -0.1868  2.1653
15758TIP3    H268766   3.970   2.540  12.107  2.1590  0.3475  0.6992
15759TIP3   OH268767   2.500   3.715   2.170  0.2134 -0.0077 -0.1033
15759TIP3    H168768   2.549   3.776   2.115  1.2121 -2.0825 -1.6441
15759TIP3    H268769   2.561   3.694   2.241  1.0517 -1.3726 -1.1640
15760TIP3   OH268770   6.048   1.315  11.508 -0.2785 -0.4049  0.1234
15760TIP3    H168771   6.065   1.230  11.469 -2.7176 -0.1261 -1.7832
15760TIP3    H268772   5.990   1.297  11.581  1.7719 -0.6129  1.7845
15761TIP3   OH268773   6.443   5.695   6.136  0.0532 -0.0548  0.4749
15761TIP3    H168774   6.448   5.618   6.079  0.4110  1.0367 -1.0241
15761TIP3    H268775   6.472   5.768   6.081  1.1214  0.9531  2.2831
15762TIP3   OH268776   6.239   2.018   3.983 -0.7173  0.0021 -0.2439
15762TIP3    H168777   6.280   2.085   4.038 -0.0379  0.5592 -1.3906
15762TIP3    H268778   6.216   2.064   3.902  0.2825 -1.2573 -1.2868
15763TIP3   OH268779   0.418   2.293  12.117 -0.1566  0.7561  0.2382
15763TIP3    H168780   0.513   2.304  12.110 -0.1927  0.1956 -2.7595
15763TIP3    H268781   0.384   2.382  12.122  0.4954  1.0401 -0.1205
15764TIP3   OH268782   0.723   3.789   4.179  0.1150 -0.4503 -0.1290
15764TIP3    H168783   0.629   3.801   4.194 -0.1035 -3.3549  1.3916
15764TIP3    H268784   0.764   3.818   4.260  0.3303 -1.2444  0.0498
15765TIP3   OH268785   1.560   4.067   5.804  0.7946  0.2586 -0.5697
15765TIP3    H168786   1.552   4.002   5.734 -0.1113 -0.6537  0.3564
15765TIP3    H268787   1.470   4.083   5.832  1.0150  1.8235 -0.6840
15766TIP3   OH268788   1.281   2.089  13.306 -0.0899 -0.3124 -0.1822
15766TIP3    H168789   1.367   2.122  13.280  0.1019  0.5275  1.3908
15766TIP3    H268790   1.224   2.166  13.307 -0.9302 -0.8763 -1.3288
15767TIP3   OH268791   0.147   0.860  16.812  0.0020 -0.2331 -0.1739
15767TIP3    H168792   0.127   0.952  16.798  0.1978 -0.0379  0.7544
15767TIP3    H268793   0.235   0.860  16.850 -0.6388 -0.6603  1.4231
15768TIP3   OH268794   4.141   0.042  13.249  0.3385 -0.0097 -0.3917
15768TIP3    H168795   4.228   0.074  13.272 -0.5829  1.2146  1.7223
15768TIP3    H268796   4.094   0.040  13.333 -1.5161 -1.1367 -1.3968
15769TIP3   OH268797   1.523   1.612  16.431  0.9464  0.3591 -0.2020
15769TIP3    H168798   1.434   1.644  16.416  0.8221  0.3636  0.5270
15769TIP3    H268799   1.521   1.521  16.399 -0.5418 -1.1266  3.5728
15770TIP3   OH268800   4.453   5.347   4.267 -0.4171  0.2503  0.0273
15770TIP3    H168801   4.533   5.296   4.252 -0.5308  0.1285 -0.1655
15770TIP3    H268802   4.469   5.393   4.349 -1.5505 -2.5975  1.9977
15771TIP3   OH268803   3.193   6.219  16.671 -0.5496  0.2982  0.1021
15771TIP3    H168804   3.144   6.284  16.722 -0.3046 -1.3633  2.6341
15771TIP3    H268805   3.285   6.242  16.686 -0.4623  0.7305 -0.9700
15772TIP3   OH268806   4.114   4.926   4.916 -0.0619  0.1431  0.3142
15772TIP3    H168807   4.186   4.932   4.978  0.9513  4.0044 -0.9802
15772TIP3    H268808   4.156   4.910   4.832 -0.7908  1.2211 -0.2811
15773TIP3   OH268809   5.423   1.869   2.490  0.2615  0.3210  0.1567
15773TIP3    H168810   5.445   1.951   2.447 -1.4843  0.7035 -0.0984
15773TIP3    H268811   5.428   1.803   2.421 -0.4784  0.5940 -0.1729
15774TIP3   OH268812   0.892   6.344   1.712 -0.0038 -0.4370 -0.0133
15774TIP3    H168813   0.887   6.438   1.695 -3.6566 -0.2896  0.9929
15774TIP3    H268814   0.854   6.303   1.634 -2.9177 -0.6613  1.3950
15775TIP3   OH268815   2.783   0.957  12.946  0.2268 -0.4837 -0.2453
15775TIP3    H168816   2.728   0.952  13.025 -0.1009 -1.2322 -0.5094
15775TIP3    H268817   2.757   1.038  12.903 -0.5628 -0.7540 -0.2829
15776TIP3   OH268818   6.197   4.244  15.703 -0.5419 -0.5861 -0.3364
15776TIP3    H168819   6.287   4.276  15.704 -0.0879 -1.7974 -0.9954
15776TIP3    H268820   6.175   4.232  15.796 -0.0788 -0.1366 -0.1660
15777TIP3   OH268821   6.212   5.249  12.660  0.4237  0.3876 -0.8120
15777TIP3    H168822   6.260   5.332  12.661  1.7967 -0.3720  0.1578
15777TIP3    H268823   6.177   5.241  12.749  1.5064 -0.7129 -0.4661
15778TIP3   OH268824   2.753   0.693   2.063 -0.0394 -0.2530  0.2652
15778TIP3    H168825   2.781   0.655   1.980 -0.2753 -2.7508  1.2450
15778TIP3    H268826   2.683   0.753   2.039 -1.0096 -1.8968 -1.2594
15779TIP3   OH268827   3.205   2.771  16.121  0.0985  0.3409 -0.0436
15779TIP3    H168828   3.221   2.694  16.175 -1.0457  0.5509  0.6184
15779TIP3    H268829   3.280   2.828  16.140 -0.7907  0.8836  2.2314
15780TIP3   OH268830   4.730   1.970  12.162  0.0851 -0.0140  0.1579
15780TIP3    H168831   4.744   1.886  12.206 -1.2478  0.2750  1.2275
15780TIP3    H268832   4.675   2.020  12.223  0.3645  1.4221 -0.7072
15781TIP3   OH268833   4.948   5.136   1.818 -0.2754 -0.0299  0.1898
15781TIP3    H168834   5.002   5.177   1.751  3.0506 -2.5262  1.0770
15781TIP3    H268835   4.976   5.177   1.900 -0.6681 -0.4388  0.5321
15782TIP3   OH268836   5.170   3.530   1.074 -0.0416  0.1781  0.1006
15782TIP3    H168837   5.164   3.525   0.978  2.4205 -0.1919 -0.0977
15782TIP3    H268838   5.137   3.445   1.104 -3.5751  1.3086 -0.1342
15783TIP3   OH268839   1.845   0.570  12.381  0.1746 -0.0406 -0.1469
15783TIP3    H168840   1.835   0.661  12.409  0.8320 -0.1226  0.3612
15783TIP3    H268841   1.911   0.573  12.311  0.3073 -0.1467 -0.0270
15784TIP3   OH268842   1.838   2.377   1.688  0.1453  0.8553  0.3883
15784TIP3    H168843   1.810   2.416   1.605  1.5681  0.9159 -0.0942
15784TIP3    H268844   1.906   2.436   1.719  0.4395  0.1938  1.0091
15785TIP3   OH268845   4.686   5.786  14.416 -0.1331 -0.1334  0.2014
15785TIP3    H168846   4.606   5.738  14.438 -0.3772  0.3169  0.3158
15785TIP3    H268847   4.731   5.797  14.500 -0.2274  0.0972  0.2235
15786TIP3   OH268848   6.024   1.671   2.345  0.2075 -0.5542 -0.3093
15786TIP3    H168849   6.011   1.729   2.420  1.1812 -2.3839  1.3707
15786TIP3    H268850   6.041   1.730   2.272 -0.2309  1.3013  1.0179
15787TIP3   OH268851   4.121   6.255  16.075 -0.0372 -0.8135  0.1944
15787TIP3    H168852   4.111   6.168  16.111  0.5656 -0.6723  0.7238
15787TIP3    H268853   4.097   6.314  16.146  2.3234 -0.5131  0.8206
15788TIP3   OH268854   2.547   5.119   2.433  0.0205  0.0671  0.4964
15788TIP3    H168855   2.551   5.147   2.342 -0.8486 -0.2341  0.3570
15788TIP3    H268856   2.504   5.192   2.478 -0.4249 -0.1857  0.4878
15789TIP3   OH268857   5.000   0.566   5.427 -0.1895 -0.0248 -0.3872
15789TIP3    H168858   5.095   0.568   5.433 -0.1942 -0.7709  0.0039
15789TIP3    H268859   4.973   0.492   5.482 -1.0802  0.9504  0.5508
15790TIP3   OH268860   3.090   0.595  16.486  0.4291 -0.0449  0.2922
15790TIP3    H168861   3.164   0.535  16.475  1.4170  1.3707 -1.2132
15790TIP3    H268862   3.090   0.648  16.406 -0.9570  1.3609  1.1734
15791TIP3   OH268863   5.030   4.235  15.020  0.3275 -0.3464 -0.4180
15791TIP3    H168864   5.121   4.218  14.995  0.1972  0.1990 -1.3017
15791TIP3    H268865   4.995   4.149  15.042  0.7073 -0.7392 -1.2922
15792TIP3   OH268866   3.316   1.259   3.810 -0.7439 -0.4903 -0.1599
15792TIP3    H168867   3.242   1.202   3.794 -0.3601 -1.3932  1.0802
15792TIP3    H268868   3.352   1.229   3.894  0.3922  0.5861 -0.2221
15793TIP3   OH268869   6.764   5.628  14.993  0.3438  1.1441 -0.1636
15793TIP3    H168870   6.700   5.650  14.925  2.4413  1.6710 -2.0770
15793TIP3    H268871   6.843   5.675  14.967  2.9381 -2.9597 -0.4755
15794TIP3   OH268872   0.900   3.389   6.536  0.0121 -0.0260  0.1684
15794TIP3    H168873   0.920   3.475   6.574 -3.3180  0.4454  1.1666
15794TIP3    H268874   0.954   3.386   6.456  3.1179  1.2714  2.0187
15795TIP3   OH268875   5.036   2.652  14.546  0.4124 -0.3285 -0.2005
15795TIP3    H168876   5.112   2.705  14.523  0.4186 -0.3105 -0.1394
15795TIP3    H268877   5.017   2.602  14.467  0.2652 -0.0655 -0.3319
15796TIP3   OH268878   3.504   6.028  11.638  0.2012  0.0611  0.0122
15796TIP3    H168879   3.528   6.117  11.663  1.5416 -0.5295  0.9160
15796TIP3    H268880   3.416   6.016  11.675  0.0405  0.9587 -0.0493
15797TIP3   OH268881   2.576   1.970   6.123 -0.2133  0.3542 -0.0465
15797TIP3    H168882   2.519   1.906   6.079 -0.2091  0.5086 -0.2792
15797TIP3    H268883   2.659   1.925   6.134 -0.0771  0.4570 -0.5909
15798TIP3   OH268884   0.058   0.048   4.899  0.2761  0.0876  0.6182
15798TIP3    H168885  -0.011  -0.017   4.887 -1.7026  2.2047 -0.0781
15798TIP3    H268886   0.084   0.038   4.991 -1.4235 -0.3389  1.0883
15799TIP3   OH268887   0.243   1.961   0.293 -0.0157  0.0892 -0.3701
15799TIP3    H168888   0.213   1.911   0.369  1.6816 -0.5871 -0.1009
15799TIP3    H268889   0.267   1.895   0.228  1.8025  0.5282 -0.1943
15800TIP3   OH268890   5.645   5.786  13.819 -0.3048 -0.0019  0.2189
15800TIP3    H168891   5.610   5.718  13.877  0.3524  0.8687  1.6986
15800TIP3    H268892   5.586   5.860  13.832  0.7130  0.7022  0.9677
15801TIP3   OH268893   4.876   3.646   0.090  0.0733  0.7789 -0.1161
15801TIP3    H168894   4.804   3.595   0.127  0.7250 -0.6663 -0.7641
15801TIP3    H268895   4.892   3.715   0.155  0.2643 -0.8413  1.6502
15802TIP3   OH268896   1.322   2.359  14.305 -0.1217 -0.4439 -0.2846
15802TIP3    H168897   1.282   2.273  14.298 -1.5097  0.1948 -0.6027
15802TIP3    H268898   1.296   2.391  14.391  0.3242 -0.3277 -0.1942
15803TIP3   OH268899   5.550   4.331   5.916  0.2828  0.1445  0.1079
15803TIP3    H168900   5.473   4.343   5.971  1.4666 -0.3159  1.9672
15803TIP3    H268901   5.562   4.236   5.913  1.1759  0.2353  0.4544
15804TIP3   OH268902   1.117   4.713  16.184  0.1794  0.2357  0.3330
15804TIP3    H168903   1.186   4.780  16.187  0.9292 -0.5504  1.6296
15804TIP3    H268904   1.089   4.712  16.093  1.1638  1.3089 -0.0094
15805TIP3   OH268905   5.721   3.111   5.237 -0.1013 -0.1878 -0.3260
15805TIP3    H168906   5.750   3.089   5.326  1.5543  1.5918 -0.3554
15805TIP3    H268907   5.751   3.037   5.184 -0.8996 -1.1603  0.5346
15806TIP3   OH268908   2.375   1.443   0.146  0.1125 -0.4338 -0.1631
15806TIP3    H168909   2.323   1.402   0.215  0.8669 -1.1702 -0.0076
15806TIP3    H268910   2.321   1.438   0.068  0.6323 -2.9161 -0.4535
15807TIP3   OH268911   5.345   2.279  16.832 -0.0759  0.1744  0.1212
15807TIP3    H168912   5.348   2.201  16.887 -0.5213 -0.3759 -0.5989
15807TIP3    H268913   5.260   2.319  16.852 -1.0950 -1.0643 -1.4863
15808TIP3   OH268914   4.756   6.206   2.956 -0.2951  0.3289  0.0696
15808TIP3    H168915   4.789   6.244   3.037 -0.9488 -0.4982  0.7440
15808TIP3    H268916   4.728   6.118   2.981 -1.9332  0.5900 -0.7089
15809TIP3   OH268917   3.934   5.273   5.186  0.2127 -0.6327  0.7405
15809TIP3    H168918   3.844   5.248   5.163  1.1345 -1.4285 -2.4495
15809TIP3    H268919   3.945   5.360   5.147  1.5344 -1.5888 -1.1821
15810TIP3   OH268920   4.659   5.428   6.497 -0.7077  0.4562  0.0714
15810TIP3    H168921   4.745   5.387   6.491  0.3431  2.1608  2.2297
15810TIP3    H268922   4.640   5.456   6.407  0.5194 -0.7747 -0.6162
15811TIP3   OH268923   6.772   2.000  14.625 -0.2816 -0.3792  0.2485
15811TIP3    H168924   6.867   1.996  14.631 -0.2149  1.6134  1.4156
15811TIP3    H268925   6.751   2.092  14.641 -2.3402 -0.5109 -1.2505
15812TIP3   OH268926   6.764   1.090  15.037  0.2395  0.0398 -0.3573
15812TIP3    H168927   6.670   1.104  15.031  0.3144  0.5219 -0.3911
15812TIP3    H268928   6.803   1.158  14.982  0.6532  0.4917  0.4775
15813TIP3   OH268929   4.651   5.399   0.252  0.1525  0.2583 -0.2366
15813TIP3    H168930   4.654   5.461   0.325  0.9357 -0.1006  0.0361
15813TIP3    H268931   4.742   5.377   0.235 -0.1381 -1.1155 -0.0903
15814TIP3   OH268932   0.637   6.848  16.888 -0.4481 -0.2491  0.2037
15814TIP3    H168933   0.586   6.823  16.965 -1.6366  2.3243  0.3717
15814TIP3    H268934   0.700   6.912  16.920  0.1169 -0.3209 -0.7118
15815TIP3   OH268935   1.772   1.678  12.419 -0.4089 -0.1504  0.0676
15815TIP3    H168936   1.731   1.592  12.419  0.4862 -0.5791  0.3349
15815TIP3    H268937   1.852   1.667  12.470  0.6217  0.4134 -1.3692
15816TIP3   OH268938   5.389   5.240   1.544  1.0667  0.2530 -0.7144
15816TIP3    H168939   5.345   5.261   1.461  0.9389  2.1081 -0.2061
15816TIP3    H268940   5.352   5.155   1.569 -0.0866  0.4187 -1.7424
15817TIP3   OH268941   3.735   0.692   4.373 -0.6755  0.2985  0.2051
15817TIP3    H168942   3.722   0.715   4.281 -1.2518 -1.7629 -0.2982
15817TIP3    H268943   3.670   0.623   4.389 -0.0606  0.0739  1.9323
15818TIP3   OH268944   4.053   3.315  15.700  0.5413 -0.0860 -0.2143
15818TIP3    H168945   4.009   3.338  15.781 -1.4721  0.5480 -1.4211
15818TIP3    H268946   4.060   3.398  15.652 -0.0899 -0.7623 -1.5071
15819TIP3   OH268947   3.926   4.019  14.878 -0.0984  0.0026  0.4426
15819TIP3    H168948   3.929   4.044  14.970 -1.8129  0.8480  0.3163
15819TIP3    H268949   4.009   3.975  14.862  1.1382  1.6912  1.8422
15820TIP3   OH268950   2.186   4.730  14.958  0.5854 -1.1743  0.0523
15820TIP3    H168951   2.128   4.742  14.883  0.5265 -1.6774  0.0139
15820TIP3    H268952   2.242   4.808  14.958 -0.6690 -0.2338  0.6184
15821TIP3   OH268953   3.587   1.252   1.736 -0.0422 -0.2796 -0.1940
15821TIP3    H168954   3.667   1.240   1.787  1.2170  0.0247 -1.9974
15821TIP3    H268955   3.516   1.234   1.798  1.4071 -0.7266  1.4166
15822TIP3   OH268956   0.735   2.803  12.114  0.0351  0.2094  0.5492
15822TIP3    H168957   0.728   2.808  12.018 -1.1059 -0.1985  0.5933
15822TIP3    H268958   0.761   2.713  12.131 -1.4950 -0.2269  0.6832
15823TIP3   OH268959   1.275   1.754  13.972 -0.1822  0.0814  0.6019
15823TIP3    H168960   1.316   1.823  13.920  0.3421 -0.2075  0.6269
15823TIP3    H268961   1.186   1.785  13.987 -1.0736 -0.7874 -2.3001
15824TIP3   OH268962   1.544   4.028  10.646  0.2383  0.0936  0.1669
15824TIP3    H168963   1.598   3.966  10.693  0.4005 -1.1294 -1.5437
15824TIP3    H268964   1.604   4.098  10.620  1.4626 -1.9033 -2.9053
15825TIP3   OH268965   1.720   2.303  15.845 -0.3213 -0.1233 -0.1604
15825TIP3    H168966   1.732   2.398  15.852 -1.0295 -0.0624  0.3056
15825TIP3    H268967   1.778   2.277  15.773  0.7710  0.4808  0.4817
15826TIP3   OH268968   2.640   2.389  15.416 -0.2842 -0.3070 -0.1279
15826TIP3    H168969   2.684   2.306  15.398  0.3582 -0.1193  0.5229
15826TIP3    H268970   2.680   2.452  15.356 -0.7906 -0.4575 -0.6412
15827TIP3   OH268971   0.152   4.055   3.842 -0.1487  0.3992 -0.2762
15827TIP3    H168972   0.061   4.044   3.813  0.3091  3.3691 -3.4955
15827TIP3    H268973   0.161   4.149   3.857  2.5637  0.2852 -0.7323
15828TIP3   OH268974   2.511   3.557   0.135  0.2272 -0.1140  0.5517
15828TIP3    H168975   2.565   3.542   0.058  1.2183  0.5762  1.0889
15828TIP3    H268976   2.557   3.515   0.207 -0.8140 -0.9661  0.7487
15829TIP3   OH268977   1.104   3.795  15.015 -0.0420  0.0955 -0.1874
15829TIP3    H168978   1.180   3.759  15.061  0.1119 -0.8279 -1.1363
15829TIP3    H268979   1.035   3.730  15.026 -1.0000  1.2712  1.3347
15830TIP3   OH268980   6.299   2.427   4.527  0.5907  0.1109 -0.8082
15830TIP3    H168981   6.381   2.429   4.476  1.4511  0.8369  0.5184
15830TIP3    H268982   6.233   2.397   4.466  1.5153  1.2437 -2.4504
15831TIP3   OH268983   0.369   1.812  15.218  0.1778 -0.3926  0.8019
15831TIP3    H168984   0.398   1.731  15.176  2.5661  1.7265 -2.1056
15831TIP3    H268985   0.418   1.816  15.300  0.7250 -1.4372  0.5356
15832TIP3   OH268986   4.297   0.907   6.237  0.5840 -0.1215 -0.4757
15832TIP3    H168987   4.294   0.983   6.296  0.6389  0.5290 -1.2915
15832TIP3    H268988   4.243   0.841   6.281  2.6898 -0.6078  1.5893
15833TIP3   OH268989   2.736   1.523  13.902  0.1443 -0.3771  0.2470
15833TIP3    H168990   2.659   1.544  13.849  0.7227  0.9109 -0.1261
15833TIP3    H268991   2.769   1.608  13.931  0.8018 -0.9697  1.3207
15834TIP3   OH268992   2.520   2.244  11.499  0.1798 -0.0180  0.2806
15834TIP3    H168993   2.573   2.220  11.423 -0.6829 -1.9721  0.2399
15834TIP3    H268994   2.471   2.165  11.520  2.3954 -0.5359  4.5842
15835TIP3   OH268995   6.196   2.873   1.070  0.2155 -0.6169  0.1339
15835TIP3    H168996   6.135   2.876   0.996  1.5859  0.0410 -1.0062
15835TIP3    H268997   6.243   2.790   1.059  1.4996  0.1886 -0.6542
15836TIP3   OH268998   2.592   6.837  14.312 -0.4515  0.1671 -0.4112
15836TIP3    H168999   2.609   6.788  14.231  0.2519 -2.1647  1.0711
15836TIP3    H269000   2.678   6.863  14.343 -0.6458  0.2645  0.0582
15837TIP3   OH269001   6.366   2.834   0.674 -0.5115 -0.1484  0.0970
15837TIP3    H169002   6.288   2.787   0.704 -0.9346 -0.5970 -1.6239
15837TIP3    H269003   6.336   2.883   0.597  1.4106 -2.2708 -2.1552
15838TIP3   OH269004   2.341   3.914   2.056 -0.1628 -0.0657 -0.3194
15838TIP3    H169005   2.325   3.995   2.007  0.0362 -0.5473 -1.1905
15838TIP3    H269006   2.387   3.943   2.135 -1.0783  0.7969 -0.0727
15839TIP3   OH269007   4.876   1.711  14.571  0.0444  0.1589  0.9556
15839TIP3    H169008   4.829   1.640  14.526  0.8082  1.0718 -1.4691
15839TIP3    H269009   4.813   1.744  14.635 -1.1843 -1.1530  0.4925
15840TIP3   OH269010   4.490   5.233   1.166 -0.5642 -0.1214 -0.2772
15840TIP3    H169011   4.406   5.280   1.169 -0.7913 -0.5062 -0.5634
15840TIP3    H269012   4.470   5.146   1.200 -0.6425 -0.7534 -1.8898
15841TIP3   OH269013   5.853   5.780  16.332 -0.5537  0.5207 -0.1939
15841TIP3    H169014   5.921   5.848  16.341 -0.5448  0.5775 -0.6443
15841TIP3    H269015   5.771   5.829  16.330 -0.7447  0.3698  1.7613
15842TIP3   OH269016   5.816   4.429  12.967 -0.3073 -0.5076  0.3861
15842TIP3    H169017   5.891   4.451  13.022  0.2249 -1.1308 -0.0898
15842TIP3    H269018   5.835   4.470  12.883  0.3769 -2.1807 -0.3057
15843TIP3   OH269019   0.305   4.198  12.806  0.2585  0.4538 -0.2290
15843TIP3    H169020   0.246   4.270  12.784  1.3935  1.8978  1.1907
15843TIP3    H269021   0.393   4.238  12.805  1.1057 -1.3331 -1.0952
15844TIP3   OH269022   5.151   2.467  15.201 -0.0263  0.5647  0.0893
15844TIP3    H169023   5.066   2.424  15.188 -0.4900  1.5614 -0.3153
15844TIP3    H269024   5.128   2.555  15.231  0.8931  0.5886  0.7573
15845TIP3   OH269025   5.353   0.812   4.721  0.3023 -0.0504  0.4035
15845TIP3    H169026   5.353   0.799   4.626 -1.1487  1.2401  0.1818
15845TIP3    H269027   5.408   0.889   4.734  1.1168 -0.6716  0.7072
15846TIP3   OH269028   4.834   4.704  15.542 -0.0765 -0.4389  0.1082
15846TIP3    H169029   4.745   4.728  15.568  0.1523  1.0965 -0.4028
15846TIP3    H269030   4.884   4.785  15.549  1.2079 -1.1878  0.0088
15847TIP3   OH269031   0.663   0.187  12.189 -0.1646 -0.4111  0.4612
15847TIP3    H169032   0.579   0.172  12.147 -0.0592 -1.0202  0.4606
15847TIP3    H269033   0.677   0.109  12.243 -0.0437  0.1066  1.2046
15848TIP3   OH269034   6.611   5.383  16.484 -0.0498 -0.3366 -0.3705
15848TIP3    H169035   6.555   5.311  16.455 -3.0317  1.6068  0.0707
15848TIP3    H269036   6.638   5.426  16.403 -0.7075 -0.2607 -0.5542
15849TIP3   OH269037   6.680   3.235   0.770 -0.3173  0.2329 -0.7537
15849TIP3    H169038   6.634   3.160   0.732  1.3481 -1.2402 -0.0233
15849TIP3    H269039   6.693   3.211   0.862  3.3960 -0.3369 -1.2752
15850TIP3   OH269040   4.748   4.414   4.055 -0.1816 -0.3421 -0.3561
15850TIP3    H169041   4.805   4.470   4.107 -0.7185  0.5439 -0.6952
15850TIP3    H269042   4.765   4.440   3.964 -0.0530 -1.1079 -0.5616
15851TIP3   OH269043   3.051   1.343   5.796  0.0863  0.2727  0.2441
15851TIP3    H169044   3.053   1.334   5.891  1.8038  0.6203  0.2688
15851TIP3    H269045   3.003   1.425   5.781  0.1997  0.4507  0.8217
15852TIP3   OH269046   3.789   3.512   1.695 -0.1787  0.0922  0.3265
15852TIP3    H169047   3.826   3.593   1.730  0.9182  0.1301 -0.8066
15852TIP3    H269048   3.803   3.519   1.600  0.2047 -1.5410  0.2272
15853TIP3   OH269049   4.543   2.430   6.245 -0.4586 -1.0941  0.3812
15853TIP3    H169050   4.592   2.349   6.259  0.6667 -0.1721  2.1100
15853TIP3    H269051   4.554   2.449   6.152 -0.6978 -2.8645 -0.0484
15854TIP3   OH269052   3.757   0.766   3.553  0.2904 -0.0346 -0.0086
15854TIP3    H169053   3.709   0.730   3.479  0.1074  0.9391 -0.3874
15854TIP3    H269054   3.845   0.781   3.520 -0.3584  2.5974 -0.8308
15855TIP3   OH269055   6.056   3.358  15.265  0.1596 -0.0376 -0.2083
15855TIP3    H169056   6.019   3.375  15.179 -0.4205  0.3935  0.1242
15855TIP3    H269057   6.091   3.443  15.293 -1.5879  0.3537  0.9019
15856TIP3   OH269058   2.668   0.826   5.541 -0.2857 -0.5493 -0.5913
15856TIP3    H169059   2.733   0.896   5.550  1.5208 -2.1504 -0.7101
15856TIP3    H269060   2.589   0.861   5.583  1.3030  0.6084  1.6202
15857TIP3   OH269061   5.395   0.931  15.371 -0.2227  0.0209 -0.3812
15857TIP3    H169062   5.346   0.988  15.311 -1.8558 -0.0739  0.7765
15857TIP3    H269063   5.338   0.855  15.383  1.2142 -1.1383 -0.6569
15858TIP3   OH269064   1.989   3.955   2.081  0.2459 -0.5868  0.2157
15858TIP3    H169065   2.002   4.006   2.001 -1.1498 -0.7100 -0.1166
15858TIP3    H269066   1.976   4.019   2.150 -0.3516 -0.4796  0.0073
15859TIP3   OH269067   1.433   6.434   0.980  0.0611 -0.0094  0.0376
15859TIP3    H169068   1.338   6.429   0.986  0.1359 -1.1573  0.4463
15859TIP3    H269069   1.457   6.364   0.919  0.7240 -0.4115  0.7473
15860TIP3   OH269070   5.003   1.049  11.519  0.0131 -0.1635 -0.1586
15860TIP3    H169071   4.945   0.990  11.470  1.3222 -0.1117 -1.8933
15860TIP3    H269072   5.079   1.059  11.462  1.4421  0.2832  1.7404
15861TIP3   OH269073   1.564   4.475  11.529 -0.8248  0.3338 -0.5719
15861TIP3    H169074   1.525   4.493  11.444 -1.9780  0.2992 -0.0595
15861TIP3    H269075   1.625   4.403  11.512 -2.0683 -0.6162 -1.1064
15862TIP3   OH269076   2.459   2.455  10.632 -0.6340 -0.3295 -0.7207
15862TIP3    H169077   2.555   2.455  10.631 -0.5837 -0.1345  1.1290
15862TIP3    H269078   2.434   2.466  10.540  1.1189  1.9815 -0.9980
15863TIP3   OH269079   0.372   4.714  11.468 -0.1236 -0.6674 -0.0150
15863TIP3    H169080   0.397   4.772  11.397  1.5215 -1.7995 -0.4416
15863TIP3    H269081   0.295   4.667  11.436  0.0860 -0.5465 -0.7044
15864TIP3   OH269082   2.753   2.632   1.781  0.1551 -0.1212 -0.3836
15864TIP3    H169083   2.689   2.663   1.845  0.0162 -0.5216 -0.3245
15864TIP3    H269084   2.770   2.541   1.806  1.1492  0.1356 -0.0845
15865TIP3   OH269085   1.791   2.664  16.983 -0.2331 -0.1009  0.4723
15865TIP3    H169086   1.826   2.732  16.925  0.6663 -1.1484 -0.2632
15865TIP3    H269087   1.801   2.700  17.071  0.2257  0.7270  0.0913
15866TIP3   OH269088   4.839   1.176  12.888 -0.2529  0.1190 -0.0298
15866TIP3    H169089   4.924   1.214  12.865  0.8917 -1.9528  0.5616
15866TIP3    H269090   4.793   1.169  12.804 -0.5038  2.5962 -0.1925
15867TIP3   OH269091   0.169   5.608  15.258  0.1179  0.5635  0.0254
15867TIP3    H169092   0.141   5.527  15.214  0.0992 -0.8575  2.4442
15867TIP3    H269093   0.090   5.661  15.263 -0.7155 -0.7188  1.2541
15868TIP3   OH269094   1.800   2.420  15.187 -1.2599  0.2455  0.3786
15868TIP3    H169095   1.737   2.426  15.259 -1.8289 -0.1492 -0.0788
15868TIP3    H269096   1.764   2.353  15.129  0.9395 -2.0539  1.4842
15869TIP3   OH269097   5.105   3.291   2.331 -0.4518 -0.4254 -0.0785
15869TIP3    H169098   5.024   3.339   2.352 -0.5555 -0.9222  0.6840
15869TIP3    H269099   5.134   3.255   2.414  1.4607  1.0920 -0.0016
15870TIP3   OH269100   6.756   0.805  11.952  0.1391 -0.2454 -0.5723
15870TIP3    H169101   6.777   0.783  12.043 -0.6163 -0.2980 -0.4052
15870TIP3    H269102   6.837   0.789  11.905  0.9896  1.1880  0.3230
15871TIP3   OH269103   1.589   0.640  16.579 -0.8908  0.3076 -0.3274
15871TIP3    H169104   1.587   0.601  16.667  0.5374 -0.8935 -0.7804
15871TIP3    H269105   1.583   0.566  16.520  0.1332  0.9224 -1.2374
15872TIP3   OH269106   2.608   5.137  12.003  0.7348  0.4320  0.6370
15872TIP3    H169107   2.530   5.105  12.049  0.3099  0.8592  0.2241
15872TIP3    H269108   2.673   5.068  12.014  0.5009  0.3406  1.5228
15873TIP3   OH269109   1.380   2.846  16.111  1.0155 -0.1899 -0.0072
15873TIP3    H169110   1.427   2.771  16.147  1.3486 -0.5243 -1.0879
15873TIP3    H269111   1.447   2.913  16.098  0.7173  0.3210  0.9645
15874TIP3   OH269112   1.105   5.555  15.239  0.2168  0.3426 -0.8474
15874TIP3    H169113   1.033   5.614  15.216 -1.4811 -1.3430 -0.1651
15874TIP3    H269114   1.133   5.583  15.326 -1.4458 -0.5372  0.0349
15875TIP3   OH269115   0.028   5.946   1.821 -0.0755 -0.5954  0.3715
15875TIP3    H169116   0.108   5.981   1.782 -0.0778 -0.7007  0.2711
15875TIP3    H269117   0.028   5.853   1.797 -1.7419 -0.0417 -2.2324
15876TIP3   OH269118   3.661   6.278  16.719  0.1925 -0.2907 -0.7779
15876TIP3    H169119   3.640   6.185  16.713 -1.2458  0.0287 -1.1623
15876TIP3    H269120   3.592   6.321  16.668  1.0566  0.9651 -0.9331
15877TIP3   OH269121   0.691   1.655  13.674  0.4610  0.6398  0.3076
15877TIP3    H169122   0.781   1.624  13.663  0.1816 -0.0817 -0.0509
15877TIP3    H269123   0.663   1.680  13.586 -0.2563 -0.8107  0.0734
15878TIP3   OH269124   3.857   6.385  14.479  0.1790  0.2947 -0.4975
15878TIP3    H169125   3.876   6.328  14.405 -0.0235  0.5932 -0.7858
15878TIP3    H269126   3.893   6.470  14.454 -2.4082  1.1992 -1.5758
15879TIP3   OH269127   4.399   3.967  13.596  0.4351 -0.6231 -0.2499
15879TIP3    H169128   4.322   3.996  13.547  0.4596 -1.4263 -0.7869
15879TIP3    H269129   4.461   3.939  13.528  0.7059 -1.1949  0.2268
15880TIP3   OH269130   5.109   0.329  15.778 -0.0979 -0.1201  0.6021
15880TIP3    H169131   5.054   0.259  15.813 -3.8685  1.6520 -1.1364
15880TIP3    H269132   5.108   0.396  15.846  1.4744 -0.7573  1.2812
15881TIP3   OH269133   5.808   1.810   0.056 -0.1415  1.2693 -0.4481
15881TIP3    H169134   5.843   1.754   0.126  1.9389 -0.2744 -2.5725
15881TIP3    H269135   5.713   1.804   0.066  0.0695  0.7954  1.9635
15882TIP3   OH269136   6.114   1.663  11.841 -0.5092  0.4794  0.3768
15882TIP3    H169137   6.024   1.636  11.822  0.3972 -2.7151  0.0131
15882TIP3    H269138   6.108   1.714  11.922 -2.6630  0.7342  0.1061
15883TIP3   OH269139   1.273   4.277  15.638 -0.0526  0.5872 -0.1816
15883TIP3    H169140   1.282   4.255  15.545 -1.1203 -0.7680 -0.0124
15883TIP3    H269141   1.350   4.239  15.679  0.9751  2.1112 -0.6153
15884TIP3   OH269142   6.742   4.377  16.327 -0.3695  0.2456 -0.3243
15884TIP3    H169143   6.785   4.304  16.283 -0.6189  0.6020 -1.1842
15884TIP3    H269144   6.769   4.370  16.418  0.9296  0.0436 -0.7121
15885TIP3   OH269145   2.859   6.732   3.770 -0.5163 -0.4566 -1.0354
15885TIP3    H169146   2.916   6.662   3.739  1.3376  0.8045 -0.6448
15885TIP3    H269147   2.915   6.810   3.769 -1.0467  0.1875  2.9692
15886TIP3   OH269148   6.330   0.837   3.236  0.9416  0.2408  0.0392
15886TIP3    H169149   6.263   0.905   3.251 -0.4652 -0.8408 -1.0471
15886TIP3    H269150   6.311   0.805   3.148  1.5067 -1.6339  0.5715
15887TIP3   OH269151   2.146   3.678   3.709 -0.4389  0.3774 -0.1945
15887TIP3    H169152   2.100   3.594   3.705  1.7500 -0.8911 -0.7281
15887TIP3    H269153   2.187   3.678   3.795  0.1524  0.5657 -0.4739
15888TIP3   OH269154   1.249   6.316  14.695 -0.1884 -0.5699 -0.2180
15888TIP3    H169155   1.161   6.321  14.732 -0.0474 -1.9222  0.3579
15888TIP3    H269156   1.293   6.248  14.746  1.4655  0.6391  0.0343
15889TIP3   OH269157   3.481   2.695  11.475  0.3815  0.4088 -0.3099
15889TIP3    H169158   3.545   2.689  11.546  0.8916 -1.9735 -0.8991
15889TIP3    H269159   3.528   2.666  11.397 -1.2540 -1.0027 -0.8346
15890TIP3   OH269160   1.667   4.282  14.788  0.3721 -0.0160  0.4436
15890TIP3    H169161   1.595   4.224  14.812  0.0986 -0.1322 -0.5958
15890TIP3    H269162   1.625   4.365  14.766  0.4308 -0.3372 -1.0138
15891TIP3   OH269163   4.439   2.438  15.320 -0.3472 -0.1796  0.4496
15891TIP3    H169164   4.444   2.446  15.225  0.5532  0.3109  0.5245
15891TIP3    H269165   4.420   2.527  15.351 -0.1326 -0.2384  0.7545
15892TIP3   OH269166   5.706   6.583   0.101 -0.2533  0.2702  0.3601
15892TIP3    H169167   5.686   6.544   0.015  2.0123 -2.8263  1.0366
15892TIP3    H269168   5.621   6.598   0.141 -1.3366 -0.9055 -1.3558
15893TIP3   OH269169   4.976   0.067  13.974  0.2797  0.2726  0.0125
15893TIP3    H169170   4.959  -0.008  13.917 -0.3350  1.6844 -1.7681
15893TIP3    H269171   4.894   0.080  14.022  0.5852 -0.5229  0.7821
15894TIP3   OH269172   5.802   4.469   5.894  0.0008  0.0765  0.8318
15894TIP3    H169173   5.876   4.409   5.901 -0.2499 -0.4833 -0.8697
15894TIP3    H269174   5.725   4.412   5.897 -0.3062  0.4861  0.8397
15895TIP3   OH269175   3.465   3.401  11.991  0.5010 -0.4661 -0.3163
15895TIP3    H169176   3.455   3.311  12.024 -0.4906 -0.2463  0.0316
15895TIP3    H269177   3.473   3.454  12.070  0.1182 -0.1459 -0.4893
15896TIP3   OH269178   2.771   2.506   0.357  0.3878 -1.1351 -0.7069
15896TIP3    H169179   2.847   2.555   0.388 -1.1252  0.6743  0.4249
15896TIP3    H269180   2.738   2.557   0.283 -0.6942 -0.8711 -0.0794
15897TIP3   OH269181   5.806   2.043   4.723  0.2359 -0.2293  0.0052
15897TIP3    H169182   5.858   1.981   4.774 -0.9660 -1.4941 -0.2231
15897TIP3    H269183   5.848   2.044   4.637 -0.2698 -1.5254 -0.2923
15898TIP3   OH269184   6.825   5.217   0.076  0.0699  0.0416  0.1550
15898TIP3    H169185   6.784   5.240  -0.008  0.8517 -0.9109 -0.5214
15898TIP3    H269186   6.916   5.196   0.053  0.8314  1.5906  1.5329
15899TIP3   OH269187   1.441   2.345   6.044  0.0298 -0.1880  0.2074
15899TIP3    H169188   1.471   2.260   6.011  0.4523  0.3505 -0.8134
15899TIP3    H269189   1.511   2.406   6.023 -0.5304  0.5410  0.3959
15900TIP3   OH269190   5.660   0.111  14.044 -0.1674 -0.6687  0.2837
15900TIP3    H169191   5.658   0.155  14.129 -0.0274  0.7699 -0.4237
15900TIP3    H269192   5.628   0.022  14.062 -0.9781 -0.1249  1.6811
15901TIP3   OH269193   6.344   1.523  14.789  0.2946 -0.3140  0.4419
15901TIP3    H169194   6.327   1.528  14.883 -1.4632 -2.0591  0.3028
15901TIP3    H269195   6.403   1.448  14.780 -1.6290 -1.8593  0.0249
15902TIP3   OH269196   3.620   4.309  14.402  0.0707  0.7169  0.5086
15902TIP3    H169197   3.673   4.238  14.440  0.7848 -0.2205 -2.0046
15902TIP3    H269198   3.684   4.375  14.376 -0.2505  0.7075 -0.3089
15903TIP3   OH269199   4.249   2.105   6.155  0.5712  0.0218 -0.6905
15903TIP3    H169200   4.245   2.082   6.248  1.2346 -0.8798 -0.8759
15903TIP3    H269201   4.178   2.169   6.144 -0.8110 -1.3154  0.0151
15904TIP3   OH269202   4.370   3.559   0.693  0.1863  0.4140 -0.7291
15904TIP3    H169203   4.358   3.618   0.767 -0.4661  1.9044 -1.9723
15904TIP3    H269204   4.462   3.569   0.669  0.5727 -0.5808  0.2620
15905TIP3   OH269205   4.870   3.972   1.086 -0.4661  0.4140  0.0804
15905TIP3    H169206   4.956   3.932   1.072 -0.3758  0.7185 -0.2762
15905TIP3    H269207   4.832   3.978   0.998 -1.1488 -0.3623  0.3095
15906TIP3   OH269208   6.820   0.319   0.843  0.3839  0.7724  0.0106
15906TIP3    H169209   6.779   0.358   0.920  2.0527  2.3424  0.1590
15906TIP3    H269210   6.810   0.385   0.775  0.8304  0.3033 -0.5227
15907TIP3   OH269211   5.520   2.597   0.069  0.0257 -0.6167 -0.0202
15907TIP3    H169212   5.452   2.530   0.081 -2.7029  1.8071 -0.8135
15907TIP3    H269213   5.542   2.625   0.158 -2.1285  0.4434  0.2401
15908TIP3   OH269214   1.667   3.984  10.362 -0.1951 -0.2448  0.2412
15908TIP3    H169215   1.697   3.895  10.343  0.9753 -0.1279  1.4149
15908TIP3    H269216   1.746   4.030  10.388 -0.5367  1.5436 -1.6427
15909TIP3   OH269217   5.548   1.852  15.501 -0.2524 -0.4068  0.0278
15909TIP3    H169218   5.613   1.839  15.433 -0.9820  0.6383 -0.9140
15909TIP3    H269219   5.577   1.931  15.547 -0.4806 -0.3243  0.0337
15910TIP3   OH269220   0.664   3.265  11.051  0.8302 -0.4120 -0.0967
15910TIP3    H169221   0.596   3.312  11.003  1.0668 -0.8106 -0.8541
15910TIP3    H269222   0.740   3.269  10.993  1.3131 -0.3772  0.5299
15911TIP3   OH269223   5.400   4.093   3.423 -0.2231  0.2047  0.0936
15911TIP3    H169224   5.445   4.134   3.349  0.4451 -3.5905 -1.8675
15911TIP3    H269225   5.468   4.083   3.490  0.0130  0.7131 -0.0619
15912TIP3   OH269226   5.385   4.886  15.382  0.4771 -0.4332 -0.1148
15912TIP3    H169227   5.446   4.954  15.410 -1.0913  0.6201  0.8810
15912TIP3    H269228   5.298   4.925  15.393 -0.4981 -2.6695  0.7876
15913TIP3   OH269229   4.291   4.879  13.358  0.6122 -0.6936 -0.4415
15913TIP3    H169230   4.242   4.880  13.440  1.2407 -1.0560 -0.0460
15913TIP3    H269231   4.319   4.970  13.345  1.4161 -0.8135  0.3262
15914TIP3   OH269232   4.314   4.880  16.573  0.1366  0.3828  0.8216
15914TIP3    H169233   4.228   4.923  16.564  0.2932  0.4742 -0.5521
15914TIP3    H269234   4.372   4.949  16.603  0.3434  1.1430 -1.1841
15915TIP3   OH269235   4.855   1.637   5.799  0.6681 -0.7360 -0.1044
15915TIP3    H169236   4.821   1.572   5.861  2.1329 -0.5789  0.9239
15915TIP3    H269237   4.919   1.686   5.849  1.1908  0.0604 -1.4989
15916TIP3   OH269238   1.229   6.172   5.632  0.1147  0.2367  0.0431
15916TIP3    H169239   1.240   6.078   5.622 -0.3978  0.0677  0.9441
15916TIP3    H269240   1.318   6.206   5.645  0.2959 -0.1237 -0.2576
15917TIP3   OH269241   0.951   3.209   6.303  0.5945 -0.2557  0.0190
15917TIP3    H169242   0.885   3.212   6.233 -0.9189 -1.2322  1.3260
15917TIP3    H269243   0.995   3.294   6.298 -0.1128  0.0593 -1.4984
15918TIP3   OH269244   1.988   0.223   4.285 -0.5833  0.2355  0.0268
15918TIP3    H169245   2.005   0.172   4.206  0.5924 -2.0768  1.6543
15918TIP3    H269246   1.893   0.232   4.288 -0.6935 -0.3395 -1.2193
15919TIP3   OH269247   0.186   4.047  13.718 -0.4497  0.4791  0.3527
15919TIP3    H169248   0.123   3.976  13.716  1.5478 -1.3945 -0.6219
15919TIP3    H269249   0.222   4.045  13.807  0.5499 -0.7035 -0.0416
15920TIP3   OH269250   2.025   0.050   0.259 -0.4442 -0.3231 -0.0867
15920TIP3    H169251   2.087   0.088   0.197 -0.6126  0.5917  0.2867
15920TIP3    H269252   2.078  -0.010   0.312  0.3105  0.9981  0.7120
15921TIP3   OH269253   3.753   2.125  13.079 -0.5611 -0.0592 -0.2546
15921TIP3    H169254   3.841   2.149  13.051 -1.4763  0.2898 -3.1197
15921TIP3    H269255   3.747   2.157  13.169  1.7825  1.0284 -0.4076
15922TIP3   OH269256   1.561   1.448  13.243  1.1912  0.0856  0.3358
15922TIP3    H169257   1.468   1.455  13.265  1.6072  0.0084  2.3154
15922TIP3    H269258   1.569   1.361  13.204  0.2899  0.4710 -0.7596
15923TIP3   OH269259   3.701   5.512   0.045 -0.1330 -0.4740 -0.1026
15923TIP3    H169260   3.676   5.591   0.092  0.9291 -0.2639  0.1337
15923TIP3    H269261   3.688   5.441   0.108  2.4767 -0.0720  1.0380
15924TIP3   OH269262   2.017   3.853  14.647 -0.1277 -0.0189 -0.0350
15924TIP3    H169263   2.017   3.914  14.721  1.4473 -0.9665  0.8107
15924TIP3    H269264   2.092   3.880  14.594  0.0901 -0.7050 -0.0858
15925TIP3   OH269265   1.100   2.201  14.009 -0.0414  0.1751 -0.9013
15925TIP3    H169266   1.178   2.191  13.955 -0.4619 -1.9817 -1.1979
15925TIP3    H269267   1.027   2.182  13.948 -0.5457 -1.9330  0.2557
15926TIP3   OH269268   6.754   1.832   1.710  0.1061 -0.0480 -0.0842
15926TIP3    H169269   6.728   1.874   1.628 -0.9584  0.4901  0.5082
15926TIP3    H269270   6.680   1.776   1.733  1.0568 -1.4108 -0.2847
15927TIP3   OH269271   4.298   5.758   1.403  1.1169  0.0563 -0.0320
15927TIP3    H169272   4.393   5.745   1.393  1.3230  0.5410  1.1151
15927TIP3    H269273   4.290   5.814   1.480 -0.2059 -1.8588  1.2930
15928TIP3   OH269274   0.015   5.474   2.806  0.3927  0.5242 -0.5156
15928TIP3    H169275   0.035   5.392   2.763  1.5532  0.7928 -0.5069
15928TIP3    H269276  -0.068   5.502   2.766  0.7536  0.1008 -1.6088
15929TIP3   OH269277   3.438   0.888   4.629  0.0448 -0.0883 -0.1036
15929TIP3    H169278   3.428   0.839   4.711  0.5402 -1.1214 -0.6402
15929TIP3    H269279   3.532   0.907   4.624 -0.3363  2.6163  1.0110
15930TIP3   OH269280   3.780   3.080  16.120  0.7925 -0.1308 -0.4739
15930TIP3    H169281   3.822   3.131  16.190  0.2938  0.4093 -0.5624
15930TIP3    H269282   3.771   2.992  16.157  0.7666  0.0886  0.0478
15931TIP3   OH269283   6.555   3.564   5.447 -0.0580  0.1388 -0.1993
15931TIP3    H169284   6.650   3.566   5.435 -0.1029 -1.4839 -1.1418
15931TIP3    H269285   6.531   3.473   5.431 -1.6225  0.2101  1.4260
15932TIP3   OH269286   2.253   4.229  12.778 -0.0196  0.1488  0.6927
15932TIP3    H169287   2.167   4.265  12.802  0.6520  2.1815  0.2502
15932TIP3    H269288   2.253   4.231  12.682  0.5878  0.3373  0.6961
15933TIP3   OH269289   3.257   6.720   4.971  0.8591  0.5531  0.4953
15933TIP3    H169290   3.298   6.751   4.890 -1.8942  3.3636 -0.0200
15933TIP3    H269291   3.194   6.789   4.994  0.1401 -1.0478  4.0031
15934TIP3   OH269292   0.340   1.945  11.559  0.1542  0.3611  0.5844
15934TIP3    H169293   0.371   1.895  11.634  1.5666  2.5830  1.5565
15934TIP3    H269294   0.244   1.935  11.562  0.3393 -1.8233  0.9809
15935TIP3   OH269295   3.445   4.475  12.434 -0.1626 -0.3293 -0.2302
15935TIP3    H169296   3.423   4.566  12.454 -2.2337 -0.3220 -2.0977
15935TIP3    H269297   3.513   4.481  12.367 -0.8144 -0.1144 -0.8851
15936TIP3   OH269298   3.237   5.813  14.604 -0.1771 -0.0457  0.2905
15936TIP3    H169299   3.245   5.748  14.674 -1.7805 -2.2029 -1.3819
15936TIP3    H269300   3.322   5.811  14.560 -1.1748 -3.8573 -1.9091
15937TIP3   OH269301   0.003   5.209  14.723  0.2513  0.3521 -0.0541
15937TIP3    H169302   0.096   5.191  14.709  0.3208  0.0470  0.7713
15937TIP3    H269303  -0.042   5.131  14.690  0.1175  1.2850 -2.3224
15938TIP3   OH269304   1.942   2.733  15.505 -0.4648  0.2263  0.3068
15938TIP3    H169305   2.017   2.791  15.490 -0.0326 -0.7986 -1.9808
15938TIP3    H269306   1.866   2.786  15.482 -0.1514  0.2885 -0.6697
15939TIP3   OH269307   3.237   3.915   3.424 -0.2298  0.1891  0.0206
15939TIP3    H169308   3.241   3.843   3.361 -2.2507  1.7886 -2.1436
15939TIP3    H269309   3.286   3.986   3.382 -0.9107  1.0318  0.6246
15940TIP3   OH269310   2.225   4.022  15.673 -0.3297 -0.3634 -0.2014
15940TIP3    H169311   2.273   4.103  15.657 -1.4042  0.5278  0.9165
15940TIP3    H269312   2.196   3.993  15.586  2.4171 -1.1080 -0.9557
15941TIP3   OH269313   5.992   5.198   4.212  0.3102  0.1966 -0.7084
15941TIP3    H169314   5.968   5.240   4.295 -1.4150  0.1932 -1.1792
15941TIP3    H269315   5.986   5.104   4.230  2.4798  0.1051 -0.1496
15942TIP3   OH269316   3.804   0.304   2.660 -0.8380 -0.1883 -0.2455
15942TIP3    H169317   3.820   0.372   2.594  1.0076  0.0784  0.4264
15942TIP3    H269318   3.709   0.294   2.661 -1.3675  3.3553  0.5733
15943TIP3   OH269319   1.076   4.859  13.519 -0.3181  0.5338 -0.6016
15943TIP3    H169320   1.136   4.801  13.567 -1.5309 -1.9653 -1.8856
15943TIP3    H269321   1.009   4.800  13.485 -3.5180  3.1541  0.6762
15944TIP3   OH269322   6.557   0.161  14.538 -0.4004  0.1175 -0.3951
15944TIP3    H169323   6.622   0.171  14.468 -1.1543 -0.6671 -1.2413
15944TIP3    H269324   6.518   0.248  14.548  1.3658  0.8247  0.7485
15945TIP3   OH269325   4.882   1.001  14.157 -0.6113 -0.7774 -0.7757
15945TIP3    H169326   4.833   0.930  14.116  0.3403 -2.0505  0.2136
15945TIP3    H269327   4.850   1.004  14.247 -0.8241  0.2513 -0.8688
15946TIP3   OH269328   1.939   4.304  15.356 -0.1606 -0.3105  0.0795
15946TIP3    H169329   1.852   4.328  15.388 -0.1557  0.5433 -0.5403
15946TIP3    H269330   1.935   4.208  15.347 -1.4111 -0.1826 -1.0286
15947TIP3   OH269331   1.646   1.676  11.466 -0.2114  0.0841  0.6390
15947TIP3    H169332   1.665   1.740  11.397 -0.4174  0.2951  0.7765
15947TIP3    H269333   1.676   1.592  11.430 -1.6054 -0.0476 -0.2803
15948TIP3   OH269334   4.059   6.018  16.166 -0.3037  0.9080  0.0393
15948TIP3    H169335   3.992   5.964  16.208 -0.0904  1.0161  0.5224
15948TIP3    H269336   4.140   5.969  16.178 -0.5832 -0.3829 -2.5579
15949TIP3   OH269337   0.334   5.408   4.583 -0.3924 -0.2644 -0.6777
15949TIP3    H169338   0.362   5.492   4.618  0.1538  0.1716 -2.0730
15949TIP3    H269339   0.394   5.344   4.622 -0.2078  0.1134 -0.3365
15950TIP3   OH269340   6.308   2.153  13.829  0.0982 -0.1899  0.1546
15950TIP3    H169341   6.234   2.128  13.885 -0.0269  0.0295  0.0868
15950TIP3    H269342   6.352   2.070  13.810  0.4835 -0.2043  1.0674
15951TIP3   OH269343   6.063   1.817  10.666 -0.0641 -0.3345  0.3812
15951TIP3    H169344   6.018   1.874  10.603  0.5608 -1.2437 -0.9226
15951TIP3    H269345   6.142   1.864  10.690 -0.2038 -0.0736  0.3295
15952TIP3   OH269346   5.514   3.072  12.833  0.2214 -0.2569 -0.2030
15952TIP3    H169347   5.497   3.165  12.815  0.3315  0.4050  2.7148
15952TIP3    H269348   5.434   3.040  12.875  1.2230 -0.6756  1.4637
15953TIP3   OH269349   5.264   1.223   2.005  0.1494  0.5897 -0.2031
15953TIP3    H169350   5.219   1.235   2.088  1.1319 -0.3390  0.4852
15953TIP3    H269351   5.195   1.233   1.939 -1.1449 -1.0211  0.8218
15954TIP3   OH269352   0.209   1.487  16.549  0.4007  0.2478  0.5752
15954TIP3    H169353   0.161   1.419  16.502  1.8111 -1.2643  1.2250
15954TIP3    H269354   0.285   1.442  16.585  0.2235  1.6961  2.9387
15955TIP3   OH269355   5.766   0.996   3.746 -0.0852  0.3693  0.8388
15955TIP3    H169356   5.710   1.032   3.677  1.5109  3.1469  0.8387
15955TIP3    H269357   5.806   0.919   3.707 -1.8145 -0.1380 -0.0731
15956TIP3   OH269358   3.218   4.601   1.135 -0.1328  0.1664  0.0414
15956TIP3    H169359   3.208   4.696   1.137 -1.5949  0.1937 -3.1010
15956TIP3    H269360   3.168   4.573   1.059  1.5592 -2.9908 -0.0669
15957TIP3   OH269361   1.026   5.573   0.615 -0.1586 -0.2806 -0.1634
15957TIP3    H169362   0.960   5.621   0.565 -1.3857  0.1645  1.7688
15957TIP3    H269363   1.101   5.567   0.556 -1.4612  0.3137 -1.9829
15958TIP3   OH269364   1.485   3.966   1.706 -0.8904  0.2064 -0.3503
15958TIP3    H169365   1.413   3.912   1.676 -1.4460  0.8047 -0.1234
15958TIP3    H269366   1.532   3.991   1.626 -0.6124 -0.6091 -0.4554
15959TIP3   OH269367   6.643   0.676   0.096 -0.0456  0.5367 -0.3571
15959TIP3    H169368   6.590   0.718   0.164  0.3181  0.6892 -0.1653
15959TIP3    H269369   6.720   0.732   0.088  0.1966  0.1906 -0.4711
15960TIP3   OH269370   6.445   2.021  12.969 -0.3848 -0.1174 -0.0316
15960TIP3    H169371   6.498   2.097  12.944  0.7609 -0.4303  1.3075
15960TIP3    H269372   6.374   2.019  12.904  0.1717  1.4352 -0.7503
15961TIP3   OH269373   5.049   6.049  13.497  0.2660 -0.4353 -0.0603
15961TIP3    H169374   5.144   6.050  13.504  0.4424 -1.6108 -1.7454
15961TIP3    H269375   5.023   5.961  13.524 -0.4677  0.1805  1.3543
15962TIP3   OH269376   3.675   4.864  15.479  0.1897  0.1207  0.0892
15962TIP3    H169377   3.633   4.944  15.447 -0.5922 -0.1619  0.3715
15962TIP3    H269378   3.662   4.801  15.408  2.9192  0.8519 -1.2031
15963TIP3   OH269379   5.656   5.304  11.455 -0.2587  0.2035 -0.0237
15963TIP3    H169380   5.605   5.284  11.376  1.0921 -1.6237 -0.4852
15963TIP3    H269381   5.709   5.227  11.470  0.1668  0.8568  2.2167
15964TIP3   OH269382   4.347   4.122   1.982  0.2916  0.0054 -0.6662
15964TIP3    H169383   4.304   4.039   2.003 -3.0015  1.3934 -1.3746
15964TIP3    H269384   4.337   4.131   1.888  0.2661  1.3821 -0.5500
15965TIP3   OH269385   6.423   3.694  11.949 -0.2440  0.5104  0.0753
15965TIP3    H169386   6.381   3.611  11.971 -0.5352  0.0805 -1.8931
15965TIP3    H269387   6.350   3.752  11.925  0.0691  0.7213 -0.3912
15966TIP3   OH269388   4.459   4.272   0.622  0.0606 -0.3054 -0.1198
15966TIP3    H169389   4.464   4.341   0.688 -2.0138 -1.1263  1.0027
15966TIP3    H269390   4.429   4.317   0.543 -0.1532  0.2692  0.2755
15967TIP3   OH269391   5.298   2.495   4.644  0.5040  0.5215  0.1058
15967TIP3    H169392   5.296   2.590   4.653  0.8757  0.5280  0.1214
15967TIP3    H269393   5.280   2.462   4.732  3.2808  0.5844  0.7843
15968TIP3   OH269394   2.223   6.154  15.223 -0.3087 -0.3016 -0.2038
15968TIP3    H169395   2.223   6.059  15.226  0.8918 -0.3086  0.6020
15968TIP3    H269396   2.138   6.178  15.187 -0.3983 -1.6855 -0.9677
15969TIP3   OH269397   6.446   3.828   0.406 -0.5337 -0.6231 -0.0176
15969TIP3    H169398   6.462   3.734   0.413 -0.8542 -0.6437  0.5581
15969TIP3    H269399   6.420   3.854   0.495  1.5229  0.3876  0.3474
15970TIP3   OH269400   4.931   6.575  16.677 -0.0986  0.2327 -0.3567
15970TIP3    H169401   4.939   6.510  16.607 -0.0765 -0.0235 -0.1174
15970TIP3    H269402   5.004   6.636  16.661  0.9348 -0.7604  0.4185
15971TIP3   OH269403   1.248   3.289  15.603  0.1515  0.2267  0.2930
15971TIP3    H169404   1.207   3.357  15.549  0.0226  1.2071  1.5949
15971TIP3    H269405   1.310   3.336  15.658  1.3180 -0.9434  0.0381
15972TIP3   OH269406   4.838   2.506  13.034 -0.3570  0.3247 -0.1649
15972TIP3    H169407   4.748   2.473  13.029  0.1888 -1.2023 -0.5541
15972TIP3    H269408   4.879   2.453  13.102 -0.0369  1.7737  0.8020
15973TIP3   OH269409   0.622   5.967   0.781 -0.8628 -0.0088  0.4539
15973TIP3    H169410   0.608   5.938   0.690 -0.0324 -0.3184  0.4137
15973TIP3    H269411   0.647   5.887   0.827 -0.1583  0.3489  0.7040
15974TIP3   OH269412   5.594   1.570  15.556  0.4332  0.1159 -0.6365
15974TIP3    H169413   5.554   1.650  15.523 -0.7579 -0.3410 -0.3427
15974TIP3    H269414   5.637   1.597  15.637  1.5142  0.7891 -1.4046
15975TIP3   OH269415   5.575   3.880   0.202  0.0694 -0.3283 -0.4291
15975TIP3    H169416   5.633   3.956   0.202  0.9612 -0.9842  0.3614
15975TIP3    H269417   5.633   3.805   0.190 -0.7212 -0.9408 -0.5213
15976TIP3   OH269418   5.529   2.939   5.558  0.3749 -0.2239 -0.3178
15976TIP3    H169419   5.477   2.871   5.601 -1.3340  1.3860  0.3159
15976TIP3    H269420   5.489   2.949   5.472 -0.8589  1.4525  0.3971
15977TIP3   OH269421   3.704   4.724  12.135  0.1454  0.1187  0.1533
15977TIP3    H169422   3.677   4.746  12.046 -1.9071 -1.3903  0.3186
15977TIP3    H269423   3.683   4.802  12.186 -1.2283  0.0522 -0.2686
15978TIP3   OH269424   1.935   5.833  11.924 -0.1618  0.0059 -0.0413
15978TIP3    H169425   1.916   5.917  11.967 -2.8673 -0.1783 -0.6648
15978TIP3    H269426   2.004   5.854  11.861  1.1192  1.1255  1.6692
15979TIP3   OH269427   1.202   6.055   0.891 -0.3065 -0.1284 -0.0815
15979TIP3    H169428   1.123   6.107   0.878  0.5346  1.1648 -0.1785
15979TIP3    H269429   1.179   5.968   0.857 -1.7412  0.1653  0.0936
15980TIP3   OH269430   0.555   5.277   6.735  0.0225 -0.2110  0.7695
15980TIP3    H169431   0.540   5.188   6.703  0.0978  0.3748 -0.9991
15980TIP3    H269432   0.603   5.320   6.665 -1.8732  1.8563  0.6310
15981TIP3   OH269433   1.649   4.183  11.597  0.0343 -0.1733 -0.2919
15981TIP3    H169434   1.593   4.142  11.531 -0.2860 -0.5179  0.1850
15981TIP3    H269435   1.735   4.144  11.582 -0.2460 -0.9594  0.0956
15982TIP3   OH269436   5.747   3.609   1.793 -0.0307  0.1888  0.3436
15982TIP3    H169437   5.744   3.704   1.804 -1.0993 -0.0587  2.5175
15982TIP3    H269438   5.713   3.573   1.875 -1.3088 -2.0637 -1.0666
15983TIP3   OH269439   4.892   0.016   0.092  0.2213  0.0460 -0.0417
15983TIP3    H169440   4.902  -0.071   0.130 -0.2064 -0.9392 -2.0555
15983TIP3    H269441   4.830   0.060   0.149  1.6772 -0.3428  1.9506
15984TIP3   OH269442   3.178   3.550   0.220  0.2487 -0.7410  0.0162
15984TIP3    H169443   3.102   3.569   0.275  1.0331 -0.1802  0.9428
15984TIP3    H269444   3.250   3.597   0.262  1.3337 -2.1227 -0.2484
15985TIP3   OH269445   1.200   1.700  12.154  0.1474 -0.2773  0.1189
15985TIP3    H169446   1.262   1.638  12.115  0.2558 -0.1276  0.0528
15985TIP3    H269447   1.255   1.769  12.190  0.0689 -0.5854  0.8478
15986TIP3   OH269448   6.279   4.088  11.857  0.0785  0.4846 -0.1118
15986TIP3    H169449   6.273   4.176  11.821  1.3891  1.2464  1.3855
15986TIP3    H269450   6.201   4.042  11.824 -0.9387  2.3698 -0.4389
15987TIP3   OH269451   6.479   1.498  14.493  0.5133  0.2624  0.2765
15987TIP3    H169452   6.408   1.532  14.439  1.8782 -0.3372 -2.0534
15987TIP3    H269453   6.478   1.552  14.572 -3.4285 -0.7137  1.0714
15988TIP3   OH269454   3.822   1.793   3.381 -0.0047 -0.4642 -0.1701
15988TIP3    H169455   3.780   1.877   3.364 -0.6874 -0.9937 -1.2477
15988TIP3    H269456   3.753   1.728   3.363  1.0025 -1.3108 -1.1023
15989TIP3   OH269457   6.083   0.897   3.841 -0.3088 -0.0974  0.2053
15989TIP3    H169458   6.037   0.893   3.756  0.9924 -1.4884 -0.4671
15989TIP3    H269459   6.056   0.981   3.878 -1.7835  0.0443 -1.0761
15990TIP3   OH269460   4.707   4.293   0.126  0.2713  0.1219 -0.3875
15990TIP3    H169461   4.714   4.254   0.213  0.2172  0.7998 -0.0776
15990TIP3    H269462   4.614   4.287   0.104  0.1781  0.5492 -0.1171
15991TIP3   OH269463   5.688   2.800  16.242  0.3500 -0.0090  0.4064
15991TIP3    H169464   5.695   2.894  16.227 -0.9435  0.2701  1.4327
15991TIP3    H269465   5.761   2.780  16.301  0.8761  0.2607 -0.1388
15992TIP3   OH269466   5.104   1.242   4.729  0.0878  0.2574  0.0359
15992TIP3    H169467   5.088   1.271   4.819 -0.1065  1.5105 -0.3710
15992TIP3    H269468   5.065   1.311   4.675 -1.5080 -1.3826 -1.0332
15993TIP3   OH269469   2.814   1.082  15.133 -0.6968 -0.1134 -0.4368
15993TIP3    H169470   2.765   1.003  15.108 -2.6296 -0.0531  2.6184
15993TIP3    H269471   2.906   1.054  15.131 -1.3671 -3.4106  2.8743
15994TIP3   OH269472   2.179   1.203   0.924 -0.2953  0.2928  0.1375
15994TIP3    H169473   2.228   1.168   0.849 -0.5190  1.7410 -0.7301
15994TIP3    H269474   2.160   1.127   0.978  1.6272 -0.5262 -0.2495
15995TIP3   OH269475   5.292   3.654   5.695  0.0804 -0.3030  0.1241
15995TIP3    H169476   5.311   3.651   5.602  0.2933  1.7338  0.0567
15995TIP3    H269477   5.377   3.665   5.737  0.0809 -2.0613  0.6581
15996TIP3   OH269478   6.119   6.702   6.766 -0.2895  0.0118  0.0552
15996TIP3    H169479   6.034   6.744   6.756 -0.6771 -0.9766 -1.0790
15996TIP3    H269480   6.163   6.753   6.833 -0.4255  2.6645 -1.7316
15997TIP3   OH269481   5.397   1.741  11.866 -0.3895 -0.1110  0.4050
15997TIP3    H169482   5.414   1.735  11.960  0.4885  0.4917  0.2921
15997TIP3    H269483   5.383   1.650  11.839 -1.3199 -0.2293  1.2282
15998TIP3   OH269484   0.064   1.644   3.076 -0.1383 -0.5472 -0.4702
15998TIP3    H169485   0.136   1.655   3.014 -0.2265 -1.1436 -0.6826
15998TIP3    H269486   0.082   1.709   3.145  0.2390 -0.2362 -0.8544
15999TIP3   OH269487   5.941   0.433   3.005 -0.4737  0.1668 -0.2043
15999TIP3    H169488   5.974   0.443   2.916  0.8475  0.0012  0.2552
15999TIP3    H269489   5.941   0.339   3.021  0.7390  0.2717  0.4909
16000TIP3   OH269490   2.880   0.001   3.292  0.1205  0.1880  0.5687
16000TIP3    H169491   2.831  -0.055   3.353  0.0560 -1.2599 -0.7590
16000TIP3    H269492   2.813   0.038   3.235  0.4323 -0.9135 -0.5460
16001TIP3   OH269493   2.000   2.051   2.074 -0.4807 -0.3248  0.1087
16001TIP3    H169494   2.065   2.102   2.123  0.0961 -1.5242  0.6322
16001TIP3    H269495   1.934   2.027   2.140 -1.6832  1.2001 -0.4944
16002TIP3   OH269496   1.298   4.488  17.023  0.1370 -0.0192  0.4363
16002TIP3    H169497   1.252   4.456  17.101 -2.9254 -3.1903 -2.3101
16002TIP3    H269498   1.332   4.409  16.982 -1.3970  0.9788 -3.1283
16003TIP3   OH269499   1.395   1.013  11.256  0.2628  0.3957  0.3028
16003TIP3    H169500   1.472   1.032  11.309  0.7117 -0.2323 -0.1067
16003TIP3    H269501   1.331   0.978  11.318  0.8216 -0.4335  0.4328
16004TIP3   OH269502   1.374   2.100   3.739  0.6158 -0.2276  0.0746
16004TIP3    H169503   1.346   2.186   3.771 -0.1197 -0.6279  0.5232
16004TIP3    H269504   1.301   2.042   3.758  0.7234 -0.7747 -1.0747
16005TIP3   OH269505   2.234   1.863   3.133 -0.1047  0.0451  0.0253
16005TIP3    H169506   2.169   1.795   3.117 -0.7579  0.3342  1.2942
16005TIP3    H269507   2.205   1.937   3.079 -0.7938  0.1454  0.5268
16006TIP3   OH269508   0.027   6.691  11.452  0.6964 -0.3277 -0.3991
16006TIP3    H169509  -0.006   6.761  11.509 -0.0417 -0.6724 -0.4026
16006TIP3    H269510   0.118   6.717  11.434 -0.3148  2.1088 -2.6610
16007TIP3   OH269511   0.290   3.440  12.889  0.7164  0.2007 -0.2397
16007TIP3    H169512   0.277   3.465  12.798  1.0587 -0.9553 -0.6301
16007TIP3    H269513   0.218   3.482  12.937 -1.7590 -2.1801 -1.5944
16008TIP3   OH269514   1.840   2.939   4.746  0.3051 -0.7708  0.2239
16008TIP3    H169515   1.807   2.880   4.813  2.3940 -2.2420  0.0587
16008TIP3    H269516   1.930   2.959   4.773 -0.0735  1.7860 -0.1236
16009TIP3   OH269517   1.178   1.327  11.166 -0.0191 -0.6189 -0.2531
16009TIP3    H169518   1.265   1.351  11.198 -0.9854  1.9384  0.7512
16009TIP3    H269519   1.178   1.352  11.074  0.1601 -0.1085 -0.1194
16010TIP3   OH269520   4.064   4.753  11.019 -1.1150 -0.6576 -0.1890
16010TIP3    H169521   4.023   4.736  11.104 -0.4824 -2.3939 -0.2042
16010TIP3    H269522   4.049   4.846  11.005 -3.2852 -0.7851  0.7394
16011TIP3   OH269523   5.835   3.318   4.506  0.2312 -0.6261 -0.6080
16011TIP3    H169524   5.768   3.295   4.571  0.7991  0.6741  0.4917
16011TIP3    H269525   5.918   3.290   4.546  0.8380  2.1978  0.3398
16012TIP3   OH269526   0.087   4.284   0.016 -0.0124  0.1886 -0.2655
16012TIP3    H169527   0.125   4.268   0.103 -1.1262  1.2432  0.4407
16012TIP3    H269528   0.160   4.320  -0.035  1.0538 -1.7841 -0.2578
16013TIP3   OH269529   4.750   4.710  14.823 -0.1701 -0.7037 -0.3904
16013TIP3    H169530   4.762   4.663  14.740 -1.4378  0.4082 -1.2523
16013TIP3    H269531   4.679   4.663  14.866  0.2673 -1.0849 -0.0833
16014TIP3   OH269532   6.448   2.238   2.900 -0.5841 -0.0558 -0.6298
16014TIP3    H169533   6.422   2.330   2.910 -0.2291  0.0409 -0.6017
16014TIP3    H269534   6.541   2.241   2.880 -0.3630 -0.4576  0.3298
16015TIP3   OH269535   5.146   4.198  12.050 -0.0236 -0.8092 -0.1831
16015TIP3    H169536   5.126   4.275  11.997 -0.5295 -1.0913 -0.4190
16015TIP3    H269537   5.172   4.232  12.135  0.3443 -0.3593 -0.4762
16016TIP3   OH269538   0.295   0.169  14.538 -0.3620 -0.6032 -0.1201
16016TIP3    H169539   0.322   0.124  14.618 -2.3402 -2.0328 -0.1972
16016TIP3    H269540   0.360   0.144  14.473  0.0763 -1.1544  0.5132
16017TIP3   OH269541   5.746   5.749  11.033 -0.2550  0.1597 -0.3652
16017TIP3    H169542   5.826   5.766  10.983  0.6338 -1.7601  0.3136
16017TIP3    H269543   5.772   5.685  11.099 -1.9223  0.9412  1.1356
16018TIP3   OH269544   2.676   6.256   1.547  0.2791  0.4903 -0.0658
16018TIP3    H169545   2.694   6.338   1.595  0.8379  0.6082 -0.4625
16018TIP3    H269546   2.723   6.267   1.464 -1.3864  0.6614 -1.0250
16019TIP3   OH269547   4.003   5.096  11.020 -0.0154 -0.0166 -0.3958
16019TIP3    H169548   4.089   5.076  11.057  0.5823  1.9317 -0.6101
16019TIP3    H269549   3.950   5.119  11.096  0.4179  1.2588 -0.4474
16020TIP3   OH269550   1.829   6.478   3.015  0.1650  0.3145 -0.3304
16020TIP3    H169551   1.902   6.447   2.962 -0.6018 -0.2989 -1.0619
16020TIP3    H269552   1.835   6.426   3.096  0.0324 -0.3582 -0.7467
16021TIP3   OH269553   3.928   4.060   6.308  0.2269 -0.8846  0.5319
16021TIP3    H169554   3.954   4.121   6.377 -0.7199 -0.1560  0.2556
16021TIP3    H269555   3.843   4.091   6.278 -0.1122 -2.1189  0.1214
16022TIP3   OH269556   6.597   1.926   0.244  0.1300  0.2525  0.2534
16022TIP3    H169557   6.683   1.948   0.279  0.0204  0.3053  0.4879
16022TIP3    H269558   6.616   1.871   0.168  0.4446  1.7310 -0.7936
16023TIP3   OH269559   3.632   2.583  11.704  0.2941  0.2750  0.2273
16023TIP3    H169560   3.719   2.547  11.720 -0.3370 -1.4118  0.0761
16023TIP3    H269561   3.593   2.590  11.791 -0.5103 -1.9646  0.1067
16024TIP3   OH269562   4.851   0.356  14.069  0.0700  0.3713  0.2565
16024TIP3    H169563   4.792   0.308  14.126  0.4270 -0.3193  0.0559
16024TIP3    H269564   4.937   0.346  14.109  0.2377  0.3470 -0.1011
16025TIP3   OH269565   2.645   1.615  12.455  0.1408  0.2556 -0.4738
16025TIP3    H169566   2.554   1.645  12.452 -0.6022 -1.7407  0.3056
16025TIP3    H269567   2.649   1.545  12.390  1.1725  0.4355 -0.6174
16026TIP3   OH269568   3.725   0.708  14.020  0.0994  0.0579 -0.6218
16026TIP3    H169569   3.790   0.654  14.065 -1.5135 -0.6795  0.9421
16026TIP3    H269570   3.760   0.797  14.025  1.3582 -0.4288 -0.5255
16027TIP3   OH269571   1.934   4.512  15.022  0.3901 -0.6608  0.4960
16027TIP3    H169572   1.879   4.436  15.003  0.3863 -0.7497  0.8609
16027TIP3    H269573   1.939   4.559  14.939  1.3850 -1.6926 -0.0591
16028TIP3   OH269574   1.457   5.536  15.462 -0.3212  0.2555 -0.1285
16028TIP3    H169575   1.363   5.552  15.447 -0.2199 -0.2058 -1.3436
16028TIP3    H269576   1.500   5.576  15.387  0.5091  0.8086  0.6173
16029TIP3   OH269577   1.535   2.737   0.949  0.2561 -0.4088  0.1847
16029TIP3    H169578   1.576   2.656   0.980  0.6705 -0.3416 -0.1914
16029TIP3    H269579   1.582   2.759   0.869 -0.4672 -0.3013 -0.2212
16030TIP3   OH269580   6.582   6.074  13.800 -0.2470 -0.5809  0.0923
16030TIP3    H169581   6.543   6.057  13.714  0.2498  2.6863 -0.9229
16030TIP3    H269582   6.511   6.110  13.853  0.3966  1.7732 -0.5319
16031TIP3   OH269583   1.910   5.510   1.278  0.2545 -0.1478  0.5767
16031TIP3    H169584   1.879   5.508   1.187  1.3342 -1.4640  0.1934
16031TIP3    H269585   1.978   5.577   1.279  1.5018 -1.3660 -0.0607
16032TIP3   OH269586   3.269   2.077   5.019  0.2382  0.4506 -0.3510
16032TIP3    H169587   3.235   2.070   5.108 -0.8036  2.3504 -0.5441
16032TIP3    H269588   3.194   2.055   4.963  1.1620 -1.7805 -0.8128
16033TIP3   OH269589   4.030   1.077  13.725  0.4158 -0.3323  0.6737
16033TIP3    H169590   4.109   1.062  13.672 -0.2992 -1.7257 -0.0603
16033TIP3    H269591   4.039   1.166  13.757  0.6508  0.8009 -2.2656
16034TIP3   OH269592   4.746   1.099   3.646  0.1863  0.4458 -0.0441
16034TIP3    H169593   4.673   1.078   3.705 -0.5660  0.5865 -0.9203
16034TIP3    H269594   4.788   1.175   3.687  0.2762 -0.0553  0.8290
16035TIP3   OH269595   5.429   3.555   3.042  0.3011  0.0857 -0.0082
16035TIP3    H169596   5.389   3.573   2.956 -0.6696  0.1476  0.4446
16035TIP3    H269597   5.354   3.546   3.101  0.9877  0.6833  0.9626
16036TIP3   OH269598   0.770   5.777  11.074 -0.0178  0.9431  0.1727
16036TIP3    H169599   0.837   5.754  11.009 -1.4704  1.7058 -1.7039
16036TIP3    H269600   0.710   5.702  11.074 -2.4520  2.6363 -2.8314
16037TIP3   OH269601   3.617   6.440  11.929 -0.4092  0.1461  0.5676
16037TIP3    H169602   3.546   6.388  11.891  1.0647  0.9190 -3.8383
16037TIP3    H269603   3.693   6.381  11.928 -0.0973  0.5063  1.5691
16038TIP3   OH269604   3.365   3.301  14.198 -0.0306 -0.3904  0.3813
16038TIP3    H169605   3.434   3.318  14.134 -0.7207 -0.1717 -0.3267
16038TIP3    H269606   3.411   3.267  14.275  1.0001  0.9168  0.3865
16039TIP3   OH269607   3.502   6.083   5.263  0.3255 -0.7719 -0.1081
16039TIP3    H169608   3.446   6.154   5.231 -1.2845 -2.4922 -1.3263
16039TIP3    H269609   3.566   6.071   5.193  0.5327 -0.5955  0.0508
16040TIP3   OH269610   0.368   1.832  15.899  0.4178  0.2670  0.1699
16040TIP3    H169611   0.329   1.759  15.851  0.9590 -0.0011  0.1302
16040TIP3    H269612   0.454   1.844  15.859 -0.3731  2.1812 -1.1288
16041TIP3   OH269613   3.844   1.255  15.880 -0.3846  0.3527 -0.0027
16041TIP3    H169614   3.816   1.210  15.800  0.3888 -1.1464  0.5516
16041TIP3    H269615   3.769   1.310  15.904 -1.0971 -0.1357 -1.0475
16042TIP3   OH269616   1.242   6.811   3.826 -0.0105  0.4305 -0.0559
16042TIP3    H169617   1.321   6.806   3.772 -0.1679  1.0719 -0.3493
16042TIP3    H269618   1.268   6.774   3.910  0.2850 -0.4279 -0.5097
16043TIP3   OH269619   3.938   1.381   3.179 -0.4687  0.0242  0.6244
16043TIP3    H169620   4.005   1.313   3.175 -1.5889 -1.1000  0.3376
16043TIP3    H269621   3.987   1.463   3.168  0.7512 -0.8144 -0.6077
16044TIP3   OH269622   5.516   2.836  14.920 -0.0560  0.3231 -0.4427
16044TIP3    H169623   5.515   2.928  14.948 -1.0083 -0.1296  1.1240
16044TIP3    H269624   5.425   2.809  14.923  0.1800 -0.6036 -1.2041
16045TIP3   OH269625   5.103   3.724  11.903 -0.1017 -0.2494  0.3931
16045TIP3    H169626   5.022   3.772  11.889 -0.1928 -0.6209 -0.4002
16045TIP3    H269627   5.075   3.636  11.928  0.0667 -0.0539  1.3374
16046TIP3   OH269628   4.591   1.517  12.230  0.6544  0.6143  0.2551
16046TIP3    H169629   4.576   1.438  12.283  0.2068 -0.2417 -1.1055
16046TIP3    H269630   4.645   1.487  12.157 -0.2143  1.3699 -0.7285
16047TIP3   OH269631   5.678   3.247   2.938 -0.1007 -0.7243  0.1408
16047TIP3    H169632   5.612   3.189   2.900  0.9322 -3.3270  2.0469
16047TIP3    H269633   5.641   3.276   3.021  0.0002  0.2237 -0.1269
16048TIP3   OH269634   5.244   6.650   0.662 -0.3091 -0.3598 -0.2040
16048TIP3    H169635   5.247   6.742   0.685  1.5856 -0.5705  0.5661
16048TIP3    H269636   5.240   6.604   0.746 -3.0164 -1.0105 -0.5908
16049TIP3   OH269637   5.707   3.942  12.837  0.5937 -0.1527  0.2280
16049TIP3    H169638   5.704   3.936  12.741 -0.5194 -1.3873  0.3285
16049TIP3    H269639   5.673   4.030  12.856  0.7751  0.0836 -0.5018
16050TIP3   OH269640   4.719   6.436   3.602 -0.1071 -0.0523 -0.3242
16050TIP3    H169641   4.667   6.482   3.537 -1.0077  1.8380  1.6335
16050TIP3    H269642   4.807   6.432   3.563 -0.7760  0.2909 -1.9621
16051TIP3   OH269643   2.946   5.799  15.456 -0.3192 -0.1632  0.7039
16051TIP3    H169644   2.888   5.746  15.511  0.3528 -1.6393  0.0543
16051TIP3    H269645   2.920   5.778  15.366  0.4055  0.0809  0.4288
16052TIP3   OH269646   6.718   4.036   1.159 -0.1286  0.4084 -0.2332
16052TIP3    H169647   6.724   3.945   1.131  1.0307  0.7146 -1.0658
16052TIP3    H269648   6.661   4.034   1.236 -0.7761 -0.8988 -0.7157
16053TIP3   OH269649   0.241   5.745   4.040  0.2913  0.1282 -0.1554
16053TIP3    H169650   0.198   5.683   4.100  0.2734 -0.4466 -0.7463
16053TIP3    H269651   0.173   5.768   3.977  0.0720  1.3762  0.5124
16054TIP3   OH269652   4.321   5.832  15.648  0.1240 -0.2410 -0.5460
16054TIP3    H169653   4.359   5.843  15.561  0.7390  1.8460 -0.0539
16054TIP3    H269654   4.262   5.906  15.659  1.6629  0.7785  1.5973
16055TIP3   OH269655   6.566   6.358  12.478  0.3117 -0.5827 -0.0056
16055TIP3    H169656   6.554   6.370  12.573  2.2954 -2.4515  0.5559
16055TIP3    H269657   6.656   6.385  12.462 -0.0197 -0.2353 -1.4020
16056TIP3   OH269658   3.666   0.325  16.740  0.2014  0.6802  0.2897
16056TIP3    H169659   3.668   0.300  16.647  3.0340 -0.5115  0.5431
16056TIP3    H269660   3.593   0.276  16.776 -0.5069  0.5939 -1.1718
16057TIP3   OH269661   1.893   2.678   1.178  0.3953 -0.5261 -0.5107
16057TIP3    H169662   1.950   2.681   1.254  0.8699 -1.0915 -0.8394
16057TIP3    H269663   1.944   2.718   1.107  0.6067 -1.5256 -0.9405
16058TIP3   OH269664   5.827   0.041  13.326  0.3293 -0.3556  0.3000
16058TIP3    H169665   5.754   0.016  13.382  0.3337 -1.0052  0.0259
16058TIP3    H269666   5.897  -0.019  13.350  0.9523  0.5943  0.9217
16059TIP3   OH269667   2.542   0.213   5.791 -0.0068 -0.2982  0.1600
16059TIP3    H169668   2.542   0.117   5.792  0.6913 -0.3710 -1.8730
16059TIP3    H269669   2.634   0.237   5.796  0.0965  0.1074 -2.4272
16060TIP3   OH269670   1.951   4.567   5.325 -0.0546  0.4128  0.1752
16060TIP3    H169671   1.881   4.620   5.363  0.4090  2.8439 -2.0619
16060TIP3    H269672   2.031   4.604   5.363  0.1771 -1.6403  1.8856
16061TIP3   OH269673   0.982   5.104  15.351 -0.4284 -0.4739 -0.2148
16061TIP3    H169674   1.049   5.142  15.295 -1.5856  2.1697  0.0553
16061TIP3    H269675   0.936   5.042  15.294 -1.6678  2.2241 -2.3877
16062TIP3   OH269676   5.050   3.158   4.611  0.5659  0.3297  0.1658
16062TIP3    H169677   5.023   3.081   4.562 -1.1655  0.9609  0.0362
16062TIP3    H269678   5.144   3.147   4.625  0.7217 -0.8285 -1.5418
16063TIP3   OH269679   6.618   0.620  16.698  0.3870 -0.2658 -0.5147
16063TIP3    H169680   6.557   0.588  16.631  0.4756 -1.6834  0.0437
16063TIP3    H269681   6.678   0.547  16.712 -0.2114 -0.4068  1.7880
16064TIP3   OH269682   3.956   3.559  16.357  0.1930 -0.0203  0.1025
16064TIP3    H169683   3.916   3.633  16.312 -0.0217  0.3103  0.8153
16064TIP3    H269684   3.969   3.590  16.447  0.6975 -0.6265  0.2456
16065TIP3   OH269685   5.374   2.747   3.694 -0.3030  0.0491 -0.0036
16065TIP3    H169686   5.304   2.709   3.746 -1.1672  0.6292 -0.7121
16065TIP3    H269687   5.436   2.675   3.681 -2.1227 -1.3135 -1.7247
16066TIP3   OH269688   6.132   2.317   0.820  0.4174 -0.1380 -0.2954
16066TIP3    H169689   6.203   2.370   0.855 -0.6359  0.6715  0.7052
16066TIP3    H269690   6.112   2.255   0.891  1.2368 -1.5152 -1.2216
16067TIP3   OH269691   1.647   1.346   3.387 -0.2013 -0.1199  0.3341
16067TIP3    H169692   1.705   1.290   3.337  0.0414  0.7531 -0.3883
16067TIP3    H269693   1.594   1.392   3.321 -0.8080  0.0608  0.9291
16068TIP3   OH269694   1.396   3.062   4.338  0.4077  0.2709 -0.1721
16068TIP3    H169695   1.403   3.143   4.390  1.7571 -0.7133  1.2610
16068TIP3    H269696   1.306   3.032   4.355  1.1302 -0.5978  2.5943
16069TIP3   OH269697   4.539   5.689   3.120  0.1088 -0.4012  0.1148
16069TIP3    H169698   4.453   5.701   3.079  0.4350  1.2459 -0.1723
16069TIP3    H269699   4.587   5.635   3.058 -0.3010 -0.2499 -0.3456
16070TIP3   OH269700   4.880   2.115  14.049 -0.1423  0.0618 -0.5749
16070TIP3    H169701   4.839   2.134  13.964 -0.6214 -1.0563 -0.6084
16070TIP3    H269702   4.881   2.019  14.054  0.8879  0.0986  0.2027
16071TIP3   OH269703   3.795   4.255   6.033  0.1961 -0.1123 -0.2500
16071TIP3    H169704   3.788   4.347   6.060 -0.3090 -0.3369  0.4154
16071TIP3    H269705   3.886   4.232   6.050  0.0586 -0.0424  0.6356
16072TIP3   OH269706   3.268   3.958  12.181 -0.0867  0.1479  0.4175
16072TIP3    H169707   3.352   4.000  12.203 -0.2237  1.0920 -0.7979
16072TIP3    H269708   3.203   4.027  12.192 -0.3035  0.3284 -1.7199
16073TIP3   OH269709   2.324   5.892   5.305  0.7042 -0.1489  0.1233
16073TIP3    H169710   2.308   5.799   5.291  0.0436 -0.1159  0.5735
16073TIP3    H269711   2.262   5.936   5.247  0.7303  0.0058  0.2113
16074TIP3   OH269712   6.646   4.747   5.904  0.2721 -0.5855  0.2535
16074TIP3    H169713   6.610   4.718   5.988 -3.3255  1.5940 -0.3249
16074TIP3    H269714   6.724   4.798   5.928 -0.7552  0.1236  2.3239
16075TIP3   OH269715   3.695   5.686  12.841  0.1604  1.1244  0.4836
16075TIP3    H169716   3.779   5.646  12.819  0.0132  0.8230  0.4690
16075TIP3    H269717   3.629   5.631  12.797 -0.0558  1.2507  0.6450
16076TIP3   OH269718   0.188   5.307  12.620 -0.3013  0.0860  0.0710
16076TIP3    H169719   0.281   5.289  12.635 -0.0789  0.0524 -1.2059
16076TIP3    H269720   0.170   5.386  12.670 -0.5791 -1.9234  3.4933
16077TIP3   OH269721   4.745   3.497   5.473 -0.5885  0.4608  0.1165
16077TIP3    H169722   4.811   3.438   5.510  0.0978  1.1178 -0.0455
16077TIP3    H269723   4.787   3.583   5.471 -1.7902  1.0997  0.9271
16078TIP3   OH269724   0.140   6.797  14.315 -0.8638  0.1561  0.1370
16078TIP3    H169725   0.164   6.808  14.223 -0.9637  0.6544  0.1648
16078TIP3    H269726   0.193   6.862  14.361 -0.2003 -0.6559  0.5346
16079TIP3   OH269727   5.498   2.320   5.688  0.2809 -0.4929  0.3944
16079TIP3    H169728   5.557   2.303   5.762  0.6899 -0.9931 -0.0359
16079TIP3    H269729   5.499   2.415   5.679  4.4220 -0.5011 -2.2073
16080TIP3   OH269730   1.200   4.705   5.858 -0.0553  0.2652 -0.1404
16080TIP3    H169731   1.167   4.616   5.850  0.0229  0.3036 -1.0139
16080TIP3    H269732   1.276   4.698   5.915  0.9645 -0.5279 -1.5286
16081TIP3   OH269733   1.582   1.389  16.246 -0.9197 -0.0272  0.0388
16081TIP3    H169734   1.530   1.309  16.258 -2.5482  0.8117 -1.0836
16081TIP3    H269735   1.536   1.438  16.178 -0.3452  2.1938  1.1454
16082TIP3   OH269736   0.133   5.827   5.468  0.1356  0.3197  0.5566
16082TIP3    H169737   0.079   5.890   5.421  1.1624 -0.2862 -1.5856
16082TIP3    H269738   0.075   5.790   5.535 -0.5693  3.2308  1.6768
16083TIP3   OH269739   4.774   4.305  16.948  0.3502 -0.1134  0.4234
16083TIP3    H169740   4.752   4.333  17.037 -0.0409 -0.4145  0.4233
16083TIP3    H269741   4.838   4.235  16.961  0.7937  0.2900  0.4451
16084TIP3   OH269742   5.654   2.599  14.902 -0.0726 -0.1457 -0.0522
16084TIP3    H169743   5.582   2.535  14.893 -0.6713  0.6269 -0.8870
16084TIP3    H269744   5.612   2.684  14.893  0.8189  0.3647  0.4437
16085TIP3   OH269745   2.086   6.108  11.471 -0.4684  0.2020 -0.0664
16085TIP3    H169746   2.083   6.204  11.481 -0.6076  0.4454 -2.1104
16085TIP3    H269747   2.180   6.088  11.465 -0.4216  0.1425  0.6903
16086TIP3   OH269748   5.642   5.700   2.243 -0.3093 -0.6753 -0.3103
16086TIP3    H169749   5.682   5.627   2.291  2.9320  0.8098 -0.5417
16086TIP3    H269750   5.632   5.667   2.154  1.0697 -0.9117 -0.3989
16087TIP3   OH269751   5.994   2.986  14.069 -0.0053 -0.0658 -0.3254
16087TIP3    H169752   6.009   2.935  13.989 -1.2432 -0.2579 -0.4529
16087TIP3    H269753   5.956   2.924  14.131 -1.0870  0.5671 -0.3261
16088TIP3   OH269754   1.945   3.022  11.036  0.0735 -0.3839 -0.0438
16088TIP3    H169755   1.973   2.945  10.987  2.7589  1.1245 -1.0865
16088TIP3    H269756   1.873   3.059  10.984  1.3517 -0.0859 -1.6744
16089TIP3   OH269757   1.747   1.844   5.420  0.3357  0.2132  0.2913
16089TIP3    H169758   1.657   1.813   5.431  0.6063 -0.0526  2.0559
16089TIP3    H269759   1.758   1.911   5.488  1.6603 -0.1994  0.5117
16090TIP3   OH269760   2.611   0.178  16.456  0.3257 -0.0063  1.0098
16090TIP3    H169761   2.524   0.149  16.484  0.3381 -0.4703  0.5879
16090TIP3    H269762   2.671   0.123  16.506  0.3486 -0.8142  0.1152
16091TIP3   OH269763   0.622   4.819   2.456 -0.0358 -0.5839  0.3638
16091TIP3    H169764   0.644   4.840   2.365  0.2931 -0.7482  0.4010
16091TIP3    H269765   0.538   4.861   2.471  1.1840  1.9180  0.8427
16092TIP3   OH269766   2.285   6.746   4.043 -0.0174 -0.2610  0.2810
16092TIP3    H169767   2.195   6.765   4.014  0.7017 -0.2684 -2.2266
16092TIP3    H269768   2.310   6.668   3.992  2.5966  1.8506 -2.0042
16093TIP3   OH269769   5.762   3.374   1.130 -0.2434  0.7074 -0.3860
16093TIP3    H169770   5.812   3.300   1.095  2.7639  2.8779 -1.0806
16093TIP3    H269771   5.736   3.346   1.218 -0.3254 -1.6105 -1.0961
16094TIP3   OH269772   1.224   5.587  14.993 -0.3921  0.1235 -0.1096
16094TIP3    H169773   1.184   5.563  15.077 -1.5408  0.9281 -0.3939
16094TIP3    H269774   1.182   5.671  14.970  2.4811  1.7812  0.2402
16095TIP3   OH269775   2.259   3.192   3.819  0.3031  0.4969 -0.7842
16095TIP3    H169776   2.263   3.130   3.892 -1.6152 -2.0168 -2.6293
16095TIP3    H269777   2.264   3.278   3.860 -2.8753 -0.6873  2.6243
16096TIP3   OH269778   5.285   2.778   4.624 -0.9020 -0.0723 -0.4602
16096TIP3    H169779   5.239   2.851   4.665  0.8415  0.2056  1.1772
16096TIP3    H269780   5.350   2.819   4.568  0.0568 -0.3267  0.4315
16097TIP3   OH269781   5.482   2.267  11.982  0.1688  0.3266 -0.7495
16097TIP3    H169782   5.516   2.297  12.066  2.5131 -1.1149 -1.1163
16097TIP3    H269783   5.392   2.301  11.980  0.5220  1.6482  1.6561
16098TIP3   OH269784   6.406   2.551   5.692 -0.1285  0.6390  0.4787
16098TIP3    H169785   6.373   2.465   5.718  2.6428 -0.6145  0.1372
16098TIP3    H269786   6.451   2.584   5.769  1.8105  0.1657 -0.3971
16099TIP3   OH269787   0.839   3.250   5.292  0.0604  0.6764 -0.2357
16099TIP3    H169788   0.928   3.228   5.318  0.4417 -0.2302 -2.1404
16099TIP3    H269789   0.793   3.268   5.374  1.5460 -0.5261  0.8948
16100TIP3   OH269790   2.177   1.503  16.320  0.1096  0.2587 -0.0487
16100TIP3    H169791   2.165   1.552  16.401 -0.6165  0.3116 -0.1820
16100TIP3    H269792   2.117   1.429  16.328  0.1336  0.1906 -0.4748
16101TIP3   OH269793   2.707   5.721   1.557 -0.4335 -0.2790  0.3846
16101TIP3    H169794   2.636   5.664   1.528 -0.1480  0.2784 -1.5510
16101TIP3    H269795   2.786   5.682   1.520  0.0035  0.2689  0.7229
16102TIP3   OH269796   0.818   4.994  12.362 -0.0773 -0.1757  0.7022
16102TIP3    H169797   0.766   4.944  12.426 -1.0428  1.2352  1.0692
16102TIP3    H269798   0.762   5.068  12.339 -0.1050 -1.0332 -2.4141
16103TIP3   OH269799   3.554   1.930   2.278 -0.3604  0.3019  0.6125
16103TIP3    H169800   3.599   2.009   2.308  0.5755  0.8580 -1.9846
16103TIP3    H269801   3.524   1.951   2.190 -0.7139 -1.9996  0.1166
16104TIP3   OH269802   2.124   0.073  15.173 -0.2475 -0.3257  0.4069
16104TIP3    H169803   2.141   0.098  15.264 -1.1199 -2.2134  1.1513
16104TIP3    H269804   2.072  -0.007  15.180  0.1319 -0.8214 -1.7668
16105TIP3   OH269805   1.916   1.807   3.117 -0.2158 -0.5374 -0.1499
16105TIP3    H169806   1.949   1.756   3.043 -0.8390 -2.5010  0.8481
16105TIP3    H269807   1.829   1.772   3.134 -0.5296  0.6389  0.8241
16106TIP3   OH269808   6.776   5.622  15.945 -0.2409 -0.5344 -0.0911
16106TIP3    H169809   6.747   5.564  16.015 -1.0643  1.1139  0.9966
16106TIP3    H269810   6.871   5.614  15.945 -0.3227 -1.7275  0.1370
16107TIP3   OH269811   6.455   6.156   1.828  0.3257  0.2924 -0.1061
16107TIP3    H169812   6.548   6.145   1.850  0.2458  0.5342  0.3614
16107TIP3    H269813   6.432   6.075   1.782  0.4917 -0.2443  0.7325
16108TIP3   OH269814   5.308   3.859  11.027 -0.0787  0.4699  0.2230
16108TIP3    H169815   5.327   3.928  10.964 -0.4132 -0.5134 -1.0067
16108TIP3    H269816   5.383   3.799  11.020 -0.7683 -0.3627 -0.3022
16109TIP3   OH269817   2.942   6.235  14.475  0.9317 -0.1140 -0.1386
16109TIP3    H169818   2.932   6.308  14.535  0.1727  0.0419 -0.4435
16109TIP3    H269819   3.031   6.203  14.490  0.6932 -0.2116  1.2042
16110TIP3   OH269820   4.252   1.037   0.497  0.2205 -0.1593  0.2050
16110TIP3    H169821   4.329   1.011   0.446 -0.2277 -0.9752 -0.0561
16110TIP3    H269822   4.221   0.957   0.537  0.4313  0.4300  1.6141
16111TIP3   OH269823   1.301   4.872  13.822 -0.0648  0.0134  0.9835
16111TIP3    H169824   1.383   4.904  13.859  0.4334 -0.0530 -0.0465
16111TIP3    H269825   1.234   4.905  13.881  0.5730  1.4390  0.9363
16112TIP3   OH269826   3.579   4.817   3.537  0.2066 -0.3955 -0.9687
16112TIP3    H169827   3.606   4.881   3.604 -1.2970 -0.3062 -0.3928
16112TIP3    H269828   3.516   4.865   3.483 -2.1516 -1.7177  0.3933
16113TIP3   OH269829   5.681   1.786   1.131  0.2191 -0.4215  0.3504
16113TIP3    H169830   5.732   1.709   1.154  0.0624 -0.3927  0.8004
16113TIP3    H269831   5.655   1.771   1.040  0.8701 -0.5180  0.1787
16114TIP3   OH269832   0.404   1.019   1.341 -0.0252  0.3328 -0.1994
16114TIP3    H169833   0.384   0.927   1.323 -0.4821  0.2866  0.5129
16114TIP3    H269834   0.490   1.018   1.382  0.2610  0.2891 -0.7865
16115TIP3   OH269835   1.135   0.472  14.981  0.1604 -0.1573  0.1263
16115TIP3    H169836   1.210   0.449  15.036  1.0088 -0.9933 -1.3268
16115TIP3    H269837   1.173   0.500  14.898 -1.0192  2.7596  0.4574
16116TIP3   OH269838   1.830   5.981   5.035 -0.3001  0.5034 -0.1149
16116TIP3    H169839   1.874   6.036   5.099  1.1068  0.5191 -1.0567
16116TIP3    H269840   1.897   5.960   4.970 -1.0766 -1.4169 -0.3754
16117TIP3   OH269841   6.479   2.121  12.449 -0.0121  0.8671 -0.3042
16117TIP3    H169842   6.542   2.064  12.493  0.2697  0.4139 -1.2762
16117TIP3    H269843   6.431   2.163  12.520  2.2087  2.1918  0.5259
16118TIP3   OH269844   3.487   1.670  15.776  0.0383 -0.5773  0.4377
16118TIP3    H169845   3.457   1.644  15.689  1.2164 -1.6804  0.3358
16118TIP3    H269846   3.577   1.701  15.762  0.0177 -0.1487  1.1750
16119TIP3   OH269847   2.470   0.445  12.004  0.0594 -0.0537  0.2321
16119TIP3    H169848   2.420   0.500  12.064 -1.3391 -1.3034  0.2654
16119TIP3    H269849   2.453   0.355  12.033  0.7542 -0.6065 -0.9780
16120TIP3   OH269850   1.418   5.250  15.456 -0.2944  0.1335  0.0255
16120TIP3    H169851   1.412   5.209  15.369 -1.7716  0.5978 -0.1254
16120TIP3    H269852   1.437   5.342  15.437  0.5715  0.0111  0.2597
16121TIP3   OH269853   1.040   3.758  13.680  0.5160  0.0108 -0.7662
16121TIP3    H169854   1.119   3.804  13.707  0.1045  0.7077 -0.7041
16121TIP3    H269855   1.004   3.723  13.762  0.3630  0.3414 -0.6917
16122TIP3   OH269856   4.099   6.193   2.413  0.3229  0.3183 -0.1834
16122TIP3    H169857   4.084   6.175   2.506  0.3406 -0.3913 -0.3132
16122TIP3    H269858   4.097   6.289   2.407  2.1210  0.4623  0.8571
16123TIP3   OH269859   1.913   2.800   2.823  0.1248  0.0972 -0.2300
16123TIP3    H169860   1.907   2.784   2.917 -1.6298 -0.6693 -0.4447
16123TIP3    H269861   1.844   2.863   2.805 -0.2332 -0.5382 -1.1497
16124TIP3   OH269862   0.216   4.699   2.582  0.2811 -0.2175  0.3431
16124TIP3    H169863   0.283   4.754   2.622  0.3031 -1.1501  1.6877
16124TIP3    H269864   0.135   4.748   2.593  0.2737 -0.4944  1.6943
16125TIP3   OH269865   2.351   2.870  14.306 -0.2349 -0.4043 -0.6164
16125TIP3    H169866   2.446   2.870  14.322 -0.2354 -2.7793 -0.1996
16125TIP3    H269867   2.341   2.911  14.221  1.2409 -0.5203 -0.8790
16126TIP3   OH269868   6.832   6.626  11.927  0.0205  0.2498  0.0550
16126TIP3    H169869   6.819   6.704  11.873 -1.0923  0.3285  0.4262
16126TIP3    H269870   6.855   6.660  12.014  1.7116  0.1248 -0.3098
16127TIP3   OH269871   6.277   6.219  14.230 -0.1569  0.3883 -0.0485
16127TIP3    H169872   6.311   6.289  14.175  2.0154  0.2295  0.9813
16127TIP3    H269873   6.257   6.260  14.314  0.5427 -0.0888  0.3645
16128TIP3   OH269874   1.657   1.891  13.572  0.0790 -0.1264  0.0258
16128TIP3    H169875   1.608   1.973  13.563  1.4842  0.9322  1.4410
16128TIP3    H269876   1.660   1.875  13.667  0.0621 -1.6942 -0.2109
16129TIP3   OH269877   0.712   6.439   5.792  0.5718 -0.1635 -0.2662
16129TIP3    H169878   0.662   6.443   5.711  1.8496 -1.4375 -1.1555
16129TIP3    H269879   0.732   6.346   5.804  2.0916  0.2102  0.4327
16130TIP3   OH269880   5.950   1.289   5.283 -0.3496  0.1347 -0.6985
16130TIP3    H169881   5.959   1.364   5.224  1.5120  1.0246  0.5882
16130TIP3    H269882   5.939   1.329   5.370 -0.9501 -1.1252 -0.1620
16131TIP3   OH269883   4.964   0.891  16.586 -0.1514  0.2578 -0.0901
16131TIP3    H169884   4.948   0.827  16.655  1.0000 -0.5202 -0.5218
16131TIP3    H269885   5.015   0.960  16.628 -0.3707  0.3080  0.0934
16132TIP3   OH269886   6.053   0.335  14.144 -0.5113 -0.3852  0.2058
16132TIP3    H169887   6.142   0.360  14.167  0.0737  1.4126 -3.3405
16132TIP3    H269888   6.004   0.340  14.226  2.5647 -1.3804  2.2667
16133TIP3   OH269889   2.482   5.461  10.859  0.7583  0.4588  0.1283
16133TIP3    H169890   2.511   5.390  10.917 -0.4401  0.8027  1.1948
16133TIP3    H269891   2.403   5.495  10.901  1.4499  2.6217 -0.2030
16134TIP3   OH269892   0.418   5.582   4.780 -0.0709 -0.5192  0.1008
16134TIP3    H169893   0.483   5.515   4.801 -0.6917 -0.7181  1.4698
16134TIP3    H269894   0.362   5.588   4.858  0.3026  2.0139  0.2778
16135TIP3   OH269895   0.062   5.041   1.834 -0.3700  0.0796  0.7249
16135TIP3    H169896   0.149   5.035   1.794  0.1183 -0.2244  1.8110
16135TIP3    H269897   0.012   5.097   1.774  0.3387 -0.3612 -0.3063
16136TIP3   OH269898   2.639   3.311   2.829 -0.4998  0.0591  0.1226
16136TIP3    H169899   2.672   3.399   2.842  0.5889 -0.3295  0.0806
16136TIP3    H269900   2.661   3.291   2.738  2.0990 -1.3754  0.9636
16137TIP3   OH269901   3.609   3.918  14.848 -0.7217  0.4058 -0.0863
16137TIP3    H169902   3.573   3.829  14.853 -0.2396  0.1316 -1.2230
16137TIP3    H269903   3.702   3.905  14.831 -0.6345  1.1297 -0.1804
16138TIP3   OH269904   6.732   2.613   3.067 -0.3331 -0.3672 -0.1582
16138TIP3    H169905   6.786   2.554   3.119 -0.2307 -0.8452 -0.7947
16138TIP3    H269906   6.731   2.695   3.117  0.4512 -0.5523  0.1729
16139TIP3   OH269907   3.138   0.394   5.633 -0.3607 -0.1847  0.2635
16139TIP3    H169908   3.058   0.446   5.626 -0.0111  0.1930 -1.3221
16139TIP3    H269909   3.108   0.303   5.626 -0.6580 -0.0499 -0.2094
16140TIP3   OH269910   4.470   6.634  14.278 -0.0496 -0.8721  0.1086
16140TIP3    H169911   4.549   6.631  14.332 -1.2363 -1.7143  1.8828
16140TIP3    H269912   4.499   6.606  14.191  1.6288 -0.9714  0.6723
16141TIP3   OH269913   6.044   4.408  12.179 -0.2484 -0.0505 -0.0509
16141TIP3    H169914   6.119   4.437  12.231 -1.1196  0.1365  1.1283
16141TIP3    H269915   6.014   4.486  12.133  0.9730 -0.3660 -1.4699
16142TIP3   OH269916   2.157   1.218   3.548 -0.1575  0.1636  0.0694
16142TIP3    H169917   2.223   1.210   3.478  1.8010 -2.3560  2.0258
16142TIP3    H269918   2.174   1.305   3.586  1.9899 -0.3192  0.3762
16143TIP3   OH269919   4.228   6.045   0.451  0.2280  0.6794 -0.4345
16143TIP3    H169920   4.321   6.028   0.441  0.5438  1.0026  1.5462
16143TIP3    H269921   4.221   6.098   0.530 -1.5344  1.8939 -1.3182
16144TIP3   OH269922   4.365   4.246  12.381 -0.1445 -0.1618 -0.4872
16144TIP3    H169923   4.344   4.206  12.296  1.2662 -1.1627 -0.4061
16144TIP3    H269924   4.433   4.310  12.360 -1.0098  0.8196 -0.3363
16145TIP3   OH269925   5.630   5.415  16.424  0.0522 -0.4680 -0.4512
16145TIP3    H169926   5.621   5.388  16.515 -1.5441  1.5857  0.0775
16145TIP3    H269927   5.577   5.495  16.417  3.1962  1.6716 -2.2298
16146TIP3   OH269928   4.139   2.254   0.214  0.0877  0.2868  0.2064
16146TIP3    H169929   4.103   2.283   0.130 -1.9167  1.8814  1.5019
16146TIP3    H269930   4.071   2.276   0.278  1.7312 -0.4198  2.3244
16147TIP3   OH269931   6.573   1.225  13.855  0.0231  0.0057 -0.0992
16147TIP3    H169932   6.608   1.197  13.771  1.6198  0.2008  0.4540
16147TIP3    H269933   6.576   1.321  13.852 -0.2717  0.0196  0.0285
16148TIP3   OH269934   1.157   1.215  14.320  0.4794 -0.3464 -0.6270
16148TIP3    H169935   1.210   1.250  14.392 -0.5648  0.4513 -0.2159
16148TIP3    H269936   1.145   1.289  14.261 -0.7433 -0.3025 -0.3562
16149TIP3   OH269937   4.256   0.854   4.237 -0.5039 -0.0394  0.3040
16149TIP3    H169938   4.273   0.823   4.326 -1.3004  0.9641  0.8229
16149TIP3    H269939   4.166   0.827   4.219 -1.3609  2.1847  0.9137
16150TIP3   OH269940   3.746   4.090  16.157 -0.2557 -0.1469  0.1234
16150TIP3    H169941   3.837   4.092  16.128  0.1641 -1.6622  1.2445
16150TIP3    H269942   3.705   4.023  16.103 -0.6202  0.2402 -0.0884
16151TIP3   OH269943   0.480   1.832  15.467 -0.2881 -0.0348 -0.2228
16151TIP3    H169944   0.571   1.804  15.459 -0.0946  0.9834 -2.2528
16151TIP3    H269945   0.437   1.762  15.516  1.3543 -1.0228 -0.1238
16152TIP3   OH269946   4.356   0.836   4.862  0.3108 -1.0452  0.1980
16152TIP3    H169947   4.273   0.798   4.891  1.0259 -1.8428  1.3128
16152TIP3    H269948   4.394   0.873   4.942  0.5313  0.3229 -0.5089
16153TIP3   OH269949   6.748   4.230   4.637 -0.0674 -0.4725  0.1989
16153TIP3    H169950   6.653   4.235   4.632 -0.0849 -0.3590  0.6096
16153TIP3    H269951   6.765   4.175   4.714  0.1929 -1.2170 -0.3744
16154TIP3   OH269952   0.544   4.355  16.302 -0.3145 -0.5997  0.7111
16154TIP3    H169953   0.473   4.301  16.269  0.4255 -0.8919 -0.4921
16154TIP3    H269954   0.617   4.294  16.316  0.6216  0.0679 -0.9431
16155TIP3   OH269955   5.069   1.631   3.792  0.3393 -0.1113 -0.2232
16155TIP3    H169956   5.027   1.716   3.782 -0.5072 -0.7493 -3.3696
16155TIP3    H269957   5.029   1.576   3.724 -0.8568 -3.7987  3.0273
16156TIP3   OH269958   2.392   6.450  11.465  0.7803  0.7974  0.3355
16156TIP3    H169959   2.423   6.535  11.496  1.9478  1.0806 -1.4494
16156TIP3    H269960   2.400   6.455  11.370  1.0010 -1.3526  0.1898
16157TIP3   OH269961   2.733   1.174  14.195  0.1931 -0.1124  0.2210
16157TIP3    H169962   2.660   1.171  14.133  0.6455 -1.4094 -0.2965
16157TIP3    H269963   2.692   1.160  14.280 -0.2135 -0.4959 -0.0278
16158TIP3   OH269964   1.062   6.667  16.605  0.4841  0.2696 -0.4000
16158TIP3    H169965   0.979   6.667  16.652 -0.2065 -1.7614 -1.5012
16158TIP3    H269966   1.126   6.699  16.668 -0.1409 -3.4509  2.4634
16159TIP3   OH269967   3.567   0.148   1.456 -0.1715 -0.2002  0.6075
16159TIP3    H169968   3.506   0.093   1.506 -1.2217 -0.7890 -1.2253
16159TIP3    H269969   3.549   0.237   1.488 -1.6669 -0.4180  0.4741
16160TIP3   OH269970   1.306   0.350  12.978 -0.2487  0.3016 -0.3893
16160TIP3    H169971   1.272   0.292  12.910  0.9119 -1.9563  0.8532
16160TIP3    H269972   1.239   0.347  13.047 -0.2739  0.6404 -0.3944
16161TIP3   OH269973   1.506   6.608  10.456  0.2549  0.0393 -0.4083
16161TIP3    H169974   1.457   6.688  10.439 -0.4725  0.0305  1.4633
16161TIP3    H269975   1.593   6.638  10.483  0.3504  0.1436 -0.8207
16162TIP3   OH269976   0.837   5.289   2.484 -0.4556  0.1508 -0.4241
16162TIP3    H169977   0.853   5.231   2.558  0.9394 -0.9985 -1.5946
16162TIP3    H269978   0.743   5.279   2.466 -0.4679 -0.8269  0.1227
16163TIP3   OH269979   2.372   2.719   1.449  0.2753  0.2894 -0.2214
16163TIP3    H169980   2.396   2.787   1.386 -4.0153  0.5762 -1.9121
16163TIP3    H269981   2.406   2.638   1.411  0.9576  0.8874 -0.9276
16164TIP3   OH269982   0.938   2.187  10.630  0.0962 -0.3102 -0.3384
16164TIP3    H169983   0.883   2.200  10.707 -0.6995 -0.4919 -0.8623
16164TIP3    H269984   0.893   2.120  10.579 -0.6005  1.3272 -2.0255
16165TIP3   OH269985   2.994   0.864   1.440  0.0789 -0.4784 -0.1618
16165TIP3    H169986   2.935   0.886   1.368 -0.0048 -0.1986 -0.0123
16165TIP3    H269987   3.033   0.948   1.466 -0.0669 -0.5395  0.2702
16166TIP3   OH269988   4.937   5.518  13.491  0.2518 -0.0234  0.0627
16166TIP3    H169989   4.855   5.471  13.473  0.1571  0.0134  0.3859
16166TIP3    H269990   5.005   5.462  13.454  0.2892 -1.2649  1.8759
16167TIP3   OH269991   4.112   1.010  13.970 -0.4051 -0.0426  0.1181
16167TIP3    H169992   4.199   0.979  13.943 -0.2752  0.1588  0.3039
16167TIP3    H269993   4.062   1.014  13.888  0.1098  0.9549 -0.1613
16168TIP3   OH269994   2.959   0.960   1.756  0.7089  0.4716  0.3505
16168TIP3    H169995   3.006   0.876   1.761  2.3544  1.3136 -0.1885
16168TIP3    H269996   2.925   0.974   1.844  0.9109 -0.4837  0.5936
16169TIP3   OH269997   4.186   5.570  15.172 -0.2030 -0.4606 -0.1058
16169TIP3    H169998   4.259   5.551  15.231 -0.5045 -1.1487  0.0587
16169TIP3    H269999   4.173   5.665  15.179 -0.3039 -0.5383  1.0307
16170TIP3   OH270000   6.432   0.397  13.963 -0.1443  0.8152  0.0765
16170TIP3    H170001   6.400   0.482  13.934 -0.1930  0.6093 -0.4876
16170TIP3    H270002   6.385   0.334  13.909 -0.2667  0.4161  0.6368
16171TIP3   OH270003   3.889   3.902  16.677  0.1678 -0.0968  0.9627
16171TIP3    H170004   3.878   3.927  16.769  3.4916  0.3276  1.3694
16171TIP3    H270005   3.889   3.984  16.629 -0.1443 -0.2107  0.7646
16172TIP3   OH270006   1.444   3.678   1.523 -0.8559  0.4508  0.0948
16172TIP3    H170007   1.360   3.721   1.539 -1.3087 -0.0743 -0.7538
16172TIP3    H270008   1.441   3.655   1.430 -0.6092 -1.3082  0.4755
16173TIP3   OH270009   1.573   3.603  15.963 -0.0459  0.0211 -0.1030
16173TIP3    H170010   1.604   3.690  15.990  0.3481 -0.2800  0.4225
16173TIP3    H270011   1.483   3.599  15.997 -1.6061  1.7522 -3.4793
16174TIP3   OH270012   1.568   2.556   2.498 -0.3103 -0.0312  0.1412
16174TIP3    H170013   1.617   2.592   2.572 -1.0113  0.1551  0.5324
16174TIP3    H270014   1.557   2.463   2.519 -1.6353  0.2664  0.9541
16175TIP3   OH270015   2.929   0.983  10.107  0.2059  0.0132  0.6208
16175TIP3    H170016   2.993   0.918  10.136 -2.4322 -4.8806 -2.9509
16175TIP3    H270017   2.844   0.945  10.128 -1.6047  2.7445 -1.0246
16176TIP3   OH270018   6.224   2.518   0.989 -0.3376 -0.1765 -0.2773
16176TIP3    H170019   6.297   2.579   0.979 -0.4702  0.4341  1.9079
16176TIP3    H270020   6.206   2.518   1.083 -2.1334 -1.5277 -0.5694
16177TIP3   OH270021   6.128   3.480  16.858 -0.2384 -0.2240  1.1482
16177TIP3    H170022   6.098   3.535  16.931 -1.3649  0.2427  0.3707
16177TIP3    H270023   6.070   3.504  16.785 -0.9732 -2.6520  0.8389
16178TIP3   OH270024   0.967   0.316   6.140 -0.1571 -0.1407  0.1334
16178TIP3    H170025   0.877   0.317   6.106  0.1977  2.7015 -0.9494
16178TIP3    H270026   1.022   0.310   6.062  0.6109  3.4287  0.2567
16179TIP3   OH270027   3.237   6.344  12.955 -0.1742  0.8351  0.6950
16179TIP3    H170028   3.197   6.270  13.001  0.7126 -0.6393 -0.7954
16179TIP3    H270029   3.266   6.403  13.025  0.4218 -0.9210  1.9930
16180TIP3   OH270030   6.051   4.796  12.726 -0.1674  0.6411 -0.2509
16180TIP3    H170031   6.020   4.880  12.692 -0.2981  1.1495  1.0675
16180TIP3    H270032   6.146   4.799  12.712 -0.1707  1.0029 -0.2047
16181TIP3   OH270033   4.386   3.179  15.073  0.0769 -0.2712  0.4191
16181TIP3    H170034   4.416   3.218  14.991  2.5935 -0.6650  1.0767
16181TIP3    H270035   4.346   3.251  15.121 -1.1598  0.0261 -0.9943
16182TIP3   OH270036   1.064   3.401  12.847 -0.0635  0.2199  0.0999
16182TIP3    H170037   1.018   3.448  12.777  2.1498  0.8037 -1.0580
16182TIP3    H270038   1.156   3.423  12.834  0.4685  0.2755  3.1822
16183TIP3   OH270039   4.217   5.708  14.511 -0.0174  0.1039 -0.4271
16183TIP3    H170040   4.242   5.686  14.601 -1.1810 -0.3102 -0.1924
16183TIP3    H270041   4.250   5.797  14.498 -1.8612  1.0906  1.2255
16184TIP3   OH270042   0.509   5.271  15.170  0.0741  0.8516 -0.6281
16184TIP3    H170043   0.520   5.209  15.242  1.4832  1.2027 -0.5018
16184TIP3    H270044   0.525   5.356  15.210 -2.1131  1.3724 -0.7434
16185TIP3   OH270045   1.711   6.170   6.085 -0.1636  0.7029  0.1927
16185TIP3    H170046   1.717   6.264   6.065 -0.3493  0.9155  1.1064
16185TIP3    H270047   1.800   6.138   6.072 -0.1262  0.9680 -0.2670
16186TIP3   OH270048   3.851   0.607  16.263 -0.1508 -0.6318  0.3278
16186TIP3    H170049   3.770   0.649  16.292  0.8541  1.6158  0.0870
16186TIP3    H270050   3.837   0.590  16.169  0.1359  1.1146 -0.0705
16187TIP3   OH270051   3.202   1.502   6.488  0.2359 -0.3964  0.0734
16187TIP3    H170052   3.140   1.574   6.497  1.0722  0.3417  0.1306
16187TIP3    H270053   3.196   1.455   6.570 -1.0058 -0.9738 -0.3245
16188TIP3   OH270054   0.163   3.285   2.403 -0.4551  0.1998  0.6410
16188TIP3    H170055   0.139   3.207   2.353  1.3990 -0.7729  1.1544
16188TIP3    H270056   0.240   3.319   2.357  1.0182 -0.4678  2.4724
16189TIP3   OH270057   3.707   1.955  12.095 -0.5042  0.0327 -0.8054
16189TIP3    H170058   3.737   1.938  12.184 -1.8460  1.4732 -0.0387
16189TIP3    H270059   3.721   2.049  12.083 -0.2196 -0.1624 -2.1772
16190TIP3   OH270060   2.053   6.375   2.560  0.2522  0.1053 -0.5249
16190TIP3    H170061   2.017   6.462   2.577  0.1183  0.0305 -0.4210
16190TIP3    H270062   2.064   6.336   2.647  1.3366  0.4218 -0.5028
16191TIP3   OH270063   0.313   3.685   3.636 -0.0962  0.3622  0.1838
16191TIP3    H170064   0.381   3.701   3.702  1.5034  1.8048 -1.6729
16191TIP3    H270065   0.351   3.618   3.579 -1.6008 -1.1292  0.8710
16192TIP3   OH270066   5.233   4.698  12.074  0.1316  0.2057  0.1596
16192TIP3    H170067   5.292   4.627  12.052  1.1834  0.6201  1.5454
16192TIP3    H270068   5.190   4.670  12.154 -1.0377  0.2296 -0.4349
16193TIP3   OH270069   0.612   6.821  13.143 -0.1046  0.5779 -0.3486
16193TIP3    H170070   0.526   6.860  13.154 -1.4588 -1.8778 -1.2614
16193TIP3    H270071   0.606   6.737  13.188  2.5424  1.1680  1.3199
16194TIP3   OH270072   2.557   0.086  11.811 -0.6949 -0.0032 -0.4490
16194TIP3    H170073   2.650   0.107  11.810 -0.7453  0.4140  1.0521
16194TIP3    H270074   2.523   0.123  11.730 -0.0042  2.0773  0.1616
16195TIP3   OH270075   5.229   4.212  13.587  0.4205 -0.2634 -0.4899
16195TIP3    H170076   5.296   4.192  13.521 -0.8603 -0.2031 -1.8571
16195TIP3    H270077   5.224   4.132  13.640  2.2412  0.0772  0.2894
16196TIP3   OH270078   2.643   2.068  12.546  0.1368 -0.2218 -0.3858
16196TIP3    H170079   2.719   2.094  12.495  1.2693 -0.9925  0.8502
16196TIP3    H270080   2.678   2.043  12.632 -1.4602 -0.9083  0.1149
16197TIP3   OH270081   1.660   3.129   3.112  0.5999 -0.0600  0.0776
16197TIP3    H170082   1.616   3.046   3.128  0.3322 -0.5488 -2.7328
16197TIP3    H270083   1.747   3.104   3.081  0.8361  0.7421  0.0686
16198TIP3   OH270084   4.587   2.331   4.407 -0.2531  0.0540  0.2411
16198TIP3    H170085   4.517   2.300   4.465 -0.5054  1.9575  1.0315
16198TIP3    H270086   4.667   2.296   4.446 -0.6909 -1.6114 -0.3037
16199TIP3   OH270087   4.626   5.941   2.976  0.3263  0.0636 -0.3008
16199TIP3    H170088   4.570   5.879   3.022 -0.2341  0.7383 -0.0494
16199TIP3    H270089   4.565   5.999   2.930  0.8450  0.2721 -0.7433
16200TIP3   OH270090   6.519   1.829  12.152 -0.2113  0.1494  0.3079
16200TIP3    H170091   6.523   1.748  12.202 -0.8717  0.4507  0.8827
16200TIP3    H270092   6.567   1.811  12.071  2.8282  0.3003  1.9200
16201TIP3   OH270093   6.385   6.364   6.100 -0.1630 -0.3851 -0.1844
16201TIP3    H170094   6.450   6.340   6.034 -0.2127 -0.7120 -0.1139
16201TIP3    H270095   6.429   6.350   6.184 -0.2451 -0.3821 -0.1404
16202TIP3   OH270096   1.038   4.614   3.147  0.3222  0.5151 -0.2690
16202TIP3    H170097   0.975   4.558   3.101 -0.4258  0.7714  0.4249
16202TIP3    H270098   1.121   4.598   3.102 -0.1074 -0.3006 -0.8021
16203TIP3   OH270099   5.622   4.659   3.605 -0.0088 -0.1687 -0.2158
16203TIP3    H170100   5.640   4.712   3.684  0.4417  0.3872 -0.6788
16203TIP3    H270101   5.695   4.598   3.602  1.5955  1.6817 -1.7509
16204TIP3   OH270102   4.011   5.919  12.784 -0.4842  0.2263  0.0741
16204TIP3    H170103   4.035   6.009  12.802  0.6605  0.4262 -2.0325
16204TIP3    H270104   4.029   5.872  12.866  2.5305  1.2817  0.1408
16205TIP3   OH270105   0.475   5.739   4.301  0.0146  0.1180 -0.0637
16205TIP3    H170106   0.481   5.741   4.205 -0.4751  2.7672 -0.0943
16205TIP3    H270107   0.516   5.820   4.330 -1.1973  0.0879  1.8937
16206TIP3   OH270108   5.203   1.563   1.691  0.4480  0.1590 -0.0471
16206TIP3    H170109   5.120   1.526   1.721 -0.3603 -0.3406 -2.6565
16206TIP3    H270110   5.268   1.524   1.749 -0.7631 -2.5127 -0.3102
16207TIP3   OH270111   5.017   4.350   5.114 -0.5824 -0.3539 -0.4363
16207TIP3    H170112   5.030   4.347   5.019  0.9376  1.3105 -0.3383
16207TIP3    H270113   5.083   4.290   5.148 -1.0949 -0.9131 -0.4193
16208TIP3   OH270114   2.991   1.355  11.085 -0.1022 -0.4086  0.2051
16208TIP3    H170115   3.049   1.303  11.141 -0.6133 -0.5694  0.5926
16208TIP3    H270116   2.991   1.442  11.125 -0.8501 -0.6483  0.7546
16209TIP3   OH270117   3.263   0.052   3.643  0.3858 -0.4027  0.5870
16209TIP3    H170118   3.350   0.077   3.676  1.1936  0.5553 -2.0114
16209TIP3    H270119   3.233   0.129   3.595 -1.1484 -1.3469 -0.0321
16210TIP3   OH270120   4.768   2.189   0.694  0.0132  0.8475  0.2190
16210TIP3    H170121   4.824   2.172   0.769  3.9693  2.5988 -2.0266
16210TIP3    H270122   4.690   2.135   0.709  3.1511 -3.6659  2.6100
16211TIP3   OH270123   5.207   4.246  13.944  0.0630 -0.3926 -0.3316
16211TIP3    H170124   5.249   4.231  14.029  2.0060 -0.6299 -1.2701
16211TIP3    H270125   5.252   4.324  13.910 -0.8571 -0.1673 -1.0553
16212TIP3   OH270126   1.004   4.791   0.056 -0.0783 -0.4974  0.3730
16212TIP3    H170127   0.919   4.799   0.100 -1.1024 -2.2740 -1.1597
16212TIP3    H270128   0.983   4.794  -0.037  1.4535 -1.6575 -0.0370
16213TIP3   OH270129   3.350   4.986   3.525  0.4018 -0.2947  0.0822
16213TIP3    H170130   3.375   5.062   3.578 -0.2057 -0.0802  0.0716
16213TIP3    H270131   3.298   4.932   3.585  2.6086 -1.8049  0.7698
16214TIP3   OH270132   1.403   0.186   3.573 -0.0110  0.2408 -0.2296
16214TIP3    H170133   1.325   0.199   3.626  0.1692  0.5666 -0.0420
16214TIP3    H270134   1.373   0.199   3.483 -0.5124 -1.2031 -0.2961
16215TIP3   OH270135   1.302   5.924   2.130 -0.0592 -0.2871 -0.1920
16215TIP3    H170136   1.333   5.969   2.208  1.1536  1.5480 -1.6584
16215TIP3    H270137   1.317   5.831   2.148  0.2724  0.0971  1.6853
16216TIP3   OH270138   5.038   5.722  10.893  0.1162  0.0441 -0.4914
16216TIP3    H170139   5.029   5.803  10.844 -1.1730 -0.1656 -0.6384
16216TIP3    H270140   4.966   5.667  10.862  0.2362 -0.6954  0.4803
16217TIP3   OH270141   5.262   4.599  15.315 -0.5303 -0.0534  0.5439
16217TIP3    H170142   5.357   4.611  15.326 -0.7212  0.7316  1.4713
16217TIP3    H270143   5.230   4.581  15.403 -0.9719 -2.6635 -0.0539
16218TIP3   OH270144   5.109   1.088  16.752 -0.0961  0.2235  0.2118
16218TIP3    H170145   5.125   1.018  16.816  1.7843  0.5661  0.1728
16218TIP3    H270146   5.196   1.112  16.721 -0.9250  0.3243 -2.2351
16219TIP3   OH270147   4.318   6.674   2.284  0.0856 -0.6462  0.3075
16219TIP3    H170148   4.255   6.681   2.212 -1.1348  1.2956  1.4740
16219TIP3    H270149   4.387   6.618   2.249 -2.1436 -2.7623 -1.1198
16220TIP3   OH270150   5.448   1.968   0.857  0.3703  0.2529  0.6831
16220TIP3    H170151   5.389   1.903   0.896  1.2853 -0.3696  1.0560
16220TIP3    H270152   5.465   1.935   0.769  1.7635 -0.6627  1.2654
16221TIP3   OH270153   1.381   5.342   4.321  0.0795 -0.7384 -0.0556
16221TIP3    H170154   1.457   5.310   4.272  1.2126 -0.1477  1.2396
16221TIP3    H270155   1.318   5.368   4.253  1.0174 -1.2670 -1.1643
16222TIP3   OH270156   0.225   1.184   1.180 -0.1814  0.3793  0.2575
16222TIP3    H170157   0.176   1.102   1.175 -1.8354  1.1094  2.5035
16222TIP3    H270158   0.278   1.175   1.259  1.1896  0.7384 -0.5843
16223TIP3   OH270159   3.841   6.217   1.473 -0.3534  0.4330 -0.3244
16223TIP3    H170160   3.828   6.126   1.446  0.6407  0.3066 -0.4407
16223TIP3    H270161   3.839   6.215   1.569  0.2485  0.1860 -0.3139
16224TIP3   OH270162   6.308   0.739   1.099 -0.0309 -0.4327 -0.3693
16224TIP3    H170163   6.291   0.681   1.025 -0.1475 -1.6614  0.5806
16224TIP3    H270164   6.224   0.744   1.146  0.5430 -1.3700  0.8146
16225TIP3   OH270165   0.110   5.057   4.735  0.2784  0.5693 -0.0539
16225TIP3    H170166   0.083   4.995   4.666 -2.6377 -1.3806  2.5649
16225TIP3    H270167   0.204   5.068   4.721  0.0663 -0.6419 -3.5688
16226TIP3   OH270168   3.170   0.844  14.144 -0.1831  0.1095  0.1424
16226TIP3    H170169   3.245   0.810  14.096  0.3492 -1.3700  1.8960
16226TIP3    H270170   3.117   0.890  14.078  1.5808  0.0563 -1.3718
16227TIP3   OH270171   6.067   5.827  13.621 -0.3510 -0.3333 -0.2879
16227TIP3    H170172   6.047   5.748  13.671 -2.3496 -0.6803 -1.5432
16227TIP3    H270173   5.995   5.887  13.639  0.7295  0.9451  0.0159
16228TIP3   OH270174   3.460   2.610   5.325  0.3092 -0.6700  0.0846
16228TIP3    H170175   3.507   2.534   5.291  1.6032  0.3622 -0.4914
16228TIP3    H270176   3.413   2.577   5.402  0.3701 -2.1713 -0.4894
16229TIP3   OH270177   5.110   3.461  16.563 -0.3362  0.0911 -0.1585
16229TIP3    H170178   5.041   3.483  16.500  1.6151  2.1189 -1.7379
16229TIP3    H270179   5.128   3.543  16.608  0.5964 -0.5688  0.6890
16230TIP3   OH270180   1.438   3.840  12.420  0.0245 -0.3857 -0.6669
16230TIP3    H170181   1.518   3.856  12.470  0.2296 -0.8169 -0.8515
16230TIP3    H270182   1.436   3.908  12.353  0.7578 -0.9570 -1.2918
16231TIP3   OH270183   5.337   5.891  13.278  0.6053 -0.1805 -0.3626
16231TIP3    H170184   5.343   5.861  13.368  0.9269 -1.2205 -0.7103
16231TIP3    H270185   5.244   5.891  13.259  0.4946  0.5979  0.1377
16232TIP3   OH270186   3.208   5.702  15.481 -0.3045  0.9297  0.6218
16232TIP3    H170187   3.115   5.726  15.477 -1.0766 -1.4286  2.1348
16232TIP3    H270188   3.223   5.681  15.574  1.4479  0.3003  0.2264
16233TIP3   OH270189   1.102   5.897  16.016  0.4381  0.0472  0.2752
16233TIP3    H170190   1.041   5.971  16.024  0.9939  0.5433  0.0395
16233TIP3    H270191   1.048   5.825  15.984  0.0804  0.6534 -0.5530
16234TIP3   OH270192   0.835   5.853   6.370  0.2330 -0.4170 -0.0319
16234TIP3    H170193   0.768   5.874   6.435  0.9472  0.0628  0.5671
16234TIP3    H270194   0.873   5.938   6.347 -0.7015 -0.4553 -1.8572
16235TIP3   OH270195   4.190   0.984  16.694 -0.0683  0.1075  0.5657
16235TIP3    H170196   4.254   1.032  16.640  0.4249 -1.4118 -0.2830
16235TIP3    H270197   4.129   0.946  16.630 -0.7160 -0.0105  1.2461
16236TIP3   OH270198   0.933   4.853  15.216 -0.6541 -0.9912 -0.0597
16236TIP3    H170199   0.964   4.822  15.130  0.1389 -2.6017  0.7596
16236TIP3    H270200   0.876   4.782  15.247 -1.0413 -0.3580  0.6900
16237TIP3   OH270201   5.507   2.132   3.631 -0.3822  0.1685 -0.3222
16237TIP3    H170202   5.446   2.177   3.689 -0.7730 -0.0953 -0.5285
16237TIP3    H270203   5.536   2.056   3.682  3.4457  2.6812  1.7425
16238TIP3   OH270204   1.640   2.981  14.632  0.5635  0.0474  0.1600
16238TIP3    H170205   1.593   3.028  14.701  0.4303  0.2386 -0.0597
16238TIP3    H270206   1.726   2.962  14.670  0.2600 -0.4275  0.6078
16239TIP3   OH270207   5.001   2.764  12.983  0.3293  0.0981 -0.8890
16239TIP3    H170208   5.074   2.709  13.013  0.8632 -0.2810 -2.7714
16239TIP3    H270209   4.923   2.710  12.997  0.3916  0.3744  0.8137
16240TIP3   OH270210   4.969   5.622   1.801 -0.4020  0.1466  0.0468
16240TIP3    H170211   4.956   5.639   1.894 -1.2251 -0.2397  0.0166
16240TIP3    H270212   4.919   5.691   1.757 -0.6727 -0.1413 -0.0997
16241TIP3   OH270213   0.640   5.680   3.462 -0.5050 -0.8138 -0.0329
16241TIP3    H170214   0.642   5.649   3.371  0.3373  0.5465 -0.4965
16241TIP3    H270215   0.618   5.773   3.455 -0.1275 -0.6276  1.1379
16242TIP3   OH270216   5.328   4.515   4.557  0.3471 -0.8053 -0.6845
16242TIP3    H170217   5.407   4.510   4.504  0.7249  0.9600 -0.3454
16242TIP3    H270218   5.357   4.496   4.646  1.1325  2.9803  0.0251
16243TIP3   OH270219   3.928   1.424  13.196 -0.4688  0.0692 -0.6260
16243TIP3    H170220   3.909   1.514  13.225 -0.3453  0.0165 -0.3794
16243TIP3    H270221   3.941   1.432  13.101 -0.1350  0.3689 -0.5572
16244TIP3   OH270222   1.057   3.662  14.292  0.0541  0.1232 -0.1745
16244TIP3    H170223   1.076   3.586  14.238 -0.5453 -1.0223  1.1710
16244TIP3    H270224   1.101   3.644  14.375 -1.2029  0.5923  0.6248
16245TIP3   OH270225   3.283   0.897   5.756 -0.0426  0.3353  0.0288
16245TIP3    H170226   3.375   0.920   5.740 -0.0691 -0.1574 -0.8795
16245TIP3    H270227   3.283   0.803   5.768 -0.5290  0.2210 -0.7933
16246TIP3   OH270228   5.811   2.943  15.043 -1.0660  0.1334 -0.4295
16246TIP3    H170229   5.885   2.948  14.982 -1.0579 -0.5329 -0.4874
16246TIP3    H270230   5.755   2.874  15.007 -0.4905 -1.0861  0.9222
16247TIP3   OH270231   5.828   4.783  11.856  0.5529 -0.3192  0.4275
16247TIP3    H170232   5.830   4.874  11.885 -0.3717 -0.0273 -0.3586
16247TIP3    H270233   5.736   4.757  11.865  0.6408 -0.8831 -0.1930
16248TIP3   OH270234   3.488   5.269  12.972  0.1538 -0.1443  0.1233
16248TIP3    H170235   3.467   5.191  13.024 -1.3181  0.1195 -0.0429
16248TIP3    H270236   3.457   5.342  13.025  1.4315  0.3411  0.2236
16249TIP3   OH270237   6.013   5.503  14.036 -0.3764 -0.0888  0.0436
16249TIP3    H170238   5.996   5.414  14.005  1.2558  0.0476 -1.3328
16249TIP3    H270239   6.039   5.492  14.127 -1.3719 -0.8748  0.2587
16250TIP3   OH270240   0.364   1.701  13.210 -0.6218  0.1059  0.2434
16250TIP3    H170241   0.395   1.713  13.120 -0.3698 -0.2735  0.2799
16250TIP3    H270242   0.325   1.786  13.233  2.0339  1.2348  0.8537
16251TIP3   OH270243   0.005   2.049   4.681 -0.0693  0.2256 -0.2174
16251TIP3    H170244   0.055   2.041   4.763  0.6192 -0.7237 -0.7080
16251TIP3    H270245   0.016   2.140   4.655  1.3548  0.0627 -0.2611
16252TIP3   OH270246   1.192   4.471  16.751  0.4774 -0.1310  0.1239
16252TIP3    H170247   1.229   4.501  16.834 -0.1906  0.1779  0.3189
16252TIP3    H270248   1.116   4.418  16.777  2.3238 -3.1269 -0.1358
16253TIP3   OH270249   6.704   2.228   4.435 -0.1444 -0.1036  0.3084
16253TIP3    H170250   6.755   2.147   4.437 -0.0521 -0.0427  0.4391
16253TIP3    H270251   6.669   2.232   4.346  3.0308  1.6913 -1.0248
16254TIP3   OH270252   3.183   5.675   2.642 -0.2130  0.3788  0.1728
16254TIP3    H170253   3.189   5.634   2.556 -2.1052  0.8477 -0.2379
16254TIP3    H270254   3.215   5.764   2.630 -1.8816  0.9277 -0.4546
16255TIP3   OH270255   3.558   0.165  12.294  1.0865 -0.9336  0.5657
16255TIP3    H170256   3.525   0.217  12.367  0.2477 -1.8492  0.8455
16255TIP3    H270257   3.581   0.231  12.228  1.9786 -0.0870  1.6768
16256TIP3   OH270258   3.550   3.427   3.805 -0.4451 -0.1522 -0.1784
16256TIP3    H170259   3.628   3.480   3.824  0.0634 -0.8262 -0.3441
16256TIP3    H270260   3.510   3.412   3.891 -1.0509  1.1797 -0.2179
16257TIP3   OH270261   0.942   5.380  12.644  0.1510  0.8154  0.1705
16257TIP3    H170262   1.019   5.426  12.612  1.2911 -1.0145  0.1818
16257TIP3    H270263   0.949   5.292  12.608 -1.7842  0.4991  0.4310
16258TIP3   OH270264   3.276   6.502  13.185 -0.1389  0.1532 -0.1627
16258TIP3    H170265   3.214   6.575  13.174 -1.0989 -0.9318 -3.0850
16258TIP3    H270266   3.351   6.526  13.132  0.3294 -0.1811  0.3452
16259TIP3   OH270267   4.396   1.162   4.014 -0.1010 -0.1731  0.4786
16259TIP3    H170268   4.484   1.149   3.978  0.9952  1.3921  2.3653
16259TIP3    H270269   4.354   1.222   3.953  0.4906 -0.1489  0.0825
16260TIP3   OH270270   0.545   2.736   1.524 -0.1556 -0.3590 -0.0251
16260TIP3    H170271   0.496   2.681   1.585  0.1668 -0.6470 -0.0203
16260TIP3    H270272   0.480   2.796   1.488 -0.6845 -1.2654 -0.6186
16261TIP3   OH270273   2.241   1.938  13.755  0.1807 -0.0558 -0.5167
16261TIP3    H170274   2.319   1.926  13.809 -0.4132 -0.2782  0.3096
16261TIP3    H270275   2.213   1.849  13.733  0.3626  0.0333 -1.1050
16262TIP3   OH270276   1.091   3.091   1.644  0.1426 -0.7488  0.1254
16262TIP3    H170277   1.159   3.136   1.694 -0.6526 -0.1256  0.6958
16262TIP3    H270278   1.136   3.023   1.596  1.2398 -0.0103  0.0807
16263TIP3   OH270279   4.707   4.298   2.734  0.1269  0.2956 -0.3365
16263TIP3    H170280   4.715   4.378   2.785  2.0346  0.0712 -0.2116
16263TIP3    H270281   4.628   4.311   2.681  0.7050  2.5304 -0.7660
16264TIP3   OH270282   3.116   3.333  12.136  0.0129 -0.0811 -0.0397
16264TIP3    H170283   3.135   3.397  12.068 -2.4408 -0.9593 -1.6589
16264TIP3    H270284   3.185   3.267  12.126  0.7839  0.7440 -0.3616
16265TIP3   OH270285   4.856   5.367  12.090 -0.2305 -0.2616 -0.3507
16265TIP3    H170286   4.929   5.323  12.045  0.2856  0.5626 -0.3318
16265TIP3    H270287   4.806   5.408  12.019  0.1427  0.3777 -0.2560
16266TIP3   OH270288   0.506   4.046  15.800  0.1474  0.1655  0.1369
16266TIP3    H170289   0.437   4.109  15.783  2.1371  1.9747 -1.9709
16266TIP3    H270290   0.526   4.009  15.714  1.4215 -0.7127  0.7772
16267TIP3   OH270291   2.390   4.328   0.896  0.4894  0.1083  0.5468
16267TIP3    H170292   2.462   4.383   0.866  0.7833 -0.1121  0.8331
16267TIP3    H270293   2.322   4.338   0.829  0.4678  0.9475  0.6868
16268TIP3   OH270294   0.759   1.495   0.740  0.6720  0.2830 -0.1501
16268TIP3    H170295   0.708   1.498   0.659 -1.3987  2.2818  1.1198
16268TIP3    H270296   0.694   1.501   0.810  2.5136  0.4914  1.6431
16269TIP3   OH270297   0.472   0.203   4.016 -0.1046  0.3298 -0.5869
16269TIP3    H170298   0.417   0.234   4.088 -0.0898 -0.8112 -0.0580
16269TIP3    H270299   0.518   0.127   4.052 -0.0603 -0.2340 -1.7845
16270TIP3   OH270300   3.255   3.912   0.617 -0.2796  0.0576 -0.2436
16270TIP3    H170301   3.198   3.921   0.694 -1.1293  0.4760 -0.9106
16270TIP3    H270302   3.287   3.822   0.622  0.5448  0.3901  1.1800
16271TIP3   OH270303   6.190   4.610   4.378  0.1442  0.9836 -0.2182
16271TIP3    H170304   6.105   4.645   4.404  0.1913  1.0405 -0.1417
16271TIP3    H270305   6.234   4.683   4.334  0.5307  1.2462  0.5778
16272TIP3   OH270306   5.817   0.217  12.619  0.5937 -0.2259  0.2219
16272TIP3    H170307   5.735   0.172  12.643  1.4342 -2.6809 -1.1185
16272TIP3    H270308   5.790   0.281  12.553 -0.4563  0.3542  1.1622
16273TIP3   OH270309   0.493   1.193  15.392 -0.4703  0.1915 -0.1308
16273TIP3    H170310   0.555   1.174  15.462 -0.0323  0.4326 -0.4483
16273TIP3    H270311   0.414   1.143  15.415 -0.3317  0.2675  0.5283
16274TIP3   OH270312   2.826   3.522   5.708 -0.4279 -0.0978  0.1685
16274TIP3    H170313   2.820   3.548   5.800  1.8660 -1.3890  0.7591
16274TIP3    H270314   2.757   3.572   5.664 -0.8945  1.3405  2.4004
16275TIP3   OH270315   1.696   3.343   0.240  0.0891  0.5788  0.2958
16275TIP3    H170316   1.633   3.295   0.186  0.6117  0.4447 -0.1988
16275TIP3    H270317   1.712   3.284   0.314  0.7747 -0.0546 -0.3398
16276TIP3   OH270318   2.394   2.464  10.346 -0.6088  0.3546 -0.4943
16276TIP3    H170319   2.475   2.412  10.346 -1.2481 -0.6681 -1.4561
16276TIP3    H270320   2.425   2.554  10.361  0.5918 -0.1563  0.3294
16277TIP3   OH270321   3.040   1.847  15.869  0.3385 -0.2523  0.0747
16277TIP3    H170322   3.086   1.778  15.918 -1.4045 -1.2197  0.4586
16277TIP3    H270323   3.040   1.816  15.779  0.6486 -0.1298  0.0318
16278TIP3   OH270324   4.643   1.773  14.744 -0.7330 -0.1709 -0.6633
16278TIP3    H170325   4.590   1.695  14.762 -1.1238  0.1436 -0.4260
16278TIP3    H270326   4.590   1.824  14.683 -0.1975 -0.3879 -1.3147
16279TIP3   OH270327   3.062   4.963  12.443  0.7454  0.2181 -0.2841
16279TIP3    H170328   3.110   4.957  12.526  1.5948  1.4122 -0.6742
16279TIP3    H270329   3.005   5.038  12.454  2.3118  1.6600 -1.4700
16280TIP3   OH270330   1.228   4.024  11.850  0.1186 -0.7990 -0.0491
16280TIP3    H170331   1.298   3.960  11.834 -0.2346 -1.0546 -0.6010
16280TIP3    H270332   1.264   4.107  11.819  1.3650 -0.2815  2.5119
16281TIP3   OH270333   0.131   3.110   5.227  0.0116  0.2077 -0.2568
16281TIP3    H170334   0.133   3.151   5.140  1.4216 -2.5473 -1.6389
16281TIP3    H270335   0.090   3.025   5.212  1.4415 -0.8608  1.5078
16282TIP3   OH270336   4.869   1.797   0.782  0.1395 -0.3066 -0.1303
16282TIP3    H170337   4.900   1.788   0.692  2.2333  0.6203  0.4442
16282TIP3    H270338   4.868   1.707   0.816 -1.0845 -0.7107 -1.1762
16283TIP3   OH270339   4.172   6.084  15.598  0.3963 -0.2091 -0.4171
16283TIP3    H170340   4.084   6.077  15.635  0.9873 -0.3890  1.0294
16283TIP3    H270341   4.176   6.172  15.561 -0.8853 -0.7334 -1.8996
16284TIP3   OH270342   6.532   3.768   5.680 -0.0001  0.0095 -0.1184
16284TIP3    H170343   6.532   3.702   5.611  1.9483  0.0997 -0.2393
16284TIP3    H270344   6.510   3.849   5.635 -1.7393 -0.3982 -0.0797
16285TIP3   OH270345   6.666   0.583  15.918  0.4340 -0.1575  0.0068
16285TIP3    H170346   6.630   0.557  15.833  1.7527  2.6583 -1.5555
16285TIP3    H270347   6.591   0.581  15.977 -0.3159 -3.1902 -0.8698
16286TIP3   OH270348   0.072   6.407  15.720 -0.0907  0.2452  0.4741
16286TIP3    H170349  -0.017   6.411  15.755 -0.5362  1.3031 -0.7059
16286TIP3    H270350   0.128   6.434  15.793 -0.6653 -0.9414  1.3925
16287TIP3   OH270351   5.302   1.620  14.683  0.5047  0.7329  0.0214
16287TIP3    H170352   5.348   1.554  14.734  1.2755  2.4342  1.6763
16287TIP3    H270353   5.213   1.587  14.676  1.2486 -1.2442 -0.6801
16288TIP3   OH270354   1.701   0.899   1.776  0.2935  0.9574 -0.0027
16288TIP3    H170355   1.764   0.833   1.747  0.6158  0.6647  1.2829
16288TIP3    H270356   1.712   0.971   1.714  1.1984  0.5170 -0.3757
16289TIP3   OH270357   2.448   3.970   2.783  0.0834 -0.1591  0.7659
16289TIP3    H170358   2.418   4.059   2.798  2.0239  0.4322  1.4302
16289TIP3    H270359   2.509   3.952   2.854  1.8104 -0.9961 -0.8267
16290TIP3   OH270360   5.788   2.449   0.174 -0.4816 -0.5066 -0.1389
16290TIP3    H170361   5.744   2.532   0.161  0.0726 -0.4546 -1.9643
16290TIP3    H270362   5.805   2.445   0.268 -0.8705  1.2426  0.0357
16291TIP3   OH270363   2.745   4.357   0.167  0.1669 -0.5809 -0.1812
16291TIP3    H170364   2.683   4.428   0.184  1.1567  0.3693 -0.5161
16291TIP3    H270365   2.831   4.397   0.175  0.7515 -1.8089 -0.1006
16292TIP3   OH270366   1.614   5.148   5.498 -0.6787  0.0512  0.0003
16292TIP3    H170367   1.684   5.179   5.555 -0.6711  0.3032 -0.1433
16292TIP3    H270368   1.598   5.221   5.437 -0.5569 -0.2813 -0.4367
16293TIP3   OH270369   5.028   4.734  15.892  0.2045  0.7076  0.2456
16293TIP3    H170370   4.977   4.698  15.965  1.5779 -1.7650  0.0648
16293TIP3    H270371   4.962   4.777  15.837 -1.5843 -1.3866  0.5887
16294TIP3   OH270372   6.737   0.745  11.126 -0.4127 -0.2345 -0.6608
16294TIP3    H170373   6.708   0.701  11.206 -1.6979  1.5905 -0.0375
16294TIP3    H270374   6.663   0.736  11.066 -0.4786  0.5302 -0.7130
16295TIP3   OH270375   6.347   5.569   1.812 -0.3499  0.1526  0.6499
16295TIP3    H170376   6.260   5.588   1.847 -0.6560 -0.0069 -0.0040
16295TIP3    H270377   6.340   5.588   1.718  0.4429  0.5504  0.6546
16296TIP3   OH270378   6.062   3.036  12.540  0.2130 -0.0400 -0.1483
16296TIP3    H170379   6.130   3.073  12.483 -0.1237 -0.0629 -0.5693
16296TIP3    H270380   6.057   2.944  12.515  0.2169 -0.0996  0.0707
16297TIP3   OH270381   3.386   4.394  15.749 -0.0382  0.0059 -0.2553
16297TIP3    H170382   3.461   4.370  15.695  0.1229  0.8364 -0.4195
16297TIP3    H270383   3.344   4.466  15.701  1.4169  2.3792  1.7704
16298TIP3   OH270384   6.570   6.023   4.123 -0.0263 -0.0314  0.6126
16298TIP3    H170385   6.495   6.004   4.180 -0.8265 -1.1572 -0.7506
16298TIP3    H270386   6.621   5.942   4.123  1.9352  1.1073  2.5083
16299TIP3   OH270387   0.693   1.405  16.729 -0.3472  0.8726  0.1025
16299TIP3    H170388   0.656   1.482  16.770 -2.1973 -1.2456  2.7154
16299TIP3    H270389   0.671   1.332  16.787  1.6605 -1.6295 -1.9623
16300TIP3   OH270390   2.228   3.765  15.886  0.1326 -0.4002 -0.1232
16300TIP3    H170391   2.194   3.731  15.804 -0.7032  0.1119  0.0039
16300TIP3    H270392   2.283   3.694  15.920 -0.8864 -1.2896 -0.2847
16301TIP3   OH270393   3.645   2.490   2.299 -0.0082  0.1894 -0.2167
16301TIP3    H170394   3.734   2.491   2.263  0.1926 -2.5321 -0.0550
16301TIP3    H270395   3.647   2.552   2.372  2.6925 -1.7721  1.6080
16302TIP3   OH270396   6.149   5.082   4.988  0.4193 -0.2090 -0.4069
16302TIP3    H170397   6.215   5.140   5.026  0.8606 -0.1750 -1.2056
16302TIP3    H270398   6.173   5.075   4.896 -0.1282 -0.9822 -0.5041
16303TIP3   OH270399   2.811   0.892  12.662 -0.2711  0.0427  0.2788
16303TIP3    H170400   2.755   0.869  12.736 -0.2944  0.6852  0.4676
16303TIP3    H270401   2.888   0.932  12.703  1.0701 -2.2116  0.1296
16304TIP3   OH270402   6.475   4.750  10.859 -0.4957  0.4679  0.1116
16304TIP3    H170403   6.400   4.702  10.894 -0.2021  1.5296  2.3480
16304TIP3    H270404   6.551   4.713  10.903  0.0991  0.7662 -0.6354
16305TIP3   OH270405   6.383   2.865   0.108 -0.0204 -0.5160 -0.0813
16305TIP3    H170406   6.385   2.824   0.194 -0.4946 -1.7556 -0.6389
16305TIP3    H270407   6.451   2.820   0.058  0.6292  0.5735 -0.1998
16306TIP3   OH270408   2.925   1.510  11.336 -0.4884  0.3006 -0.5646
16306TIP3    H170409   2.992   1.506  11.405  0.3524  1.9785 -1.2398
16306TIP3    H270410   2.844   1.484  11.380  0.1660  0.5639  0.8567
16307TIP3   OH270411   2.767   3.610  11.330  0.2264 -0.6196 -0.0180
16307TIP3    H170412   2.729   3.570  11.252  1.1384 -0.3790 -0.5964
16307TIP3    H270413   2.722   3.694  11.338  0.2712 -0.5587 -0.4011
16308TIP3   OH270414   1.146   4.048  12.114  0.6227  0.8475  0.3385
16308TIP3    H170415   1.175   4.075  12.027  0.5888  1.1153  0.4103
16308TIP3    H270416   1.188   3.963  12.128  2.0356  1.5954  0.7849
16309TIP3   OH270417   5.151   0.745  15.716 -0.4092  0.5580  0.1295
16309TIP3    H170418   5.217   0.814  15.720  1.1758 -0.8776 -0.3558
16309TIP3    H270419   5.169   0.690  15.792  0.2393 -0.9224 -1.0457
16310TIP3   OH270420   4.256   2.228   4.127  0.1480 -0.1638  0.4145
16310TIP3    H170421   4.257   2.175   4.047 -3.1633  0.7950 -0.4135
16310TIP3    H270422   4.333   2.199   4.176 -0.3381 -4.2924 -0.8846
16311TIP3   OH270423   2.897   4.483   5.304  0.1612  0.4274 -0.3661
16311TIP3    H170424   2.940   4.545   5.245 -0.8291  0.9812 -0.5391
16311TIP3    H270425   2.949   4.486   5.384  3.0192 -2.1828 -1.9274
16312TIP3   OH270426   3.157   6.501  12.218  0.4373  0.3877  0.5288
16312TIP3    H170427   3.123   6.446  12.148 -1.3234 -0.0004  1.6365
16312TIP3    H270428   3.149   6.448  12.297  1.6788  1.0974  1.1641
16313TIP3   OH270429   2.996   5.845   0.339 -0.6021  0.2616 -0.7581
16313TIP3    H170430   2.970   5.807   0.255 -3.1951  0.0902  0.0327
16313TIP3    H270431   3.032   5.930   0.316 -2.7015  0.9010 -2.0318
16314TIP3   OH270432   3.532   5.486   4.362 -0.0894 -0.0790 -0.0166
16314TIP3    H170433   3.565   5.401   4.333  1.3975  1.3724 -3.1163
16314TIP3    H270434   3.608   5.529   4.401 -0.0853  0.7160 -0.8487
16315TIP3   OH270435   2.311   6.391  14.980  0.2787  0.2668 -0.6302
16315TIP3    H170436   2.241   6.367  15.041  0.5291  0.2337 -0.3560
16315TIP3    H270437   2.320   6.485  14.989  1.3534  0.0727  0.5060
16316TIP3   OH270438   1.102   1.027  11.772 -0.0631  0.2474 -0.3725
16316TIP3    H170439   1.185   1.040  11.816 -0.0402 -1.6196  0.1788
16316TIP3    H270440   1.057   1.112  11.780  0.9082  0.6431  1.1583
16317TIP3   OH270441   1.249   2.088  14.215  0.0932  0.3251  0.4757
16317TIP3    H170442   1.336   2.071  14.180  1.3933  0.8977  3.1677
16317TIP3    H270443   1.199   2.121  14.140  1.5522 -1.8242 -1.6139
16318TIP3   OH270444   3.874   3.849   6.460  0.1318 -0.1317  0.1730
16318TIP3    H170445   3.966   3.828   6.477  0.3803 -0.0375 -0.9485
16318TIP3    H270446   3.878   3.920   6.395 -0.7350  0.2925  0.5685
16319TIP3   OH270447   0.655   1.902   2.428  0.2835 -0.3242 -0.4513
16319TIP3    H170448   0.712   1.829   2.402 -0.1106 -0.4976 -0.8418
16319TIP3    H270449   0.603   1.867   2.500 -0.5483 -0.7434 -1.2258
16320TIP3   OH270450   4.153   3.563  17.062 -0.2589 -0.1173 -0.1180
16320TIP3    H170451   4.134   3.480  17.018 -1.8452  0.5863 -0.8569
16320TIP3    H270452   4.088   3.568  17.132  0.4165  0.0988  0.5077
16321TIP3   OH270453   6.268   5.993   0.827  0.0128  0.2661  0.3536
16321TIP3    H170454   6.210   5.938   0.774  1.2678  0.2583 -1.0710
16321TIP3    H270455   6.249   5.966   0.917 -1.1145 -0.7905 -0.1571
16322TIP3   OH270456   2.189   2.500   1.599 -0.3831 -0.4565  0.3476
16322TIP3    H170457   2.256   2.502   1.667 -1.4822  0.7052  1.4705
16322TIP3    H270458   2.201   2.582   1.551 -0.1256 -0.8997 -0.3663
16323TIP3   OH270459   2.839   1.183  11.579 -0.3109 -0.1718  0.1379
16323TIP3    H170460   2.805   1.148  11.661 -1.2005  1.8444  0.6891
16323TIP3    H270461   2.927   1.213  11.599 -0.3583 -0.1020  0.2396
16324TIP3   OH270462   2.743   0.546  13.893 -0.3793 -0.0493 -0.0330
16324TIP3    H170463   2.785   0.538  13.978 -0.3786 -1.1310 -0.1221
16324TIP3    H270464   2.816   0.553  13.831 -0.3639 -0.1588 -0.0270
16325TIP3   OH270465   1.136   4.825   0.521  0.7929 -0.1903  0.5532
16325TIP3    H170466   1.110   4.746   0.475  0.4051 -0.4845  1.2770
16325TIP3    H270467   1.204   4.863   0.465  1.4322 -1.3536  0.5112
16326TIP3   OH270468   0.264   1.876   1.519  0.1496  0.2095  0.1096
16326TIP3    H170469   0.185   1.884   1.465  0.7002  0.9698 -0.6133
16326TIP3    H270470   0.269   1.960   1.566  1.8014  1.2009 -1.6808
16327TIP3   OH270471   0.832   1.944   1.887 -0.3014 -0.2612 -0.7918
16327TIP3    H170472   0.856   2.035   1.872  0.3654 -0.3478 -0.2967
16327TIP3    H270473   0.915   1.901   1.907 -0.5468 -1.0684 -1.4504
16328TIP3   OH270474   6.265   3.634   6.080 -0.4502 -0.0501 -0.1380
16328TIP3    H170475   6.269   3.544   6.113 -1.5323  0.1664  0.6564
16328TIP3    H270476   6.173   3.646   6.056  0.0388  0.2487 -2.0199
16329TIP3   OH270477   5.547   2.845  15.964 -0.4400 -0.4801  0.3874
16329TIP3    H170478   5.547   2.825  16.058  0.8590  1.6481  0.9078
16329TIP3    H270479   5.457   2.869  15.944 -0.5137  0.0997  1.3592
16330TIP3   OH270480   6.795   2.052  12.771 -0.4001  0.3284  0.1425
16330TIP3    H170481   6.812   1.975  12.826 -0.4574  0.3806  0.2346
16330TIP3    H270482   6.751   2.017  12.694 -0.7965  0.3169  0.3688
16331TIP3   OH270483   5.787   0.232  16.813 -0.3977 -0.1511 -0.2045
16331TIP3    H170484   5.775   0.293  16.740 -1.8702  0.8055  0.8039
16331TIP3    H270485   5.721   0.164  16.799  1.5822 -1.9420 -1.6329
16332TIP3   OH270486   1.833   0.814   0.624  1.0764  0.4440  0.2439
16332TIP3    H170487   1.844   0.785   0.533  1.5460 -1.8902  0.9761
16332TIP3    H270488   1.919   0.798   0.664  0.2707 -0.6513  1.6099
16333TIP3   OH270489   3.339   3.585  13.205 -0.2169 -0.1333  0.0336
16333TIP3    H170490   3.268   3.580  13.269  0.1185 -0.3452  0.3930
16333TIP3    H270491   3.317   3.519  13.139  0.7735 -1.8480  1.3079
16334TIP3   OH270492   1.836   4.135   5.730 -0.0582 -0.1300  0.4698
16334TIP3    H170493   1.876   4.208   5.683 -2.1893 -0.0170 -1.3334
16334TIP3    H270494   1.896   4.062   5.718 -0.1944  0.0719 -1.9553
16335TIP3   OH270495   5.697   0.861  14.934 -0.1915  0.5967 -0.1441
16335TIP3    H170496   5.625   0.923  14.951  0.7317  1.3199  1.3559
16335TIP3    H270497   5.663   0.776  14.963 -0.9754  0.6347 -0.9058
16336TIP3   OH270498   5.914   5.559  14.383  0.1661  0.2878  0.0181
16336TIP3    H170499   5.978   5.625  14.357  1.5027  0.2394  2.8180
16336TIP3    H270500   5.852   5.607  14.439 -0.6732 -0.2250 -0.4554
16337TIP3   OH270501   2.653   0.304  14.378 -0.1353 -0.0811  0.1742
16337TIP3    H170502   2.668   0.393  14.411 -0.4657 -0.4476  1.3677
16337TIP3    H270503   2.596   0.264  14.443 -1.0108 -0.7794 -0.9862
16338TIP3   OH270504   0.611   3.869  16.652  0.0698 -0.2628  0.2109
16338TIP3    H170505   0.660   3.855  16.571 -0.3727 -2.4764  0.2852
16338TIP3    H270506   0.523   3.838  16.633 -0.7092  1.4057  0.8492
16339TIP3   OH270507   5.533   0.795   2.532  0.0901 -0.1678 -0.5773
16339TIP3    H170508   5.567   0.717   2.576 -1.1999 -0.5430 -0.2207
16339TIP3    H270509   5.535   0.863   2.600 -1.1563 -0.5493 -0.1232
16340TIP3   OH270510   0.825   5.607   4.039  0.7355 -0.4343 -0.4069
16340TIP3    H170511   0.895   5.556   4.080 -0.0624 -1.2858 -0.0362
16340TIP3    H270512   0.852   5.619   3.949  2.0655  0.5951  0.0978
16341TIP3   OH270513   1.259   0.622   2.842  0.0533 -0.4573 -0.1046
16341TIP3    H170514   1.254   0.698   2.783  0.3494 -1.3563 -1.3368
16341TIP3    H270515   1.230   0.548   2.788  0.9351 -1.4119  0.6896
16342TIP3   OH270516   5.392   4.546   3.831  0.4354  0.3023  0.5106
16342TIP3    H170517   5.360   4.594   3.755  1.7122  1.6459  0.7656
16342TIP3    H270518   5.319   4.545   3.892  0.4196  2.2165  0.5967
16343TIP3   OH270519   0.935   5.090   2.960  0.2231 -0.0616  0.0671
16343TIP3    H170520   0.851   5.058   2.992  0.0974  0.0670 -0.1397
16343TIP3    H270521   0.999   5.033   3.003  0.0551  0.1249  0.5703
16344TIP3   OH270522   0.759   2.327  12.077 -0.0453 -0.0066 -0.0246
16344TIP3    H170523   0.763   2.232  12.067 -2.2291 -0.1517  0.0072
16344TIP3    H270524   0.779   2.361  11.990 -1.9903 -0.6338 -0.7704
16345TIP3   OH270525   4.770   2.379   5.803 -0.1764  0.7494 -0.6204
16345TIP3    H170526   4.796   2.325   5.878  1.5132  1.4136 -0.6937
16345TIP3    H270527   4.688   2.420   5.831 -2.0276 -2.4785 -0.9032
16346TIP3   OH270528   5.699   4.411  15.928  0.3610  0.3016 -0.2682
16346TIP3    H170529   5.785   4.438  15.897  0.5802 -0.2137 -0.1159
16346TIP3    H270530   5.682   4.469  16.003  1.0297 -0.2690  0.3394
16347TIP3   OH270531   3.714   5.813   0.107  0.0258  0.1964 -0.6480
16347TIP3    H170532   3.641   5.789   0.050  0.8205  0.6160 -1.8892
16347TIP3    H270533   3.791   5.810   0.050  1.2291 -1.5783  0.9113
16348TIP3   OH270534   6.599   0.032   5.941  0.1264  0.5025  0.3084
16348TIP3    H170535   6.521  -0.022   5.947  1.5796 -1.7416  0.0224
16348TIP3    H270536   6.634   0.015   5.853  1.1571  1.1174  0.5779
16349TIP3   OH270537   0.333   1.005   2.876  0.4294  0.4876  0.0837
16349TIP3    H170538   0.358   0.923   2.834  0.6206 -0.1065  1.3275
16349TIP3    H270539   0.417   1.047   2.898  0.5385  2.8288 -3.7335
16350TIP3   OH270540   2.162   0.219   5.366 -0.0084 -0.2761  0.2466
16350TIP3    H170541   2.083   0.249   5.411 -0.3941 -1.2990  0.2864
16350TIP3    H270542   2.187   0.291   5.309  0.3481  0.9636  1.8859
16351TIP3   OH270543   1.262   3.023  13.883 -0.3723  1.1520  0.2035
16351TIP3    H170544   1.343   3.004  13.929 -1.2770 -0.2852  1.3171
16351TIP3    H270545   1.281   3.004  13.791  0.4436  0.4460  0.5068
16352TIP3   OH270546   2.053   2.472   4.948  0.5444 -0.3070 -0.2164
16352TIP3    H170547   2.139   2.433   4.957  0.5310 -1.4294 -3.5084
16352TIP3    H270548   2.063   2.538   4.879 -0.7530  1.3479  1.0753
16353TIP3   OH270549   3.435   5.712   5.468  0.0005  0.1706 -0.2349
16353TIP3    H170550   3.520   5.741   5.435  0.3405 -0.9341 -0.3520
16353TIP3    H270551   3.432   5.745   5.558 -0.2576  1.8120 -0.8112
16354TIP3   OH270552   6.013   1.595  12.929  0.2063  0.7274  0.0574
16354TIP3    H170553   6.070   1.607  13.005  0.5315  0.8611 -0.2026
16354TIP3    H270554   6.063   1.537  12.871  0.0355  0.7685 -0.1330
16355TIP3   OH270555   4.064   3.093  13.067 -0.0208  0.4340  0.0142
16355TIP3    H170556   4.061   3.175  13.016 -1.4345  1.8473  2.2000
16355TIP3    H270557   4.046   3.120  13.157 -0.2594 -2.2783  0.8694
16356TIP3   OH270558   3.137   3.238  14.859  0.0843  0.1105  0.0816
16356TIP3    H170559   3.220   3.202  14.891  0.5915  0.2009 -1.0783
16356TIP3    H270560   3.161   3.323  14.820 -0.1958 -0.7013 -1.9954
16357TIP3   OH270561   3.042   2.928   5.837 -0.2259  0.5079  0.3293
16357TIP3    H170562   2.968   2.882   5.877 -0.7529  0.1949 -0.9782
16357TIP3    H270563   3.083   2.863   5.781 -0.7670  1.4915 -1.2606
16358TIP3   OH270564   6.422   5.910  15.215 -0.4471  0.0800  0.1311
16358TIP3    H170565   6.407   5.902  15.121 -0.5464  0.6323  0.0947
16358TIP3    H270566   6.517   5.922  15.224 -0.1421 -2.0381  0.2626
16359TIP3   OH270567   5.613   1.074  11.786  0.3882 -0.6750 -0.9776
16359TIP3    H170568   5.616   1.100  11.694 -0.4464 -0.9077 -1.0813
16359TIP3    H270569   5.522   1.048  11.800 -0.2031  1.8936  0.6323
16360TIP3   OH270570   5.275   2.197   2.474 -0.4793  0.2163  0.3625
16360TIP3    H170571   5.266   2.260   2.403  0.9536  3.2131  2.5860
16360TIP3    H270572   5.359   2.154   2.458 -1.2366 -0.8390 -0.9153
16361TIP3   OH270573   1.420   3.033  16.624  0.1924 -0.1748 -0.5353
16361TIP3    H170574   1.418   3.090  16.701 -1.0558  0.4370 -0.9907
16361TIP3    H270575   1.388   2.949  16.656  1.2283 -0.3948 -0.0451
16362TIP3   OH270576   0.817   5.346   0.964 -0.6098  0.1496 -0.5762
16362TIP3    H170577   0.748   5.412   0.969 -1.5863 -0.7960 -1.0963
16362TIP3    H270578   0.898   5.396   0.972 -1.3421  1.2581  0.4035
16363TIP3   OH270579   5.664   0.568   2.635  0.8208 -0.1573  0.5386
16363TIP3    H170580   5.750   0.606   2.650 -0.1706  2.0985  0.8988
16363TIP3    H270581   5.626   0.560   2.723  0.1358  0.1817  0.2778
16364TIP3   OH270582   0.194   6.541  11.768 -0.5221 -0.0095  0.0934
16364TIP3    H170583   0.131   6.574  11.832  0.1115  0.5104  0.4631
16364TIP3    H270584   0.265   6.604  11.769  0.1052 -0.6917 -0.1760
16365TIP3   OH270585   3.456   3.519   5.893  0.1610  0.2253  0.5047
16365TIP3    H170586   3.521   3.479   5.951 -0.2863  0.0682  0.9021
16365TIP3    H270587   3.396   3.563   5.953  1.6539  3.1241  0.0572
16366TIP3   OH270588   0.350   3.811  16.981  0.1173  0.0606  0.8446
16366TIP3    H170589   0.308   3.812  16.895  0.2230  0.1398  0.7934
16366TIP3    H270590   0.407   3.734  16.979  0.3678  0.2485  0.7252
16367TIP3   OH270591   2.847   2.366   1.841 -0.7963 -0.5122  0.6022
16367TIP3    H170592   2.888   2.400   1.920 -0.9606  1.5256 -0.1405
16367TIP3    H270593   2.801   2.287   1.870 -0.1091 -0.3162  2.3324
16368TIP3   OH270594   0.266   4.502  11.726 -0.2395  0.6512 -0.3268
16368TIP3    H170595   0.350   4.521  11.684  1.3334 -1.7809  1.3903
16368TIP3    H270596   0.240   4.417  11.689 -1.8073  1.2020 -0.5677
16369TIP3   OH270597   5.244   3.464  13.613  0.5450  0.4438  0.3155
16369TIP3    H170598   5.291   3.467  13.530  0.8915  2.1773  0.5322
16369TIP3    H270599   5.166   3.410  13.595  1.4039 -0.5152 -0.6694
16370TIP3   OH270600   3.596   3.603   2.573  0.2112  0.4251 -0.7856
16370TIP3    H170601   3.662   3.668   2.547  0.3431  0.6507  0.0966
16370TIP3    H270602   3.513   3.641   2.545  0.2209  1.2874  0.2738
16371TIP3   OH270603   3.719   5.753  16.797 -0.2075  0.3243 -0.2940
16371TIP3    H170604   3.791   5.747  16.859 -1.6045 -1.3878  1.3099
16371TIP3    H270605   3.640   5.751  16.852 -1.5157 -1.1069 -2.0753
16372TIP3   OH270606   1.030   6.305  16.052  0.0643 -0.0211 -0.0557
16372TIP3    H170607   1.000   6.215  16.069 -0.2479 -0.1476 -1.2199
16372TIP3    H270608   1.057   6.337  16.138  0.9919 -1.5254  0.2743
16373TIP3   OH270609   2.285   0.702  16.654  0.0973 -0.2800 -0.2724
16373TIP3    H170610   2.373   0.726  16.681  0.3187 -0.4419 -0.8455
16373TIP3    H270611   2.228   0.747  16.716  0.5239  1.1444 -0.8879
16374TIP3   OH270612   0.256   3.441  15.596 -0.2456 -0.4053 -0.2364
16374TIP3    H170613   0.293   3.372  15.541 -0.5426 -0.3012 -0.5713
16374TIP3    H270614   0.277   3.522  15.549  0.2510 -0.2524  0.2395
16375TIP3   OH270615   2.162   0.691  16.030 -0.0372  0.1085 -0.4038
16375TIP3    H170616   2.162   0.607  16.075 -0.1423  0.7436  0.8095
16375TIP3    H270617   2.251   0.699  15.995  0.3397  0.0323  0.5119
16376TIP3   OH270618   4.184   0.960   5.451  1.0750  0.1143 -0.1876
16376TIP3    H170619   4.223   0.910   5.522  2.4370  1.6085  0.1831
16376TIP3    H270620   4.099   0.918   5.435  2.1699 -2.3406 -0.0025
16377TIP3   OH270621   2.100   5.448   6.013  0.2823 -0.3798  0.2857
16377TIP3    H170622   2.157   5.525   6.019 -2.8783  2.2007  0.2568
16377TIP3    H270623   2.074   5.431   6.104 -0.6944  0.0301  0.1003
16378TIP3   OH270624   1.180   0.358  13.829  0.2451  0.0193 -0.0705
16378TIP3    H170625   1.119   0.410  13.881  0.5370 -0.8141  1.1417
16378TIP3    H270626   1.249   0.421  13.804  1.3755 -0.0002  2.6261
16379TIP3   OH270627   4.123   2.089  15.267 -0.7338  0.2418  0.4480
16379TIP3    H170628   4.085   2.024  15.326  0.3873 -0.4616  0.4279
16379TIP3    H270629   4.183   2.039  15.212 -1.6547  0.9013 -1.2336
16380TIP3   OH270630   6.446   1.799   2.262  0.2331  0.2612 -0.1267
16380TIP3    H170631   6.463   1.720   2.313  0.5981  1.0702  1.0351
16380TIP3    H270632   6.491   1.784   2.179 -0.0902 -0.9338 -0.0965
16381TIP3   OH270633   5.481   6.597   1.778 -0.2634  0.2795  0.0060
16381TIP3    H170634   5.419   6.668   1.788 -1.9478 -0.9111 -1.4999
16381TIP3    H270635   5.476   6.572   1.686  1.1322 -1.0358  0.2358
16382TIP3   OH270636   2.135   2.062  12.848  0.1374 -0.2110  0.3322
16382TIP3    H170637   2.042   2.069  12.829  0.5467  1.0277 -1.6000
16382TIP3    H270638   2.156   1.969  12.838 -0.8449 -0.4673  0.6068
16383TIP3   OH270639   5.128   2.267  11.915  0.2946 -0.0492  0.2555
16383TIP3    H170640   5.091   2.202  11.855 -0.1711 -0.5410  1.0515
16383TIP3    H270641   5.158   2.215  11.990  1.5638  0.4721  0.1193
16384TIP3   OH270642   2.762   6.244   2.516 -0.7377  0.0078  0.0566
16384TIP3    H170643   2.669   6.250   2.494 -0.4650  1.6432 -0.8568
16384TIP3    H270644   2.772   6.159   2.558 -2.2987 -1.0185 -1.5258
16385TIP3   OH270645   4.660   3.799   5.882 -0.1592 -0.2912 -0.1500
16385TIP3    H170646   4.656   3.749   5.801 -0.4528 -0.2387 -0.1686
16385TIP3    H270647   4.631   3.738   5.950  1.9077 -0.9320  0.2056
16386TIP3   OH270648   3.886   0.047   4.347 -0.3807  0.4101 -0.1531
16386TIP3    H170649   3.907   0.081   4.433  1.4742  1.3198 -0.9164
16386TIP3    H270650   3.911   0.117   4.287 -0.5397 -0.6477 -1.5078
16387TIP3   OH270651   4.237   6.579   3.258 -0.9056 -0.2439  0.2351
16387TIP3    H170652   4.281   6.576   3.173 -2.7672  1.9728 -0.9337
16387TIP3    H270653   4.202   6.667   3.264 -2.3487 -0.8779  2.5493
16388TIP3   OH270654   2.470   0.269   0.679  0.0986 -0.1010 -0.5097
16388TIP3    H170655   2.418   0.261   0.759 -1.3715  0.3008 -1.3822
16388TIP3    H270656   2.492   0.178   0.656  0.0534 -0.2544  0.0322
16389TIP3   OH270657   6.707   0.963   5.055 -0.4600  0.3817  0.0776
16389TIP3    H170658   6.762   0.958   5.133 -2.0265 -1.7729  1.1619
16389TIP3    H270659   6.618   0.974   5.090 -0.9938  1.5349 -1.5192
16390TIP3   OH270660   2.599   0.807   3.558 -0.0841  0.1534 -0.0993
16390TIP3    H170661   2.641   0.775   3.478  1.2182  0.0255  0.6187
16390TIP3    H270662   2.668   0.807   3.624 -1.8182 -3.1144  2.0064
16391TIP3   OH270663   2.454   4.877   1.994 -0.0057  0.2506 -0.1459
16391TIP3    H170664   2.420   4.900   2.080  0.1680  2.5397 -0.6128
16391TIP3    H270665   2.526   4.816   2.011  2.1678  3.0845  1.6590
16392TIP3   OH270666   4.927   6.394   0.623  0.0499  0.1718 -0.3312
16392TIP3    H170667   4.990   6.407   0.552 -0.5899  0.3553 -0.8731
16392TIP3    H270668   4.842   6.415   0.584 -0.6315 -2.1300 -0.2572
16393TIP3   OH270669   3.353   0.193  15.775  0.0612 -0.6399 -0.9715
16393TIP3    H170670   3.417   0.125  15.754  2.1941  0.7114  0.7561
16393TIP3    H270671   3.309   0.161  15.854 -0.2708 -0.8373 -1.2336
16394TIP3   OH270672   5.412   5.596  11.099 -0.3558 -0.5692 -0.4983
16394TIP3    H170673   5.372   5.575  11.015  0.1288  2.4117 -1.5940
16394TIP3    H270674   5.338   5.617  11.156 -0.6071 -1.1958 -0.5777
16395TIP3   OH270675   4.777   1.562  14.365  0.1248 -0.0131  0.0980
16395TIP3    H170676   4.744   1.494  14.306 -0.0152  1.6194 -1.8403
16395TIP3    H270677   4.710   1.631  14.362  0.3468  0.3254  1.8485
16396TIP3   OH270678   0.600   3.174   0.955 -0.7906 -0.2036 -0.4251
16396TIP3    H170679   0.675   3.154   0.899 -0.4779  2.2861 -1.0050
16396TIP3    H270680   0.627   3.145   1.042 -0.2785 -1.8152 -1.0760
16397TIP3   OH270681   2.502   1.158  15.471  0.3002  0.1041 -0.3522
16397TIP3    H170682   2.546   1.081  15.506 -0.6103 -0.9344 -1.4085
16397TIP3    H270683   2.468   1.204  15.548 -0.7388 -1.5481  0.2275
16398TIP3   OH270684   1.899   0.189   2.978 -0.2895 -0.1047 -0.1441
16398TIP3    H170685   1.928   0.227   3.061 -0.1627 -2.8434  1.1814
16398TIP3    H270686   1.803   0.195   2.981 -0.4703 -2.2934  1.4323
16399TIP3   OH270687   1.064   5.363  13.470  0.1378  0.5370  0.2102
16399TIP3    H170688   1.012   5.291  13.432 -0.5435  0.3261  1.4697
16399TIP3    H270689   1.154   5.344  13.444  0.3132 -2.0090  2.2345
16400TIP3   OH270690   6.622   1.526   2.821 -0.3394 -0.2418  0.2092
16400TIP3    H170691   6.531   1.526   2.793 -0.4494 -0.3376  0.5590
16400TIP3    H270692   6.647   1.433   2.823 -1.0172 -0.4289  2.5761
16401TIP3   OH270693   4.037   1.291   0.070 -0.3316 -0.6631 -0.3988
16401TIP3    H170694   4.091   1.243   0.007  1.0678 -1.0911  1.0768
16401TIP3    H270695   4.097   1.351   0.114 -1.2084 -0.5656  0.7315
16402TIP3   OH270696   3.966   3.045   4.485 -0.0526  0.0519 -0.2640
16402TIP3    H170697   3.938   2.972   4.540  1.6195 -0.4386 -0.0022
16402TIP3    H270698   3.999   3.004   4.405  0.5906  0.5238 -0.2516
16403TIP3   OH270699   4.533   5.235   3.433  0.0361 -0.8348 -0.3345
16403TIP3    H170700   4.517   5.204   3.522 -0.3008 -1.7218 -0.6897
16403TIP3    H270701   4.511   5.328   3.435 -0.2941 -0.9221  0.4259
16404TIP3   OH270702   5.861   0.088  17.027 -0.1106  0.3547 -0.3795
16404TIP3    H170703   5.822   0.161  16.980  0.1204  0.2727 -0.7046
16404TIP3    H270704   5.894   0.127  17.109 -1.1775  0.3543  0.0674
16405TIP3   OH270705   2.487   2.182  13.944 -0.0777  0.4867 -0.0491
16405TIP3    H170706   2.469   2.247  13.877  1.1145 -1.2211 -2.1257
16405TIP3    H270707   2.561   2.217  13.993  1.1844  0.3069 -1.7665
16406TIP3   OH270708   5.910   2.676   1.199  0.2358  0.1869 -0.0773
16406TIP3    H170709   5.914   2.632   1.114  1.2008  1.4663 -0.7431
16406TIP3    H270710   5.830   2.645   1.239  0.2635 -1.2008 -1.0375
16407TIP3   OH270711   6.813   6.546   6.142  0.5781 -0.1698  0.5525
16407TIP3    H170712   6.790   6.454   6.133  3.0653 -0.7484 -0.9625
16407TIP3    H270713   6.885   6.547   6.205  0.2103  0.8361  0.9864
16408TIP3   OH270714   0.671   1.906  13.846  0.2040  0.1189 -0.4604
16408TIP3    H170715   0.659   1.826  13.794  2.5772 -1.5677  1.3189
16408TIP3    H270716   0.762   1.932  13.827  0.8122 -0.0022  2.0010
16409TIP3   OH270717   2.985   1.570   5.451  0.3978 -0.3457  0.2268
16409TIP3    H170718   2.977   1.476   5.433 -1.5974  0.1049 -1.5351
16409TIP3    H270719   2.990   1.575   5.546  1.1913 -2.2468  0.3460
16410TIP3   OH270720   1.527   5.592   4.141 -0.1537 -0.4945  0.0794
16410TIP3    H170721   1.607   5.597   4.088  0.1559 -0.0772  0.5645
16410TIP3    H270722   1.523   5.501   4.169  1.7596  0.0043  2.3939
16411TIP3   OH270723   4.130   5.048  14.796  0.5547  0.1977 -0.0883
16411TIP3    H170724   4.083   5.131  14.806  0.9256  0.2867  1.0183
16411TIP3    H270725   4.063   4.986  14.770 -0.1593  0.3769  1.2464
16412TIP3   OH270726   1.480   1.516  14.658 -0.1043  0.7002 -0.5992
16412TIP3    H170727   1.546   1.576  14.622  0.4848  1.0101  0.9396
16412TIP3    H270728   1.425   1.572  14.713  0.5664 -0.1769  1.0118
16413TIP3   OH270729   0.623   4.833   2.144 -0.2064  0.8053  0.3526
16413TIP3    H170730   0.602   4.921   2.177 -0.6906  0.5178  0.8345
16413TIP3    H270731   0.718   4.833   2.134 -0.1063  1.0863  1.2370
16414TIP3   OH270732   0.429   1.864  11.915 -0.0232 -0.7030 -0.3580
16414TIP3    H170733   0.427   1.860  12.010  2.4968 -0.2828 -0.2183
16414TIP3    H270734   0.411   1.956  11.895  0.0602 -0.6623 -0.2482
16415TIP3   OH270735   0.631   3.064   4.146 -0.2825  0.7973 -0.7699
16415TIP3    H170736   0.702   3.013   4.185 -0.1058  0.9147 -0.9403
16415TIP3    H270737   0.577   3.089   4.221 -1.1240 -0.7798 -0.8230
16416TIP3   OH270738   2.234   0.810  13.455  0.2420  0.2884 -0.1003
16416TIP3    H170739   2.270   0.726  13.426 -1.4327 -0.3355 -0.4660
16416TIP3    H270740   2.234   0.804  13.550  0.4941  0.0362 -0.1144
16417TIP3   OH270741   4.357   0.883  13.173 -0.0531  0.1271  0.1598
16417TIP3    H170742   4.450   0.888  13.197  0.2443 -0.6316 -0.7809
16417TIP3    H270743   4.333   0.973  13.153  0.3989  0.3754  0.7103
16418TIP3   OH270744   3.090   4.488   2.185 -0.1304 -0.6358  0.5660
16418TIP3    H170745   3.041   4.476   2.266 -0.4573  0.0352  0.4733
16418TIP3    H270746   3.142   4.566   2.199  0.3877 -0.9485  0.4046
16419TIP3   OH270747   0.250   4.804   1.504  0.3120  0.2481 -0.0081
16419TIP3    H170748   0.334   4.819   1.548  0.9355 -0.5043 -0.8978
16419TIP3    H270749   0.219   4.891   1.482 -0.5704  0.7605  2.8381
16420TIP3   OH270750   5.508   0.566   6.392  0.5133 -0.2992 -0.0887
16420TIP3    H170751   5.448   0.636   6.364 -0.5617 -1.3235 -0.4447
16420TIP3    H270752   5.572   0.610   6.448 -1.7986  0.5477  2.1140
16421TIP3   OH270753   6.560   3.778  12.406 -0.1655 -0.1299  0.0617
16421TIP3    H170754   6.498   3.846  12.432  1.5733  2.2837 -1.6899
16421TIP3    H270755   6.505   3.704  12.379 -2.1415  0.8675  1.1154
16422TIP3   OH270756   3.664   4.073   2.793 -0.4334 -0.0854 -0.0818
16422TIP3    H170757   3.755   4.061   2.819 -0.0285  2.4497 -0.1015
16422TIP3    H270758   3.664   4.057   2.699 -0.4050 -1.7714  0.1626
16423TIP3   OH270759   0.636   0.696   4.261  0.1429  0.4604 -0.2429
16423TIP3    H170760   0.673   0.770   4.310 -0.5912  2.6835 -2.7762
16423TIP3    H270761   0.589   0.645   4.327 -1.0181  3.3629  1.4156
16424TIP3   OH270762   2.870   6.151   5.119 -0.2062 -0.2088  0.3599
16424TIP3    H170763   2.922   6.153   5.039  1.7227  1.4703  1.5739
16424TIP3    H270764   2.889   6.065   5.158 -1.1101 -1.0074 -0.8808
16425TIP3   OH270765   6.761   5.276  16.902 -0.2384  0.1981  0.0098
16425TIP3    H170766   6.717   5.351  16.861 -0.7114 -0.3884 -0.5690
16425TIP3    H270767   6.790   5.222  16.829  2.6984  1.1942  0.2819
16426TIP3   OH270768   5.832   1.364  15.624  0.3718  0.0625  0.1085
16426TIP3    H170769   5.740   1.343  15.642  0.3928  0.1860  0.3603
16426TIP3    H270770   5.853   1.313  15.545  0.3147 -0.5692  0.4962
16427TIP3   OH270771   3.229   2.104  11.243  0.0995 -0.3154 -0.8133
16427TIP3    H170772   3.273   2.073  11.164 -1.5868  0.6296 -2.1928
16427TIP3    H270773   3.141   2.067  11.237 -0.7119  1.4872 -0.4947
16428TIP3   OH270774   6.691   1.832  13.724 -0.3537  0.4941  0.3100
16428TIP3    H170775   6.742   1.760  13.688 -0.4454 -0.0302  1.2086
16428TIP3    H270776   6.740   1.911  13.701  0.9617 -0.0012  1.2983
16429TIP3   OH270777   0.152   0.470   5.647 -0.5512 -1.0564 -0.6221
16429TIP3    H170778   0.246   0.456   5.645  0.1683  2.1840  1.7135
16429TIP3    H270779   0.115   0.382   5.657  2.3793 -2.2690  0.7830
16430TIP3   OH270780   3.570   6.633  16.108 -0.0695  0.0058  0.0498
16430TIP3    H170781   3.584   6.722  16.075  2.3196 -0.5930 -0.7947
16430TIP3    H270782   3.566   6.642  16.203 -1.6608  1.1788 -0.0913
16431TIP3   OH270783   5.067   3.086  15.209 -0.0470  0.3681 -0.6993
16431TIP3    H170784   5.151   3.045  15.187  0.7594  1.6475 -0.0946
16431TIP3    H270785   5.036   3.037  15.285  0.9357  0.8672  0.0501
16432TIP3   OH270786   2.289   1.151  14.494 -0.2487  0.0095 -0.4253
16432TIP3    H170787   2.302   1.197  14.411 -1.3771  1.8500  0.3609
16432TIP3    H270788   2.288   1.221  14.560 -1.1983 -1.2346  0.9340
16433TIP3   OH270789   4.156   2.681  15.677 -0.6858  0.1805  0.3749
16433TIP3    H170790   4.123   2.667  15.766 -1.2599  2.9837  0.6882
16433TIP3    H270791   4.250   2.696  15.689 -0.7922  0.7330  0.5557
16434TIP3   OH270792   3.291   1.755   0.127 -0.5023 -0.1479  0.4339
16434TIP3    H170793   3.365   1.759   0.067  0.6622  0.8249  1.8559
16434TIP3    H270794   3.233   1.688   0.090  2.0789 -2.5372  0.4032
16435TIP3   OH270795   0.145   2.729  13.800 -0.7498  0.3240 -0.1639
16435TIP3    H170796   0.172   2.664  13.864 -0.3136  0.1715 -0.5019
16435TIP3    H270797   0.050   2.728  13.803 -0.7332  0.5279  0.6941
16436TIP3   OH270798   3.083   1.028  16.339 -0.0217  0.3667 -0.0485
16436TIP3    H170799   3.080   1.018  16.434 -0.6636 -0.1130 -0.1114
16436TIP3    H270800   3.080   0.939  16.305 -1.5998  0.5649 -0.5379
16437TIP3   OH270801   6.537   2.129  14.903 -0.4913 -0.2425  0.5063
16437TIP3    H170802   6.542   2.034  14.901  1.0207 -0.2077  1.3751
16437TIP3    H270803   6.624   2.159  14.878 -0.9719  0.9232  0.1418
16438TIP3   OH270804   2.002   1.519  12.145  0.3098  0.3371  0.1654
16438TIP3    H170805   2.003   1.454  12.215 -0.2503 -1.8767 -1.7555
16438TIP3    H270806   1.910   1.533  12.127  0.4361  1.5065  0.4012
16439TIP3   OH270807   0.433   6.785   2.999 -0.0879 -0.0437  0.3896
16439TIP3    H170808   0.423   6.833   2.917 -0.3826  0.6117  0.7980
16439TIP3    H270809   0.354   6.807   3.049  1.2956  1.7544  1.9510
16440TIP3   OH270810   3.355   2.474   4.167 -0.7684 -0.0733  0.5928
16440TIP3    H170811   3.290   2.520   4.115  0.0025  0.4022  0.0171
16440TIP3    H270812   3.312   2.454   4.250 -2.5524 -2.1536 -0.7230
16441TIP3   OH270813   0.350   6.729  16.903 -0.4727  0.2860 -0.2688
16441TIP3    H170814   0.329   6.642  16.936 -0.0477 -0.5909 -2.1851
16441TIP3    H270815   0.409   6.766  16.969 -0.7702 -0.8166  0.6380
16442TIP3   OH270816   1.465   0.879  16.478 -0.5775  0.7979  0.1462
16442TIP3    H170817   1.508   0.802  16.517 -1.3925  0.4268  0.3273
16442TIP3    H270818   1.391   0.897  16.536 -1.6969  0.3621 -1.0963
16443TIP3   OH270819   4.818   2.398   2.651  0.0144 -0.3056 -0.2201
16443TIP3    H170820   4.878   2.327   2.631  0.8240  0.4430 -0.5138
16443TIP3    H270821   4.858   2.476   2.613 -0.3733  0.4776  0.8889
16444TIP3   OH270822   6.071   5.136   3.196  0.8221  0.2876 -0.2838
16444TIP3    H170823   6.150   5.138   3.250  0.4568 -0.3351  0.3038
16444TIP3    H270824   6.101   5.154   3.107  1.5255  0.7243  0.0385
16445TIP3   OH270825   6.829   2.247   5.551  0.0698  0.3161 -0.8332
16445TIP3    H170826   6.886   2.320   5.528  2.7714 -1.2752  0.3836
16445TIP3    H270827   6.765   2.285   5.612 -0.2886  2.1485 -2.2608
16446TIP3   OH270828   6.067   1.291  16.330  0.2665 -0.0989 -0.0515
16446TIP3    H170829   6.020   1.214  16.363  2.6123 -0.5440  2.5666
16446TIP3    H270830   6.095   1.266  16.242 -0.6286 -1.4817  0.0259
16447TIP3   OH270831   0.993   4.163  12.349 -0.2759 -0.2405  0.2795
16447TIP3    H170832   1.058   4.098  12.323 -1.4150 -1.9967  1.5937
16447TIP3    H270833   0.909   4.115  12.347 -1.2786  1.4334  0.4777
16448TIP3   OH270834   4.469   1.340   3.567  0.4696  0.4138  0.3227
16448TIP3    H170835   4.472   1.244   3.568 -0.7240  0.3501  1.8174
16448TIP3    H270836   4.535   1.365   3.502 -0.4046 -1.4444 -1.4135
16449TIP3   OH270837   6.682   5.015   3.838 -0.3733 -1.1479 -0.3718
16449TIP3    H170838   6.634   5.073   3.897  0.2462 -0.5650 -0.4322
16449TIP3    H270839   6.774   5.032   3.857 -0.1772 -1.8339 -0.6640
16450TIP3   OH270840   3.045   4.829  11.085 -0.4883 -0.1967  0.0635
16450TIP3    H170841   3.023   4.895  11.151 -0.0618  1.5876 -1.4883
16450TIP3    H270842   2.985   4.756  11.103  0.7055 -0.5087  3.4022
16451TIP3   OH270843   2.756   3.126  12.728 -0.0136 -0.2633  0.2304
16451TIP3    H170844   2.817   3.197  12.747  1.6386 -1.3435 -0.7834
16451TIP3    H270845   2.751   3.122  12.633 -2.3586  0.3105  0.2762
16452TIP3   OH270846   6.839   6.341  12.494  0.1085 -0.2507  0.0541
16452TIP3    H170847   6.836   6.308  12.404  0.2877  1.5669 -0.6593
16452TIP3    H270848   6.806   6.268  12.547  0.5265 -1.5688 -1.4028
16453TIP3   OH270849   5.024   6.674   3.300  0.0264 -0.2031  0.1682
16453TIP3    H170850   5.119   6.663   3.297  0.2484  1.5941 -1.2259
16453TIP3    H270851   4.990   6.615   3.233  0.4488  1.2284 -1.3598
16454TIP3   OH270852   4.479   6.236  12.588  0.3609  0.2013 -0.0074
16454TIP3    H170853   4.469   6.329  12.609  2.0717  0.3191  0.4410
16454TIP3    H270854   4.408   6.217  12.526  1.4960  2.4490 -2.1389
16455TIP3   OH270855   4.277   2.037   1.168  0.1994 -0.1714  0.4034
16455TIP3    H170856   4.196   2.046   1.117  1.5526  0.2910 -1.7886
16455TIP3    H270857   4.320   1.960   1.131  1.5525  0.5813  0.3444
16456TIP3   OH270858   2.153   4.545  12.308  0.5743 -0.6361  0.3478
16456TIP3    H170859   2.090   4.527  12.378 -0.1928 -0.6754 -0.3341
16456TIP3    H270860   2.136   4.477  12.243  0.5926 -0.0227 -0.3162
16457TIP3   OH270861   5.672   0.768  13.050 -0.0736 -0.3260 -0.3874
16457TIP3    H170862   5.767   0.764  13.046 -0.1229 -3.0528 -0.7549
16457TIP3    H270863   5.643   0.677  13.038 -2.7649  0.5408 -1.2881
16458TIP3   OH270864   4.884   4.985   2.994  0.0997 -0.2004 -0.8714
16458TIP3    H170865   4.862   4.901   3.034  1.5458 -0.4810 -0.6221
16458TIP3    H270866   4.966   4.969   2.947  0.3789  1.0619 -0.8510
16459TIP3   OH270867   5.979   6.753  10.959  0.0193 -0.0696  0.5134
16459TIP3    H170868   5.962   6.665  10.924  0.9263 -0.4831  1.0781
16459TIP3    H270869   6.073   6.754  10.976 -0.2606  0.3847  2.1823
16460TIP3   OH270870   4.482   4.577   5.332 -0.2814  0.2297 -0.0534
16460TIP3    H170871   4.457   4.553   5.421 -0.2263  0.4912  0.0336
16460TIP3    H270872   4.527   4.661   5.341 -0.2047  0.2192 -0.3182
16461TIP3   OH270873   3.655   4.268  12.580  0.1058  0.5389 -0.2658
16461TIP3    H170874   3.653   4.302  12.669 -1.4845 -1.7748  0.6835
16461TIP3    H270875   3.586   4.317  12.534 -2.1242 -1.1744  1.0578
16462TIP3   OH270876   0.243   5.245   1.016  0.0067 -0.3788  0.1998
16462TIP3    H170877   0.307   5.182   1.050 -0.5317 -0.2957  1.4414
16462TIP3    H270878   0.161   5.223   1.062 -0.3633  0.7586  0.1212
16463TIP3   OH270879   6.330   3.717  10.253 -0.6947  0.2915 -0.0601
16463TIP3    H170880   6.394   3.646  10.248  0.1223  0.9735  0.5212
16463TIP3    H270881   6.254   3.678  10.296  0.2597  0.1120  1.5480
16464TIP3   OH270882   3.126   2.534   4.368  0.2963 -0.1228  1.1175
16464TIP3    H170883   3.177   2.577   4.437  2.0506  1.4137 -1.0345
16464TIP3    H270884   3.094   2.605   4.314  3.2742 -1.2873 -2.5844
16465TIP3   OH270885   2.269   6.335  13.406  0.2005 -0.0788  0.1508
16465TIP3    H170886   2.288   6.370  13.493  2.8804 -0.5622 -0.1444
16465TIP3    H270887   2.303   6.246  13.409 -2.6351 -1.2781 -0.4387
16466TIP3   OH270888   5.066   6.535  14.362 -0.1883 -0.4449 -0.0584
16466TIP3    H170889   5.096   6.444  14.356  3.2100  0.5623 -0.5990
16466TIP3    H270890   5.002   6.544  14.292 -0.2161 -2.2897 -0.3186
16467TIP3   OH270891   4.255   6.682  13.172 -0.3121  0.8562  0.2822
16467TIP3    H170892   4.195   6.754  13.150 -0.7281 -0.1505 -2.2018
16467TIP3    H270893   4.217   6.605  13.130  1.4754 -0.2949  0.6736
16468TIP3   OH270894   6.484   0.598   2.957  0.1241  0.5121  0.1868
16468TIP3    H170895   6.439   0.561   3.034  1.2845 -1.0657  0.1532
16468TIP3    H270896   6.539   0.527   2.925  0.1000  1.3268 -1.7961
16469TIP3   OH270897   0.402   5.310  14.923 -0.4341 -0.0969 -0.4068
16469TIP3    H170898   0.449   5.352  14.851 -1.7192  2.4871  0.1389
16469TIP3    H270899   0.470   5.283  14.984  0.6011 -1.2961 -2.0174
16470TIP3   OH270900   1.238   3.059  16.956 -0.9943  0.1247 -0.0527
16470TIP3    H170901   1.281   3.134  16.915 -0.3195 -0.4132 -0.3534
16470TIP3    H270902   1.149   3.060  16.921 -1.6495  1.9186  1.4317
16471TIP3   OH270903   6.834   6.105  14.071  0.1009  0.7556 -0.1307
16471TIP3    H170904   6.822   6.150  14.154 -1.1738  0.5818 -0.1937
16471TIP3    H270905   6.769   6.144  14.013  0.2166  0.1046 -0.7134
16472TIP3   OH270906   3.588   5.969  12.647  0.1160  0.2344 -0.1645
16472TIP3    H170907   3.494   5.987  12.646  0.0351  0.0861 -2.6342
16472TIP3    H270908   3.616   5.989  12.736 -1.9934  1.7031  0.2413
16473TIP3   OH270909   0.982   6.490   4.970 -0.1719  0.2329 -0.0978
16473TIP3    H170910   0.937   6.519   5.049  0.2554 -1.1162  0.6752
16473TIP3    H270911   0.912   6.472   4.908 -0.5395  0.8152  0.1391
16474TIP3   OH270912   1.839   3.733   4.776  0.6109  0.3982 -0.2208
16474TIP3    H170913   1.834   3.640   4.797 -1.1083  0.9739  2.4958
16474TIP3    H270914   1.796   3.741   4.691  0.0012 -1.1982 -0.0882
16475TIP3   OH270915   0.565   3.119   1.962 -0.4599  0.2588 -0.0099
16475TIP3    H170916   0.508   3.123   2.039  0.1940  1.1127  0.4591
16475TIP3    H270917   0.644   3.076   1.994 -0.6843 -0.5846 -0.5620
16476TIP3   OH270918   0.047   1.084   3.302  0.4044  0.0136  0.1247
16476TIP3    H170919   0.102   1.162   3.308 -0.0491  0.5740 -2.0723
16476TIP3    H270920  -0.037   1.111   3.340 -0.6468  1.5835 -3.0170
16477TIP3   OH270921   4.912   3.584  16.418  0.1035 -0.0738  0.1101
16477TIP3    H170922   4.913   3.604  16.325 -1.5426  0.3637  0.1549
16477TIP3    H270923   4.832   3.625  16.451  1.3709  1.0360  2.0122
16478TIP3   OH270924   0.839   1.188  14.184 -0.8049  0.2946 -0.4794
16478TIP3    H170925   0.747   1.214  14.185 -0.9817 -0.1751  1.7990
16478TIP3    H270926   0.879   1.244  14.117 -2.5880  1.0404 -0.9863
16479TIP3   OH270927   6.573   3.859  15.651 -0.5196 -0.1082 -0.3795
16479TIP3    H170928   6.615   3.798  15.590  1.1554  1.3048 -0.7438
16479TIP3    H270929   6.621   3.846  15.733  0.1581  0.9871 -0.5834
16480TIP3   OH270930   3.131   5.188  11.275  0.3745  0.2363  0.2969
16480TIP3    H170931   3.152   5.189  11.368 -1.4842 -0.7394  0.7785
16480TIP3    H270932   3.057   5.249  11.267  1.9161  2.0732 -0.9721
16481TIP3   OH270933   5.025   2.415  12.582 -1.1101 -0.3049 -0.0071
16481TIP3    H170934   5.009   2.324  12.607 -0.2732 -0.4957 -0.1030
16481TIP3    H270935   4.967   2.467  12.637 -0.6234 -0.8210  1.0219
16482TIP3   OH270936   3.436   1.907   2.723  0.5481 -0.0368 -0.4033
16482TIP3    H170937   3.474   1.820   2.731  1.1437  0.2906  0.5267
16482TIP3    H270938   3.500   1.957   2.671  1.0940  0.3199  0.5721
16483TIP3   OH270939   4.390   3.043   3.254  0.0858 -0.0488  0.2742
16483TIP3    H170940   4.436   3.035   3.171  1.5797  2.4484  0.7793
16483TIP3    H270941   4.318   3.103   3.236 -0.6299 -0.8417  0.4193
16484TIP3   OH270942   3.634   4.568   1.067 -0.0078  0.4058  0.2155
16484TIP3    H170943   3.712   4.619   1.090  0.1726  0.4590 -0.4736
16484TIP3    H270944   3.586   4.558   1.149 -0.4075  2.2876  0.2614
16485TIP3   OH270945   5.928   4.786   1.547 -0.7963 -0.0016 -0.0627
16485TIP3    H170946   6.019   4.793   1.575 -0.3790 -0.9108 -1.1152
16485TIP3    H270947   5.885   4.737   1.618 -1.0305  2.3323  1.5158
16486TIP3   OH270948   6.227   6.519  16.405 -0.5076  0.4653 -0.2510
16486TIP3    H170949   6.290   6.586  16.376 -0.1773  0.7007  0.9846
16486TIP3    H270950   6.162   6.568  16.456  0.7005 -0.3563  2.1992
16487TIP3   OH270951   2.535   0.322  10.502  0.5718  0.4923 -0.0670
16487TIP3    H170952   2.526   0.409  10.540 -1.3799 -0.1603  1.1200
16487TIP3    H270953   2.476   0.267  10.553  0.2711 -1.1283 -2.0170
16488TIP3   OH270954   1.684   3.588   0.364  0.2808  0.4692 -0.3718
16488TIP3    H170955   1.597   3.626   0.354 -0.2845 -0.6159  0.2660
16488TIP3    H270956   1.678   3.502   0.324  0.7541 -0.0376  0.6053
16489TIP3   OH270957   4.917   3.746   6.370 -0.0641 -0.5128  0.0964
16489TIP3    H170958   4.968   3.734   6.450  0.7290  0.3776 -0.2398
16489TIP3    H270959   4.981   3.735   6.300 -0.4228  0.1927 -0.3534
16490TIP3   OH270960   2.489   6.446  16.707  0.2919  0.2934 -0.3008
16490TIP3    H170961   2.438   6.525  16.722 -0.2790 -0.1034 -0.1592
16490TIP3    H270962   2.473   6.424  16.615 -0.9018 -0.6043  0.0984
16491TIP3   OH270963   6.626   4.377  10.679 -0.0557 -0.0930  0.1780
16491TIP3    H170964   6.650   4.468  10.662  0.0105  0.0754  1.0804
16491TIP3    H270965   6.531   4.379  10.692  0.1501  0.1987  2.0299
16492TIP3   OH270966   1.566   2.028  15.755 -0.0448 -0.6662 -0.1954
16492TIP3    H170967   1.515   2.101  15.789 -0.7567 -1.5107  0.6280
16492TIP3    H270968   1.626   2.005  15.826 -0.4033 -1.3952 -0.1107
16493TIP3   OH270969   1.617   6.590  14.318  0.5913  0.4361 -0.0897
16493TIP3    H170970   1.654   6.665  14.271 -0.0148  0.8280  0.0494
16493TIP3    H270971   1.597   6.623  14.405  2.2355 -0.4325  0.6633
16494TIP3   OH270972   4.345   3.816   1.813  0.3347 -0.9059  0.6260
16494TIP3    H170973   4.435   3.783   1.818  0.6143 -0.2860 -0.1235
16494TIP3    H270974   4.299   3.752   1.760  0.4670 -0.9423  0.5540
16495TIP3   OH270975   2.932   4.801   1.458  0.4850  0.6892 -0.4029
16495TIP3    H170976   2.895   4.826   1.374  1.6154  0.4313 -0.9998
16495TIP3    H270977   2.860   4.810   1.520 -1.0401 -1.3361 -1.7566
16496TIP3   OH270978   5.531   5.540  15.697 -0.0498 -0.1777 -0.1536
16496TIP3    H170979   5.516   5.454  15.737 -2.8567 -0.8174 -2.2097
16496TIP3    H270980   5.466   5.597  15.739  0.9314  0.6618  0.2787
16497TIP3   OH270981   2.579   5.112  13.966 -0.4450 -0.3389 -0.4935
16497TIP3    H170982   2.659   5.116  14.019 -0.3098 -2.0243 -0.5179
16497TIP3    H270983   2.519   5.057  14.017 -1.7197  1.1256 -0.3416
16498TIP3   OH270984   1.212   1.497  14.229 -0.0356  0.1417 -0.1820
16498TIP3    H170985   1.196   1.530  14.141  0.5089 -0.7953 -0.6500
16498TIP3    H270986   1.307   1.487  14.234 -0.1498 -0.9469  0.0758
16499TIP3   OH270987   4.112   4.027   4.127 -0.1661 -0.3350  0.0918
16499TIP3    H170988   4.169   4.092   4.170  0.1397 -0.9441  0.6212
16499TIP3    H270989   4.040   4.079   4.091  1.3704  0.6625 -1.7911
16500TIP3   OH270990   0.087   0.134   3.321  0.3288 -0.0798 -0.2709
16500TIP3    H170991   0.108   0.162   3.410 -0.6094  0.4658 -0.2123
16500TIP3    H270992   0.041   0.209   3.282  1.1940 -0.1042 -1.3969
16501TIP3   OH270993   4.831   5.601  10.747  0.1168 -0.1172 -0.0099
16501TIP3    H170994   4.778   5.658  10.692 -0.7520 -0.2672  0.6578
16501TIP3    H270995   4.782   5.519  10.752  0.4000 -0.2577  0.6225
16502TIP3   OH270996   4.117   4.591  14.520  0.2274 -0.1743 -0.2102
16502TIP3    H170997   4.070   4.672  14.505  0.1714 -0.0760  0.4465
16502TIP3    H270998   4.148   4.564  14.434  3.1392  2.2967 -0.1090
16503TIP3   OH270999   3.453   5.497  13.430 -0.4624  0.2101  0.2447
16503TIP3    H171000   3.532   5.510  13.377  0.0991 -0.9342  0.7477
16503TIP3    H271001   3.425   5.585  13.455  1.7820  0.6077  1.6616
16504TIP3   OH271002   0.007   5.424  16.273 -0.0254 -0.0486  0.0978
16504TIP3    H171003  -0.087   5.445  16.270 -0.5432 -1.9304  1.2365
16504TIP3    H271004   0.042   5.485  16.339 -0.7668 -0.3076  0.7569
16505TIP3   OH271005   6.078   4.932  15.999 -0.0070  0.2057  0.4726
16505TIP3    H171006   6.105   4.974  16.080 -0.7283  1.0845  0.2752
16505TIP3    H271007   6.010   4.990  15.963  0.5402  0.0209 -0.9257
16506TIP3   OH271008   4.478   0.380   0.838 -0.2792  0.1393 -0.1627
16506TIP3    H171009   4.527   0.450   0.881  0.4570 -0.6982  0.3979
16506TIP3    H271010   4.418   0.426   0.778 -0.2589  1.2633  0.6406
16507TIP3   OH271011   5.972   3.053   2.814  0.7467  0.0563  0.4355
16507TIP3    H171012   5.908   2.989   2.844 -0.4649  1.1196  0.2060
16507TIP3    H271013   5.931   3.094   2.737  1.2834  1.4143  0.8453
16508TIP3   OH271014   6.478   5.491  14.894  0.1067 -0.1128  0.2592
16508TIP3    H171015   6.451   5.405  14.927 -1.5582 -0.4864 -1.7958
16508TIP3    H271016   6.558   5.475  14.846 -0.3197 -0.5914 -0.3058
16509TIP3   OH271017   1.698   1.705   2.266  0.4088  0.0403 -0.2871
16509TIP3    H171018   1.733   1.627   2.222 -1.7918 -0.4278 -1.3195
16509TIP3    H271019   1.646   1.671   2.338 -0.7660  0.5256 -0.8888
16510TIP3   OH271020   1.409   2.434   0.960  0.2516  0.2254 -0.3365
16510TIP3    H171021   1.399   2.403   1.050 -0.7990  1.3364 -0.0364
16510TIP3    H271022   1.460   2.515   0.968  2.3693 -0.9519 -1.0339
16511TIP3   OH271023   1.853   1.868   5.151  0.1533 -0.6723  0.5951
16511TIP3    H171024   1.793   1.832   5.215  0.4706 -1.9184  0.2123
16511TIP3    H271025   1.892   1.944   5.195 -1.3711 -0.0749  0.9886
16512TIP3   OH271026   4.545   0.387  16.995  0.8322  0.7176 -0.3322
16512TIP3    H171027   4.628   0.345  17.021  0.4225  0.1311  0.0402
16512TIP3    H271028   4.487   0.374  17.071 -0.0287 -0.0548 -1.0987
16513TIP3   OH271029   6.778   3.985  15.017 -0.8095 -0.5964 -0.0496
16513TIP3    H171030   6.709   4.045  14.988  0.2770 -0.1862 -1.9385
16513TIP3    H271031   6.837   4.040  15.070 -1.8284 -0.9243  1.4774
16514TIP3   OH271032   4.953   6.023   4.344 -0.2764 -0.6038  0.1000
16514TIP3    H171033   4.994   6.076   4.413 -0.3293 -1.1529  0.5597
16514TIP3    H271034   4.928   6.086   4.277  3.7152 -0.4186 -1.4890
16515TIP3   OH271035   1.527   6.395  14.562  0.0893 -0.0360 -0.2841
16515TIP3    H171036   1.510   6.301  14.570  0.5059 -0.0981 -0.1337
16515TIP3    H271037   1.520   6.413  14.469 -0.7275 -0.0766 -0.2403
16516TIP3   OH271038   5.877   2.048   2.814 -0.2432 -0.5927 -0.5489
16516TIP3    H171039   5.951   2.001   2.778 -0.5838 -1.1813 -0.4880
16516TIP3    H271040   5.916   2.119   2.866  0.2621 -0.6709 -0.8189
16517TIP3   OH271041   3.960   4.685  15.513 -0.1448  0.1713 -0.3536
16517TIP3    H171042   3.907   4.740  15.570  0.8377  1.6743 -0.8299
16517TIP3    H271043   3.902   4.661  15.441  0.1897  3.2554 -1.8078
16518TIP3   OH271044   0.194   1.580   4.532  0.4340  0.4739 -0.9672
16518TIP3    H171045   0.214   1.615   4.446 -0.8057  0.3156 -1.3383
16518TIP3    H271046   0.213   1.653   4.592 -1.4434  1.6202 -1.6576
16519TIP3   OH271047   4.813   5.757   1.378 -0.4423  0.2599  0.2900
16519TIP3    H171048   4.742   5.699   1.352 -1.0220  1.0345  0.0950
16519TIP3    H271049   4.770   5.830   1.423  0.2874  0.4273  0.7378
16520TIP3   OH271050   1.497   2.118   0.349 -0.4438  0.2960 -0.1023
16520TIP3    H171051   1.590   2.139   0.359 -0.7787  0.6618  3.9963
16520TIP3    H271052   1.456   2.201   0.323  0.1858  0.4499 -0.6229
16521TIP3   OH271053   4.867   0.646   1.569 -0.2994 -0.2666 -0.6480
16521TIP3    H171054   4.866   0.685   1.656  1.1345  1.6280 -1.4068
16521TIP3    H271055   4.797   0.581   1.571 -0.2884 -0.2974  1.9052
16522TIP3   OH271056   3.661   3.190   2.027  0.1277  0.1679 -0.6265
16522TIP3    H171057   3.702   3.259   1.975  2.9820  1.3300  2.7715
16522TIP3    H271058   3.624   3.236   2.103  0.0734 -1.7815  0.6070
16523TIP3   OH271059   2.359   0.997  11.177  0.2421 -0.3572 -0.5337
16523TIP3    H171060   2.355   1.085  11.215 -1.6467 -0.9091  0.7345
16523TIP3    H271061   2.452   0.980  11.165  0.6506  1.9044 -1.0830
16524TIP3   OH271062   6.650   4.424   5.310  0.0527 -0.3709 -0.2478
16524TIP3    H171063   6.621   4.398   5.397  0.3154 -1.0116 -0.3495
16524TIP3    H271064   6.676   4.516   5.321 -0.1101 -0.3835  0.2987
16525TIP3   OH271065   0.849   0.172  12.956 -0.1291  0.5281 -0.5393
16525TIP3    H171066   0.850   0.134  12.868 -0.2181  0.2847 -0.4375
16525TIP3    H271067   0.930   0.140  12.996 -0.9128 -0.8206  0.0639
16526TIP3   OH271068   4.049   0.537   1.425  0.0522 -0.2848 -0.1167
16526TIP3    H171069   3.964   0.501   1.450 -0.8462  0.6572 -1.6227
16526TIP3    H271070   4.028   0.601   1.357  1.4925  3.1912  2.4156
16527TIP3   OH271071   0.808   6.411   1.405 -0.4054 -0.0170  0.3375
16527TIP3    H171072   0.803   6.338   1.343  1.2459 -0.9279  1.2038
16527TIP3    H271073   0.885   6.461   1.376 -0.4610  0.3458  0.8089
16528TIP3   OH271074   3.536   2.063   0.783  0.7246 -0.4471  0.0547
16528TIP3    H171075   3.512   2.152   0.758  0.1448  0.0138  2.1077
16528TIP3    H271076   3.453   2.020   0.806  1.2035 -0.8017  1.2110
16529TIP3   OH271077   2.287   6.721  13.242 -0.6568 -0.4699 -0.0129
16529TIP3    H171078   2.262   6.808  13.273 -0.9920  0.0101 -1.5372
16529TIP3    H271079   2.225   6.661  13.285  0.6473 -0.2148  2.4152
16530TIP3   OH271080   5.192   6.494  12.953 -0.1989  0.4487  0.7325
16530TIP3    H171081   5.232   6.497  13.040  1.5716  2.2462 -0.0621
16530TIP3    H271082   5.127   6.565  12.955 -0.5213  0.1549  0.7412
16531TIP3   OH271083   4.083   3.312  14.860  0.0947  0.1722 -0.4628
16531TIP3    H171084   4.036   3.292  14.941 -0.4205 -0.2619 -0.8553
16531TIP3    H271085   4.015   3.309  14.792  0.5820  0.1660 -0.9549
16532TIP3   OH271086   3.954   3.076  17.018 -0.0883 -0.1714 -0.0145
16532TIP3    H171087   3.962   3.092  16.924 -2.0347 -0.3712 -0.2555
16532TIP3    H271088   3.944   3.162  17.057  1.9252  0.0129  0.1941
16533TIP3   OH271089   6.746   3.092  15.677  0.0305  0.0892 -0.7163
16533TIP3    H171090   6.681   3.084  15.747  0.9907  0.4347  0.2425
16533TIP3    H271091   6.829   3.070  15.719  0.5857 -0.0023 -1.8316
16534TIP3   OH271092   4.144   5.771   0.361 -0.0130 -0.5082  0.1843
16534TIP3    H171093   4.147   5.743   0.453  0.3995  0.4497  0.4800
16534TIP3    H271094   4.151   5.866   0.365 -0.4747 -0.4180 -0.8280
16535TIP3   OH271095   3.045   5.082   4.381  0.3869  0.6340  0.1641
16535TIP3    H171096   3.065   4.994   4.413  0.4417  0.2498 -0.8957
16535TIP3    H271097   2.963   5.106   4.425 -0.7822 -0.8205 -1.1179
16536TIP3   OH271098   1.528   3.382   2.305  0.2024 -0.1012  0.2778
16536TIP3    H171099   1.553   3.473   2.288  2.2254 -0.1537  2.4344
16536TIP3    H271100   1.544   3.336   2.222  1.7549  1.0234 -0.0759
16537TIP3   OH271101   6.172   1.571   4.532  0.5942  0.5282  0.3199
16537TIP3    H171102   6.145   1.622   4.608  1.2103  1.0265  0.2137
16537TIP3    H271103   6.111   1.596   4.463  0.2879  0.3788  0.5301
16538TIP3   OH271104   2.384   1.449  12.669  0.3385  0.4996  0.3989
16538TIP3    H171105   2.383   1.505  12.591  1.6537 -1.4334 -1.1107
16538TIP3    H271106   2.468   1.466  12.711 -0.6088  1.9698  1.8013
16539TIP3   OH271107   1.661   5.493   0.633  0.6264 -0.5017  0.1704
16539TIP3    H171108   1.746   5.522   0.600  1.8559 -0.3434  3.1822
16539TIP3    H271109   1.681   5.447   0.715 -2.3239  1.8801  2.4634
16540TIP3   OH271110   3.184   3.107   2.308 -0.2382 -0.2410 -0.1672
16540TIP3    H171111   3.106   3.084   2.257  0.0675 -0.3906 -0.5698
16540TIP3    H271112   3.152   3.115   2.398 -0.5880 -1.0069 -0.2123
16541TIP3   OH271113   3.804   2.529   0.827 -1.2653  0.2010 -0.0011
16541TIP3    H171114   3.873   2.567   0.774  0.9628 -0.1568  2.4506
16541TIP3    H271115   3.754   2.604   0.859 -1.2391  0.5528 -0.7726
16542TIP3   OH271116   1.565   2.328  10.699  0.0873 -0.6615 -0.1530
16542TIP3    H171117   1.504   2.401  10.709  0.0551 -0.5097 -1.3657
16542TIP3    H271118   1.523   2.256  10.747  0.1445  0.0980  1.1050
16543TIP3   OH271119   2.562   2.173   4.780  0.5387  0.2287 -0.3319
16543TIP3    H171120   2.614   2.095   4.759  1.1463  0.7837 -0.9401
16543TIP3    H271121   2.569   2.228   4.702 -1.1051  0.2598 -0.5023
16544TIP3   OH271122   0.052   3.588  16.196 -0.1900  0.5627 -0.3395
16544TIP3    H171123   0.048   3.682  16.177  0.2943  0.3545 -1.5697
16544TIP3    H271124  -0.031   3.554  16.163  0.1065  0.3964 -0.9257
16545TIP3   OH271125   4.571   2.061  12.993  0.2912  0.6072 -0.2674
16545TIP3    H171126   4.628   2.013  13.053  0.9699  2.1992  0.4332
16545TIP3    H271127   4.521   2.120  13.049  0.0952  1.3109 -1.1480
16546TIP3   OH271128   6.798   4.981   0.231  0.0705 -0.5205  0.3871
16546TIP3    H171129   6.811   4.985   0.326 -0.3427 -0.4904  0.4417
16546TIP3    H271130   6.849   5.055   0.197 -0.6260  0.1007  0.6768
16547TIP3   OH271131   4.354   2.279   2.816 -0.4763  0.0828  0.3859
16547TIP3    H171132   4.439   2.276   2.771 -0.8942 -3.2966 -0.4751
16547TIP3    H271133   4.364   2.219   2.890 -1.7122  0.6817  1.0544
16548TIP3   OH271134   4.746   2.423  10.425  1.0864 -0.3351 -0.2460
16548TIP3    H171135   4.791   2.503  10.397  2.0516 -1.1184 -0.9956
16548TIP3    H271136   4.771   2.413  10.517  0.0984  0.7869  0.1642
16549TIP3   OH271137   4.904   2.521   5.022 -0.3661 -0.5516 -0.1085
16549TIP3    H171138   4.885   2.553   5.110  0.4724  0.8310 -0.4131
16549TIP3    H271139   4.839   2.563   4.966  0.1571 -0.0974 -0.3827
16550TIP3   OH271140   2.172   5.672  16.101 -0.1596  0.1186  0.6242
16550TIP3    H171141   2.207   5.585  16.083 -0.1213 -0.3556  2.6919
16550TIP3    H271142   2.077   5.661  16.099 -0.1875  0.4204 -0.6726
16551TIP3   OH271143   5.515   6.134  14.696 -0.2018 -0.1395 -0.0721
16551TIP3    H171144   5.503   6.101  14.785  1.2794  0.4325  0.3565
16551TIP3    H271145   5.434   6.183  14.678 -0.2728  0.2329  1.1785
16552TIP3   OH271146   1.430   2.108  11.878 -0.8464  0.5259 -0.3503
16552TIP3    H171147   1.489   2.037  11.906 -1.0972  0.6886  0.6345
16552TIP3    H271148   1.426   2.100  11.783  0.5936  0.3634 -0.4213
16553TIP3   OH271149   4.390   2.335   0.088 -0.2103 -0.2044  0.3805
16553TIP3    H171150   4.317   2.310   0.144 -1.4669  1.0684 -0.5956
16553TIP3    H271151   4.362   2.311  -0.000  0.2093  0.9924 -0.1078
16554TIP3   OH271152   0.399   1.074  16.646  0.6039  0.1574  0.5877
16554TIP3    H171153   0.393   0.993  16.696  2.0735  0.1330  0.7801
16554TIP3    H271154   0.490   1.077  16.616  0.3455  1.2996 -0.1718
16555TIP3   OH271155   0.264   2.550   3.364 -0.0137  0.3145 -0.4876
16555TIP3    H171156   0.171   2.566   3.379 -0.3030 -1.7112  0.2506
16555TIP3    H271157   0.299   2.531   3.451  1.6638  3.3337 -0.3755
16556TIP3   OH271158   3.315   0.173   1.005  0.2330  0.0570  0.2901
16556TIP3    H171159   3.382   0.113   0.973  1.2881  1.2133  0.2399
16556TIP3    H271160   3.357   0.220   1.077 -1.7804 -1.8019  2.8371
16557TIP3   OH271161   4.912   3.080  11.436 -0.1884  0.4341  0.2518
16557TIP3    H171162   4.977   3.030  11.485  0.9031  1.2617 -0.2982
16557TIP3    H271163   4.846   3.016  11.410  1.1970 -0.7584 -0.4966
16558TIP3   OH271164   3.804   0.302   0.177 -0.8370  0.1459 -0.7620
16558TIP3    H171165   3.723   0.301   0.127 -1.1647 -2.2902 -0.3010
16558TIP3    H271166   3.817   0.211   0.203  0.8610  0.8536  1.0983
16559TIP3   OH271167   3.904   3.202  16.336 -0.2598 -0.1603  0.0215
16559TIP3    H171168   3.965   3.188  16.408 -1.1325  0.4676  0.9128
16559TIP3    H271169   3.960   3.224  16.261  0.6398 -0.3186  0.6321
16560TIP3   OH271170   2.290   3.947   1.649 -0.6724 -0.0137 -0.1551
16560TIP3    H171171   2.357   3.983   1.591 -0.2212  0.7645  0.8072
16560TIP3    H271172   2.340   3.905   1.720 -1.1821  0.4729  0.5084
16561TIP3   OH271173   5.207   3.049   0.735 -0.3181  0.0119  0.4165
16561TIP3    H171174   5.284   3.054   0.679 -1.2951 -0.5626 -1.0320
16561TIP3    H271175   5.145   3.111   0.696 -0.6860  0.3097  1.4316
16562TIP3   OH271176   6.488   5.125   5.225 -0.1978  0.5157 -0.0303
16562TIP3    H171177   6.553   5.195   5.218 -0.3383  0.5729 -1.0011
16562TIP3    H271178   6.406   5.168   5.201 -0.6238  0.4675  1.2855
16563TIP3   OH271179   0.395   5.543   2.083 -0.4739  0.5727  0.0595
16563TIP3    H171180   0.346   5.612   2.127  0.0845  0.7476  0.4294
16563TIP3    H271181   0.460   5.590   2.030 -1.0116  0.3571 -0.8070
16564TIP3   OH271182   6.036   5.849   4.589 -0.3879 -0.4839 -0.5695
16564TIP3    H171183   5.941   5.858   4.591 -0.3114  0.3482  0.8956
16564TIP3    H271184   6.069   5.939   4.590  0.3997 -0.7620 -0.2148
16565TIP3   OH271185   2.280   1.614   0.850  0.1591 -0.1078  0.0703
16565TIP3    H171186   2.267   1.668   0.772  0.3826 -1.6816 -1.0907
16565TIP3    H271187   2.193   1.610   0.891  0.4420  2.4168  1.1128
16566TIP3   OH271188   5.713   4.387   2.421 -0.1709 -0.2969 -0.1869
16566TIP3    H171189   5.779   4.417   2.359 -1.5106  1.6400 -0.7530
16566TIP3    H271190   5.713   4.452   2.491  0.1663 -1.5822  1.0739
16567TIP3   OH271191   4.457   1.947   1.576  0.2549  0.4947 -0.2519
16567TIP3    H171192   4.487   1.916   1.661  2.3573  1.6255 -0.5139
16567TIP3    H271193   4.536   1.978   1.532 -1.0817  2.1192 -1.6818
16568TIP3   OH271194   2.061   4.456   3.446 -0.5513 -0.0023 -0.2176
16568TIP3    H171195   2.077   4.529   3.505 -0.8947 -0.6100  0.6401
16568TIP3    H271196   2.146   4.414   3.436 -0.5478 -0.0541  0.0463
16569TIP3   OH271197   4.606   3.692  15.768  0.2058 -0.0351  0.5437
16569TIP3    H171198   4.530   3.717  15.821 -0.0280  1.3897 -0.4119
16569TIP3    H271199   4.672   3.758  15.788 -0.5528  1.7911 -2.3402
16570TIP3   OH271200   6.847   5.018  14.094 -0.1055 -0.7656 -0.1099
16570TIP3    H171201   6.797   4.936  14.093  0.2544 -0.9879 -1.3738
16570TIP3    H271202   6.828   5.058  14.009  1.6739 -0.7467 -0.5275
16571TIP3   OH271203   5.414   5.787  14.694 -1.0637 -0.5189  0.0213
16571TIP3    H171204   5.488   5.838  14.661 -1.1335 -1.0065 -0.9507
16571TIP3    H271205   5.339   5.822  14.646 -0.9332 -2.3229 -1.6169
16572TIP3   OH271206   3.325   5.515   6.090  0.4128  0.3498 -0.2244
16572TIP3    H171207   3.248   5.517   6.033  1.3475 -1.1546 -1.6291
16572TIP3    H271208   3.396   5.486   6.033  1.6196 -0.2535  1.4992
16573TIP3   OH271209   5.540   1.808  13.112 -0.3336  0.1210  0.0020
16573TIP3    H171210   5.631   1.819  13.137 -0.4361 -1.5408  1.2756
16573TIP3    H271211   5.495   1.884  13.150  0.2491  0.0146  0.9313
16574TIP3   OH271212   5.301   3.005  16.845  0.7339  0.1168  0.4220
16574TIP3    H171213   5.333   2.979  16.759  1.5579  0.6944  0.5333
16574TIP3    H271214   5.343   2.945  16.906  0.3815 -0.1078  0.4433
16575TIP3   OH271215   3.666   5.297  16.822 -0.0191  0.3963 -0.0568
16575TIP3    H171216   3.628   5.356  16.888  0.5331  0.4831  0.1930
16575TIP3    H271217   3.595   5.281  16.760 -0.8094 -0.3781  1.0169
16576TIP3   OH271218   5.885   1.012   2.804  0.0181  0.0672  0.4861
16576TIP3    H171219   5.904   1.096   2.845 -0.9614  0.8966 -0.7185
16576TIP3    H271220   5.957   0.998   2.743 -0.3954  0.5923 -0.1332
16577TIP3   OH271221   3.434   5.876   2.578 -0.9576 -0.1325 -0.0169
16577TIP3    H171222   3.485   5.795   2.574  1.2973  1.1272  1.2698
16577TIP3    H271223   3.391   5.881   2.493 -1.2887 -2.7279 -0.0853
16578TIP3   OH271224   0.676   0.722  11.297  0.3203 -0.1036 -0.3590
16578TIP3    H171225   0.731   0.745  11.372 -1.5666 -0.2742  1.1598
16578TIP3    H271226   0.658   0.629  11.309 -0.8674  0.1049 -0.4064
16579TIP3   OH271227   4.051   3.080  11.185 -0.8231 -0.4896 -0.1025
16579TIP3    H171228   3.993   3.047  11.254  0.3358  1.1084  1.7574
16579TIP3    H271229   3.999   3.147  11.141 -0.9204 -0.0864  0.5989
16580TIP3   OH271230   4.841   1.182   4.216  0.4075 -0.7583 -0.0383
16580TIP3    H171231   4.815   1.188   4.124  0.3536  1.7438  0.0818
16580TIP3    H271232   4.764   1.146   4.260  0.1385 -1.1860 -0.8317
16581TIP3   OH271233   1.721   2.600   2.967 -0.2841 -0.2574 -0.3731
16581TIP3    H171234   1.671   2.552   3.034 -3.7156  0.8596 -1.9196
16581TIP3    H271235   1.780   2.656   3.018 -1.1838 -1.0346  1.6488
16582TIP3   OH271236   1.007   5.749   1.071 -0.1675  0.7682 -0.6840
16582TIP3    H171237   1.003   5.809   1.146  0.4615  1.1240 -0.9185
16582TIP3    H271238   1.009   5.662   1.110  1.4533  0.9785 -0.1985
16583TIP3   OH271239   4.937   6.714  13.803 -0.2889  0.4745 -0.3132
16583TIP3    H171240   4.950   6.752  13.716  1.0928  0.5741 -0.0868
16583TIP3    H271241   4.892   6.631  13.787  1.3418 -0.2745 -1.2964
16584TIP3   OH271242   4.869   1.904   2.171  0.2422 -0.4317  0.0146
16584TIP3    H171243   4.916   1.853   2.237  0.5833 -0.8617 -0.5592
16584TIP3    H271244   4.880   1.995   2.199 -0.5613 -0.6688  1.1720
16585TIP3   OH271245   2.363   4.936   0.593 -0.1337 -0.5057 -0.5209
16585TIP3    H171246   2.436   4.992   0.568  0.1412 -1.7618 -2.8239
16585TIP3    H271247   2.292   4.961   0.535 -0.9193 -0.6629  0.3384
16586TIP3   OH271248   5.405   4.593   5.298  0.4745 -0.3211 -0.1762
16586TIP3    H171249   5.358   4.527   5.348  0.4788  0.0323  0.3075
16586TIP3    H271250   5.496   4.564   5.299  0.5024 -0.2244  0.1749
16587TIP3   OH271251   4.938   6.101   1.091  0.2401 -0.1953  0.2771
16587TIP3    H171252   4.860   6.065   1.050  0.2029 -0.2680  0.4116
16587TIP3    H271253   4.963   6.037   1.157 -0.1519  0.2870  0.9028
16588TIP3   OH271254   4.277   5.435   4.894  0.2380  0.3068 -0.3725
16588TIP3    H171255   4.241   5.362   4.844  1.4917 -0.1147 -0.7008
16588TIP3    H271256   4.206   5.462   4.953 -0.0860 -1.4821  0.1012
16589TIP3   OH271257   1.706   4.043  13.662  0.4735  0.2406 -0.1951
16589TIP3    H171258   1.796   4.057  13.691  0.3581 -1.3868  1.0974
16589TIP3    H271259   1.653   4.097  13.721  0.5429  0.6509 -0.5029
16590TIP3   OH271260   4.814   3.221   4.455 -0.1751 -0.1235 -0.0356
16590TIP3    H171261   4.773   3.300   4.489 -1.1697 -1.7821  3.0558
16590TIP3    H271262   4.876   3.195   4.523  2.0760 -0.6673 -2.1505
16591TIP3   OH271263   5.443   0.330   3.904  0.6166  0.0970  0.1754
16591TIP3    H171264   5.439   0.327   3.808 -2.2795  1.9461  0.1287
16591TIP3    H271265   5.364   0.285   3.933  1.8344 -1.1360  1.8042
16592TIP3   OH271266   4.800   2.416  10.695 -0.2983  0.0365 -0.1675
16592TIP3    H171267   4.876   2.358  10.703 -0.8653 -0.5991  0.8763
16592TIP3    H271268   4.816   2.486  10.758 -0.8752 -0.4621  0.5493
16593TIP3   OH271269   2.326   0.625  10.933 -0.0951 -0.0124  0.1092
16593TIP3    H171270   2.338   0.716  10.906 -2.0015 -0.1233 -1.3300
16593TIP3    H271271   2.269   0.587  10.867  0.4910 -2.2394  0.7735
16594TIP3   OH271272   0.134   6.833   3.713  0.0762  0.2794  0.4639
16594TIP3    H171273   0.227   6.851   3.696  0.4164 -1.9532 -0.3190
16594TIP3    H271274   0.122   6.854   3.805  1.0596  1.6790  0.3099
16595TIP3   OH271275   4.202   0.481   0.451  0.1799 -0.1191  0.3159
16595TIP3    H171276   4.183   0.542   0.379 -2.0395 -1.2541 -0.1806
16595TIP3    H271277   4.168   0.397   0.419 -1.3979 -0.5454  2.8987
16596TIP3   OH271278   1.505   1.289   5.051 -0.1345 -0.3372  0.2458
16596TIP3    H171279   1.413   1.266   5.057  0.4796 -2.7657  1.5119
16596TIP3    H271280   1.506   1.385   5.046 -2.7170 -0.2974 -0.7528
16597TIP3   OH271281   4.333   3.843  15.136  0.3572  0.2374 -0.2233
16597TIP3    H171282   4.409   3.828  15.079  1.3063  0.8555  0.8463
16597TIP3    H271283   4.344   3.781  15.208 -1.5536 -1.4989 -1.3277
16598TIP3   OH271284   5.866   0.881  16.596 -0.2372  0.0835 -0.0647
16598TIP3    H171285   5.938   0.847  16.542  0.6633  1.9188 -0.0710
16598TIP3    H271286   5.900   0.878  16.685  0.0319  1.3620 -0.1149
16599TIP3   OH271287   0.360   5.991  11.112  0.0534  0.0373  0.0434
16599TIP3    H171288   0.339   6.046  11.037 -1.6787 -1.2742 -0.5052
16599TIP3    H271289   0.439   5.944  11.086 -0.0382  0.2395 -0.6163
16600TIP3   OH271290   3.143   0.347   4.870 -0.0218 -0.1952  0.6426
16600TIP3    H171291   3.128   0.439   4.894 -1.6540 -0.3895  0.4663
16600TIP3    H271292   3.212   0.351   4.803 -1.1701  1.0691 -0.5466
16601TIP3   OH271293   2.872   1.442   1.398 -0.0569 -0.2485  0.3471
16601TIP3    H171294   2.782   1.408   1.403  0.0488 -0.3501  2.0373
16601TIP3    H271295   2.870   1.524   1.446  1.2260 -1.3905  2.4945
16602TIP3   OH271296   3.157   6.609  15.324 -0.1693  0.0029  0.0242
16602TIP3    H171297   3.082   6.668  15.319 -0.5843 -0.4672  0.6034
16602TIP3    H271298   3.230   6.660  15.290 -0.5691  0.7719  0.3023
16603TIP3   OH271299   1.261   5.350   3.020 -0.7468  0.6994 -0.3587
16603TIP3    H171300   1.270   5.398   3.102 -0.6573  1.1850 -0.6486
16603TIP3    H271301   1.320   5.275   3.029 -3.5175 -1.4542  1.5721
16604TIP3   OH271302   1.863   0.757   0.343 -0.0985  0.0306  0.2724
16604TIP3    H171303   1.823   0.821   0.284  0.3126  0.9153  0.9295
16604TIP3    H271304   1.956   0.759   0.322 -0.1176 -0.5664  0.1076
16605TIP3   OH271305   4.849   5.855  14.615 -0.2212  0.4799 -0.0883
16605TIP3    H171306   4.885   5.904  14.689  0.2592  0.0853 -0.0533
16605TIP3    H271307   4.871   5.763  14.634  0.0750  0.3921 -0.8129
16606TIP3   OH271308   2.606   1.353  12.077  0.3517 -0.2701  0.4515
16606TIP3    H171309   2.554   1.351  11.997  0.2755 -0.5804  0.5078
16606TIP3    H271310   2.694   1.325  12.050  0.6301  0.7261  0.2629
16607TIP3   OH271311   3.883   6.436  13.018  0.2061  0.2504 -0.8260
16607TIP3    H171312   3.861   6.527  13.033 -0.6691  0.5029 -3.2793
16607TIP3    H271313   3.806   6.387  13.046  1.3717 -0.0336  2.3607
16608TIP3   OH271314   6.327   3.377   1.260  0.2311  0.4598  0.6856
16608TIP3    H171315   6.407   3.415   1.222  0.2246  1.3013  1.4656
16608TIP3    H271316   6.318   3.292   1.217  1.4343  0.4407  0.4235
16609TIP3   OH271317   2.960   1.572   0.577  0.0495  0.3129  0.6495
16609TIP3    H171318   3.028   1.506   0.563  1.1407  1.7854 -1.4421
16609TIP3    H271319   2.883   1.537   0.532  0.5215  0.2702 -0.1504
16610TIP3   OH271320   3.667   4.300   0.981  0.5859 -0.5225  0.0451
16610TIP3    H171321   3.616   4.248   1.043  0.3515 -1.4407 -0.8917
16610TIP3    H271322   3.643   4.390   1.000 -2.8587 -0.9352 -1.5528
16611TIP3   OH271323   4.205   3.924   5.095  0.3417 -0.6570  0.3644
16611TIP3    H171324   4.170   4.011   5.075  1.2179 -0.7346 -1.6938
16611TIP3    H271325   4.134   3.864   5.072  1.1278 -0.7051 -2.2531
16612TIP3   OH271326   4.637   5.599  15.102  0.0187 -0.0451 -0.3530
16612TIP3    H171327   4.596   5.657  15.166  1.8334  0.2360  0.6355
16612TIP3    H271328   4.659   5.520  15.152  2.5918  0.6561 -0.2101
16613TIP3   OH271329   1.118   0.084   4.248  0.0326 -0.6519  0.2969
16613TIP3    H171330   1.172   0.012   4.281  1.8975  0.3024 -0.5284
16613TIP3    H271331   1.125   0.078   4.153  1.7249  1.6142  0.1918
16614TIP3   OH271332   2.855   6.078   4.056  0.4137  0.3746 -0.2913
16614TIP3    H171333   2.791   6.009   4.042  0.1050  0.1729  1.8621
16614TIP3    H271334   2.939   6.038   4.031 -0.0232 -0.0387 -1.1400
16615TIP3   OH271335   3.436   0.452   1.521 -0.0686 -0.2057  0.2296
16615TIP3    H171336   3.341   0.443   1.524 -0.2588  1.5754  1.2197
16615TIP3    H271337   3.463   0.458   1.612  0.9366 -0.2742 -0.0521
16616TIP3   OH271338   2.109   4.190   3.231 -0.1410 -0.4671 -0.1288
16616TIP3    H171339   2.066   4.136   3.165  0.7586 -1.1267 -0.1823
16616TIP3    H271340   2.039   4.211   3.293 -0.8592 -0.3592 -0.9392
16617TIP3   OH271341   3.746   5.463   0.668  0.0527  0.1947 -0.1049
16617TIP3    H171342   3.655   5.493   0.670  0.3694  1.2904 -1.1117
16617TIP3    H271343   3.762   5.429   0.756 -0.7587  1.7014  0.6559
16618TIP3   OH271344   3.771   6.702  15.690 -0.0011 -0.0988 -0.0871
16618TIP3    H171345   3.738   6.613  15.680  3.0018 -1.3528 -0.0222
16618TIP3    H271346   3.790   6.710  15.783 -1.7130  1.2574  0.1945
16619TIP3   OH271347   3.694   2.693  12.084  0.3680  0.3371  0.1353
16619TIP3    H171348   3.731   2.730  12.005  0.9916  1.2798  0.8441
16619TIP3    H271349   3.754   2.622  12.108 -0.0717 -0.2539 -0.4654
16620TIP3   OH271350   4.287   5.343   3.573 -0.1911 -0.0397  0.1466
16620TIP3    H171351   4.208   5.362   3.624  0.4043  2.0601  0.3903
16620TIP3    H271352   4.324   5.265   3.615 -0.7714  0.4630  1.6662
16621TIP3   OH271353   3.932   0.492  15.811  0.1873 -0.4866  0.0227
16621TIP3    H171354   4.021   0.476  15.779  0.7213  1.5078  0.4065
16621TIP3    H271355   3.888   0.535  15.738 -0.1207 -0.4035  0.2554
16622TIP3   OH271356   2.258   1.357  14.700 -1.0318 -0.0995 -0.4167
16622TIP3    H171357   2.262   1.431  14.761  0.1373 -0.8751  0.5001
16622TIP3    H271358   2.165   1.344  14.683 -1.3296  0.6185  0.6120
16623TIP3   OH271359   4.041   6.758   2.441  0.0089  0.0731  0.4686
16623TIP3    H171360   4.106   6.765   2.370 -0.7492 -0.3970 -0.2969
16623TIP3    H271361   3.984   6.833   2.427 -0.5635 -0.4183  0.1374
16624TIP3   OH271362   3.165   5.085  14.735 -0.0869  0.2976  0.0673
16624TIP3    H171363   3.207   5.167  14.710 -1.0615  1.0322  0.7804
16624TIP3    H271364   3.227   5.017  14.708  1.1523  1.3007  0.2916
16625TIP3   OH271365   6.364   6.552   5.131 -0.4193 -0.2516 -0.2591
16625TIP3    H171366   6.283   6.596   5.105 -0.5512  0.4378  1.1782
16625TIP3    H271367   6.356   6.463   5.097 -1.2629  0.1397 -1.1137
16626TIP3   OH271368   4.655   4.455  16.746  0.2400  0.0608 -0.0937
16626TIP3    H171369   4.704   4.535  16.767  0.2761 -0.3397  1.4611
16626TIP3    H271370   4.700   4.386  16.795  1.3706 -1.3143 -2.8345
16627TIP3   OH271371   6.241   2.890  15.469  0.4892 -0.2794  0.3914
16627TIP3    H171372   6.213   2.977  15.442  1.6151  0.2400  0.8386
16627TIP3    H271373   6.159   2.841  15.481 -0.1221  0.2349 -1.3639
16628TIP3   OH271374   4.867   0.694  13.510 -0.1684 -0.3985  0.6260
16628TIP3    H171375   4.919   0.773  13.504 -0.7005 -0.1506 -2.4601
16628TIP3    H271376   4.930   0.623  13.498 -0.1619 -0.2289 -0.4173
16629TIP3   OH271377   2.992   0.875   0.943  0.4144  0.1460  0.1209
16629TIP3    H171378   2.965   0.935   1.013  1.3852  0.1790  0.4890
16629TIP3    H271379   3.020   0.933   0.872 -1.8624  0.1261 -0.8639
16630TIP3   OH271380   4.398   6.336   2.069 -0.3573 -0.0682 -0.0826
16630TIP3    H171381   4.364   6.274   2.134 -1.3613  1.3265  0.7671
16630TIP3    H271382   4.448   6.399   2.120 -0.1327  0.3574 -0.8205
16631TIP3   OH271383   3.368   4.591   2.223 -0.2968  0.7215  0.0762
16631TIP3    H171384   3.440   4.565   2.281 -1.1835  0.9402  1.3078
16631TIP3    H271385   3.387   4.545   2.141  1.6501  1.3634  0.0988
16632TIP3   OH271386   3.547   3.213  11.157 -0.2486  0.4973  0.1743
16632TIP3    H171387   3.592   3.129  11.171 -0.1620  0.4622 -0.2857
16632TIP3    H271388   3.604   3.278  11.200 -0.5686  0.2651  0.9573
16633TIP3   OH271389   2.626   5.754   5.117  1.0696 -0.1085 -0.0738
16633TIP3    H171390   2.632   5.799   5.201 -1.6257  0.6485 -0.2025
16633TIP3    H271391   2.625   5.824   5.052  0.3789 -0.5318 -0.5311
16634TIP3   OH271392   5.399   0.673   5.033 -0.4950 -0.7438 -0.1313
16634TIP3    H171393   5.393   0.674   5.129  0.6559 -0.2982 -0.0444
16634TIP3    H271394   5.489   0.647   5.015 -0.1159  1.0451 -1.0473
16635TIP3   OH271395   6.280   4.455   0.194 -0.0957 -0.4809 -0.3721
16635TIP3    H171396   6.286   4.445   0.099 -0.6445  2.0584 -0.7449
16635TIP3    H271397   6.186   4.450   0.213 -0.0552 -0.1692 -0.0799
16636TIP3   OH271398   5.165   3.949  13.659 -0.2942 -0.7892 -0.6253
16636TIP3    H171399   5.185   3.903  13.740  0.7949 -1.2505 -1.1350
16636TIP3    H271400   5.109   3.888  13.611  1.6619 -1.9348 -1.5766
16637TIP3   OH271401   4.446   5.691   4.029  0.3391 -0.2306  0.1221
16637TIP3    H171402   4.375   5.754   4.038 -0.5431 -0.9684 -1.3953
16637TIP3    H271403   4.406   5.606   4.049  1.4819 -0.4052  2.0383
16638TIP3   OH271404   4.075   0.867  11.864 -0.3768 -0.1841 -0.6022
16638TIP3    H171405   4.003   0.920  11.831 -0.2679  0.0886 -0.4115
16638TIP3    H271406   4.036   0.781  11.882 -1.3001  0.6571  1.9417
16639TIP3   OH271407   4.387   2.013  14.746 -0.0891  0.0505  0.1630
16639TIP3    H171408   4.371   2.013  14.841 -0.3314  0.3893  0.1260
16639TIP3    H271409   4.336   1.938  14.714  1.3328 -1.0982  0.5038
16640TIP3   OH271410   0.817   1.799  15.801  0.1340 -0.1897  0.4152
16640TIP3    H171411   0.742   1.855  15.779  0.3817 -0.1234 -0.2980
16640TIP3    H271412   0.832   1.814  15.895 -1.6275 -1.2925  0.9060
16641TIP3   OH271413   6.838   5.992   0.855  0.5167 -0.4567  0.2666
16641TIP3    H171414   6.744   5.986   0.866  0.6014 -0.0760  1.2845
16641TIP3    H271415   6.851   6.075   0.808  0.4377  0.4447  1.7681
16642TIP3   OH271416   0.564   6.779  13.749  0.0799  0.0242 -0.0272
16642TIP3    H171417   0.552   6.874  13.744 -1.7756 -0.1022  1.3347
16642TIP3    H271418   0.613   6.758  13.669 -1.8685  1.7773 -1.8356
16643TIP3   OH271419   0.069   6.069  14.827  0.7215  0.1816 -0.1230
16643TIP3    H171420  -0.027   6.076  14.821  0.4952 -1.2766  1.3407
16643TIP3    H271421   0.097   6.060  14.736 -0.6093 -0.2415 -0.5231
16644TIP3   OH271422   5.970   4.572  11.117 -0.7717 -0.0405 -0.3444
16644TIP3    H171423   5.941   4.645  11.062 -1.8417 -0.7047 -0.6714
16644TIP3    H271424   5.986   4.612  11.203  0.5362  0.9357 -0.9969
16645TIP3   OH271425   0.143   1.075   4.771 -0.1660 -0.3917 -0.7542
16645TIP3    H171426   0.090   1.145   4.811 -0.0936 -0.8314  0.1315
16645TIP3    H271427   0.095   0.994   4.792 -1.0248 -0.5381 -2.9821
16646TIP3   OH271428   3.218   0.437  15.875  0.3578 -0.4964  0.2305
16646TIP3    H171429   3.308   0.411  15.853 -0.3192 -2.9319 -0.0199
16646TIP3    H271430   3.171   0.354  15.884 -2.2617  0.6991 -1.2341
16647TIP3   OH271431   4.544   5.180  14.878  0.2825  0.8445 -0.2958
16647TIP3    H171432   4.606   5.219  14.940  0.7807  0.5285 -0.5891
16647TIP3    H271433   4.596   5.115  14.831 -0.6327 -0.5147  0.5095
16648TIP3   OH271434   6.802   0.806   4.575  0.6671 -0.1090  0.2438
16648TIP3    H171435   6.709   0.790   4.587 -0.0116  1.1884 -2.4450
16648TIP3    H271436   6.835   0.824   4.663 -2.1520  1.8911  1.0280
16649TIP3   OH271437   3.952   4.689   4.059  0.0552  0.1964  0.0335
16649TIP3    H171438   4.036   4.697   4.013 -0.0103  1.2103  0.0745
16649TIP3    H271439   3.970   4.724   4.147 -0.3432  0.1742  0.1264
16650TIP3   OH271440   0.136   0.229   4.128  0.8249 -0.1287  0.1678
16650TIP3    H171441   0.228   0.222   4.153  0.6345 -0.2406  0.8590
16650TIP3    H271442   0.129   0.313   4.084  1.4295 -0.4986 -0.6612
16651TIP3   OH271443   0.250   0.732   0.150 -0.2165 -0.5724 -0.1061
16651TIP3    H171444   0.221   0.729   0.241  0.8772 -2.2638  0.2422
16651TIP3    H271445   0.322   0.669   0.146 -0.0366 -0.3057 -2.0812
16652TIP3   OH271446   6.123   3.038  13.069  0.0367  0.1006 -0.1991
16652TIP3    H171447   6.144   3.008  12.980 -0.9211 -0.4760 -0.2363
16652TIP3    H271448   6.092   2.960  13.114 -1.9377  0.8756 -0.1317
16653TIP3   OH271449   3.513   2.125   0.391 -0.2711  0.2610 -0.6320
16653TIP3    H171450   3.439   2.101   0.446  0.6566 -0.5139  0.3203
16653TIP3    H271451   3.547   2.206   0.431 -1.8054  1.8113 -2.2894
16654TIP3   OH271452   2.507   5.074   5.056 -0.0257  0.2801  0.4152
16654TIP3    H171453   2.536   5.147   5.110  1.3943 -0.1365  0.2571
16654TIP3    H271454   2.579   5.011   5.060  0.4849  0.5300 -2.5038
16655TIP3   OH271455   5.113   0.747   0.108  0.2414 -0.1313  0.1216
16655TIP3    H171456   5.197   0.783   0.081 -0.2177  1.7060  0.9155
16655TIP3    H271457   5.098   0.673   0.050  1.3376  0.9120 -1.5784
16656TIP3   OH271458   6.667   4.469  15.211  0.2808  0.1505  0.3735
16656TIP3    H171459   6.692   4.400  15.272 -1.1873 -0.4497  0.3367
16656TIP3    H271460   6.719   4.452  15.132 -0.7647 -1.5297  0.0049
16657TIP3   OH271461   6.504   4.615  14.446 -0.4137  0.4789 -0.5302
16657TIP3    H171462   6.458   4.536  14.418 -0.5271  0.8751 -1.4816
16657TIP3    H271463   6.450   4.652  14.515  0.3089 -0.9824  0.8754
16658TIP3   OH271464   5.583   0.736  14.479 -0.4565 -0.2591 -0.1649
16658TIP3    H171465   5.625   0.764  14.560  0.0249 -2.1605  0.2882
16658TIP3    H271466   5.651   0.747  14.412  0.3746 -2.0366  0.3328
16659TIP3   OH271467   6.018   4.204  14.769  0.2673  0.1530  0.4145
16659TIP3    H171468   6.006   4.219  14.862  1.9833  0.9690  0.5357
16659TIP3    H271469   6.047   4.288  14.734 -1.0144  0.0494 -1.0060
16660TIP3   OH271470   5.948   6.260  16.511 -0.1903 -0.1686  0.3982
16660TIP3    H171471   5.978   6.190  16.569  1.4108 -0.2330 -0.4398
16660TIP3    H271472   5.872   6.225  16.467  1.4700 -2.0379 -1.1556
16661TIP3   OH271473   3.075   4.788  11.467 -0.3035  0.7747  0.2526
16661TIP3    H171474   3.087   4.719  11.532  0.0564 -1.1267 -1.6979
16661TIP3    H271475   2.986   4.775  11.435  0.4420 -0.1955 -1.5725
16662TIP3   OH271476   4.201   0.063   4.975 -0.2460 -0.3802 -0.3530
16662TIP3    H171477   4.145   0.060   5.053 -0.3142 -0.3745 -0.4017
16662TIP3    H271478   4.190  -0.023   4.935  1.7948 -1.3809  1.0279
16663TIP3   OH271479   1.981   1.745  13.020 -0.4035  0.0590  0.2274
16663TIP3    H171480   1.945   1.832  13.001  1.0047  0.3980 -1.1783
16663TIP3    H271481   1.988   1.742  13.115 -2.2313  0.7170  0.4236
16664TIP3   OH271482   4.755   0.090   5.319 -0.0484  0.0939 -0.0334
16664TIP3    H171483   4.812   0.091   5.396  0.3349 -0.0980 -0.3122
16664TIP3    H271484   4.714   0.176   5.318 -2.9619 -1.0342  2.5328
16665TIP3   OH271485   1.602   2.790   1.838  0.4549 -0.1926 -0.1520
16665TIP3    H171486   1.607   2.881   1.868 -0.8522  0.4752 -1.8176
16665TIP3    H271487   1.692   2.765   1.820  0.7128  1.2192 -0.8885
16666TIP3   OH271488   2.208   0.702  15.700 -0.6277  0.5579  0.1612
16666TIP3    H171489   2.274   0.723  15.634 -1.6018 -0.2756 -1.1322
16666TIP3    H271490   2.157   0.782  15.709  0.4900  1.1885  1.1253
16667TIP3   OH271491   0.376   6.288   3.759 -0.4852 -0.3330  0.0502
16667TIP3    H171492   0.312   6.233   3.804  0.8878 -2.2621 -0.2231
16667TIP3    H271493   0.439   6.312   3.826 -0.2265 -0.4075 -0.1661
16668TIP3   OH271494   3.214   6.097   1.237  0.2154  0.2264  0.2256
16668TIP3    H171495   3.244   6.155   1.306  2.0063  2.2137 -2.0598
16668TIP3    H271496   3.162   6.152   1.178  1.2937 -0.5849 -1.5993
16669TIP3   OH271497   0.430   6.152   4.484  0.0010  0.1261 -0.2159
16669TIP3    H171498   0.411   6.239   4.450  1.6721  0.6788  0.1674
16669TIP3    H271499   0.346   6.106   4.480 -0.4561  0.9809 -2.6088
16670TIP3   OH271500   6.614   3.249  10.306  0.1227  0.0503 -0.1902
16670TIP3    H171501   6.565   3.168  10.293  0.8424 -0.3632 -0.3372
16670TIP3    H271502   6.686   3.225  10.364  0.3158  0.5984 -0.1980
16671TIP3   OH271503   4.682   2.592   3.690 -0.1671  0.2766 -0.0501
16671TIP3    H171504   4.657   2.528   3.757  0.7779  0.8851  0.9106
16671TIP3    H271505   4.657   2.676   3.727  1.4159  0.7267  0.0738
16672TIP3   OH271506   0.738   0.048  12.734  0.3998 -0.0851 -0.8346
16672TIP3    H171507   0.720   0.099  12.655 -0.5661  0.9379  0.0110
16672TIP3    H271508   0.655   0.006  12.755  0.9606 -1.3191 -1.0166
16673TIP3   OH271509   5.561   1.299   3.207 -0.1734 -0.0828 -0.1317
16673TIP3    H171510   5.568   1.206   3.228  1.9547  0.3620  1.5289
16673TIP3    H271511   5.632   1.316   3.145 -1.4214  0.2170 -1.5443
16674TIP3   OH271512   2.986   2.738   3.599 -0.2461 -0.0804  0.1550
16674TIP3    H171513   2.963   2.658   3.553 -1.3939 -0.3784  1.2095
16674TIP3    H271514   3.033   2.791   3.533  1.5705 -2.0458 -0.2335
16675TIP3   OH271515   4.671   1.938   3.120 -0.0503  0.0445  0.2829
16675TIP3    H171516   4.707   1.881   3.052 -0.9578 -0.3434  0.1222
16675TIP3    H271517   4.684   2.027   3.087  2.8526  0.0946  1.2271
16676TIP3   OH271518   2.526   3.435   2.101 -0.3947  0.0846  0.0169
16676TIP3    H171519   2.488   3.521   2.122 -1.1774 -0.0430 -0.8096
16676TIP3    H271520   2.530   3.434   2.005  1.0916 -0.1839  0.0581
16677TIP3   OH271521   1.783   0.146   0.381 -0.3026  0.3465 -0.2378
16677TIP3    H171522   1.873   0.127   0.356 -0.2153 -1.2579  1.1144
16677TIP3    H271523   1.791   0.210   0.453 -0.1869 -0.3581  0.3855
16678TIP3   OH271524   3.100   6.374   2.597 -0.5631 -0.2814 -0.1839
16678TIP3    H171525   3.115   6.345   2.507  4.6295 -1.6209  0.7637
16678TIP3    H271526   3.137   6.463   2.599  0.5942 -0.7566  0.8034
16679TIP3   OH271527   6.003   4.050  13.964 -0.4198 -0.0016 -0.4735
16679TIP3    H171528   6.080   3.998  13.985 -0.2783  0.3637 -0.0915
16679TIP3    H271529   5.959   4.000  13.895  0.3902  0.0103 -1.0176
16680TIP3   OH271530   0.995   3.880  11.526  0.2562  0.5223 -0.2519
16680TIP3    H171531   0.957   3.854  11.609  0.7346  1.2939  0.2168
16680TIP3    H271532   0.929   3.855  11.461 -0.6468  1.0006  0.4594
16681TIP3   OH271533   5.485   2.468   4.106 -0.1828  0.2838  0.1757
16681TIP3    H171534   5.515   2.379   4.126 -0.0999  0.2297 -0.1814
16681TIP3    H271535   5.390   2.460   4.102 -0.2146  0.3337  0.7214
16682TIP3   OH271536   5.888   4.522  16.881  0.1752  0.1036 -0.1133
16682TIP3    H171537   5.923   4.610  16.869  0.3441  0.1074  0.3635
16682TIP3    H271538   5.908   4.501  16.972 -0.0316 -0.3552 -0.1712
16683TIP3   OH271539   3.723   6.642  13.957 -0.4434 -0.2390  0.4381
16683TIP3    H171540   3.671   6.722  13.950 -0.6313 -0.4256 -0.3400
16683TIP3    H271541   3.808   6.665  13.919  0.0596  0.0552  1.6743
16684TIP3   OH271542   6.466   5.288   2.748  0.2923  0.6760 -0.7360
16684TIP3    H171543   6.387   5.341   2.745  1.3524  2.3510 -0.7069
16684TIP3    H271544   6.530   5.337   2.695  0.3446 -2.4274 -3.8541
16685TIP3   OH271545   0.614   2.083   5.223  0.3897 -0.0581  0.5270
16685TIP3    H171546   0.526   2.119   5.230 -0.0393 -0.5859 -1.3902
16685TIP3    H271547   0.669   2.158   5.199 -0.3058 -0.3351 -2.3207
16686TIP3   OH271548   0.567   1.255   0.155 -0.0278  0.0830 -0.0521
16686TIP3    H171549   0.622   1.234   0.080  1.6276 -0.9216  1.3765
16686TIP3    H271550   0.520   1.173   0.173  1.1318 -0.3240  1.2315
16687TIP3   OH271551   1.526   2.303   2.547 -0.2317  0.4652  0.0217
16687TIP3    H171552   1.556   2.249   2.620  1.5024 -0.7980 -1.5188
16687TIP3    H271553   1.498   2.241   2.480  1.9221  1.3604 -1.8497
16688TIP3   OH271554   1.363   2.125   5.533  0.0365 -0.1359 -0.3119
16688TIP3    H171555   1.286   2.073   5.556  0.7892 -2.1618 -1.9706
16688TIP3    H271556   1.381   2.102   5.442  1.9619  1.1202 -0.3172
16689TIP3   OH271557   2.575   2.612  11.932 -1.3603 -0.2940  0.0781
16689TIP3    H171558   2.616   2.636  11.849  0.4385 -1.2813  0.6291
16689TIP3    H271559   2.495   2.665  11.936 -0.0590  1.8694 -0.9892
16690TIP3   OH271560   1.677   6.758   0.349  0.4321 -0.1144  0.2575
16690TIP3    H171561   1.710   6.847   0.366 -0.9998  0.4289  0.3600
16690TIP3    H271562   1.600   6.751   0.405 -1.0000 -0.4506 -1.6481
16691TIP3   OH271563   4.702   1.198   3.391 -0.0824 -0.5436  0.0749
16691TIP3    H171564   4.660   1.128   3.341  0.9118 -1.3163  0.2747
16691TIP3    H271565   4.734   1.154   3.470  1.7027 -0.1631 -0.3919
16692TIP3   OH271566   4.945   5.214  14.294 -0.2810  0.7952 -0.1770
16692TIP3    H171567   4.912   5.185  14.208  1.0743  0.2820 -0.5419
16692TIP3    H271568   4.929   5.140  14.352 -0.1667  0.7110 -0.2523
16693TIP3   OH271569   3.672   5.914   1.944  0.0589  0.1141  0.0821
16693TIP3    H171570   3.659   5.978   2.013  0.4258 -0.7312  0.9594
16693TIP3    H271571   3.659   5.963   1.863 -0.9453  0.9888  0.7519
16694TIP3   OH271572   0.019   4.067  12.718  0.2795 -0.0861  0.1195
16694TIP3    H171573  -0.068   4.029  12.707 -0.6362  2.2292 -1.5073
16694TIP3    H271574   0.019   4.099  12.808 -0.4025 -0.4563  0.2609
16695TIP3   OH271575   2.697   0.338  13.148 -0.0972  0.2024  0.4495
16695TIP3    H171576   2.710   0.313  13.056  1.6092  0.3926  0.5928
16695TIP3    H271577   2.785   0.359  13.179 -0.6323  0.0567  2.1646
16696TIP3   OH271578   6.545   6.845  11.601 -0.0273 -0.6967  0.1900
16696TIP3    H171579   6.560   6.768  11.546  1.9189  0.8599 -1.6844
16696TIP3    H271580   6.624   6.851  11.655 -1.3407 -1.4479  2.2967
16697TIP3   OH271581   6.676   0.303   5.727  0.0216 -0.2820  0.0443
16697TIP3    H171582   6.599   0.252   5.699  0.0147 -0.3388  0.1675
16697TIP3    H271583   6.653   0.336   5.814  0.1948 -0.4185  0.1413
16698TIP3   OH271584   0.059   1.941  11.586 -0.0597 -0.6833  0.0082
16698TIP3    H171585   0.073   1.976  11.674  1.1469 -0.5321 -0.2283
16698TIP3    H271586  -0.010   1.875  11.597  0.1117 -0.6976  1.0663
16699TIP3   OH271587   5.263   3.016  16.122  0.1481 -0.2726 -0.5241
16699TIP3    H171588   5.303   3.090  16.168  0.7040 -1.2849  0.7063
16699TIP3    H271589   5.292   3.024  16.032  1.9819 -0.1598  0.0344
16700TIP3   OH271590   5.193   6.490   0.397  1.1145  0.1143 -0.2103
16700TIP3    H171591   5.193   6.409   0.346 -1.4474 -1.1067  1.5202
16700TIP3    H271592   5.258   6.475   0.466 -1.4960 -1.9645  2.0212
16701TIP3   OH271593   0.698   4.204  12.782 -0.4278  0.2680  0.2078
16701TIP3    H171594   0.706   4.162  12.868 -1.1826  2.3077  1.3480
16701TIP3    H271595   0.736   4.291  12.794 -2.4173  1.3646 -0.9027
16702TIP3   OH271596   4.947   5.666  15.160  0.0512 -0.3248 -0.1599
16702TIP3    H171597   4.903   5.642  15.242 -0.0443  1.4084  0.3418
16702TIP3    H271598   4.886   5.728  15.118  1.2328  0.8213 -0.2494
16703TIP3   OH271599   1.572   4.918   5.348 -0.6266  0.8271  0.2318
16703TIP3    H171600   1.573   5.010   5.373  0.2348  0.3185  2.3576
16703TIP3    H271601   1.661   4.901   5.315  0.1663  0.2301  2.4193
16704TIP3   OH271602   4.069   2.737   1.793  0.8196  0.7115  0.2400
16704TIP3    H171603   4.108   2.721   1.706  0.5552  0.4196  0.1741
16704TIP3    H271604   3.977   2.756   1.775  0.9186  1.3628  0.4024
16705TIP3   OH271605   1.217   1.739  12.891 -0.1731  0.4380  0.0487
16705TIP3    H171606   1.206   1.811  12.953  1.7094  0.4262  0.4578
16705TIP3    H271607   1.261   1.779  12.816  0.9201 -0.2769  0.2939
16706TIP3   OH271608   1.965   3.095   5.171  0.3861 -0.0155  0.4047
16706TIP3    H171609   1.869   3.097   5.170  0.1640 -1.7909 -3.6608
16706TIP3    H271610   1.987   3.003   5.157  2.7691  0.2479  1.9393
16707TIP3   OH271611   1.618   4.801   1.803 -0.0362 -0.4702 -0.1390
16707TIP3    H171612   1.673   4.744   1.856  0.7191  0.1669 -0.2121
16707TIP3    H271613   1.531   4.761   1.805  0.0154 -0.5532  1.4471
16708TIP3   OH271614   2.562   0.111   2.843 -0.3374 -0.3466  0.3129
16708TIP3    H171615   2.500   0.094   2.772  0.3672  1.9126 -0.9410
16708TIP3    H271616   2.647   0.086   2.808  0.0206  0.7965  0.3456
16709TIP3   OH271617   0.291   0.636  16.483 -0.4363  0.6142  0.7241
16709TIP3    H171618   0.301   0.719  16.529  0.5128  0.9913 -0.1153
16709TIP3    H271619   0.381   0.607  16.467 -0.6818  1.0607 -1.8618
16710TIP3   OH271620   1.489   0.120  14.987 -0.0490 -0.1542  0.4741
16710TIP3    H171621   1.561   0.096  14.928  0.6007 -0.5825  1.4271
16710TIP3    H271622   1.531   0.139  15.070 -0.6151  3.3636  0.1021
16711TIP3   OH271623   1.632   1.207  13.139 -0.1680  0.5687  0.2737
16711TIP3    H171624   1.698   1.162  13.191 -1.4794 -1.7276  0.1078
16711TIP3    H271625   1.624   1.153  13.060 -1.3251  1.5191 -0.2858
16712TIP3   OH271626   3.284   1.928   0.826  0.2629 -0.1166 -0.2646
16712TIP3    H171627   3.294   1.861   0.758 -0.6662  1.3494 -1.9189
16712TIP3    H271628   3.248   1.880   0.901 -0.2624 -1.4982 -1.3506
16713TIP3   OH271629   6.273   3.503   3.940  0.0535  0.3877  0.5932
16713TIP3    H171630   6.252   3.503   3.846  3.0163 -1.5385 -0.1786
16713TIP3    H271631   6.336   3.575   3.951 -2.2345  2.3940  1.7742
16714TIP3   OH271632   2.028   0.672  14.187 -0.3163 -0.1737  0.5736
16714TIP3    H171633   1.950   0.700  14.139  1.0470  0.3658 -1.4352
16714TIP3    H271634   2.060   0.596  14.140 -0.0840 -0.9201  1.8971
16715TIP3   OH271635   2.228   4.762  11.910 -0.2750 -0.2806  0.1874
16715TIP3    H171636   2.157   4.752  11.846  0.3987  0.9303 -0.8097
16715TIP3    H271637   2.297   4.704  11.878 -0.7554 -1.4003  1.1156
16716TIP3   OH271638   5.239   3.389  16.819  0.1121 -0.5274 -0.5398
16716TIP3    H171639   5.217   3.474  16.857  2.4467 -0.1261  0.0531
16716TIP3    H271640   5.175   3.377  16.749 -0.7797  1.3251 -0.1111
16717TIP3   OH271641   2.969   1.282   5.378  0.1136  0.0440  0.3173
16717TIP3    H171642   2.888   1.251   5.339 -0.1154 -0.7861  1.3890
16717TIP3    H271643   3.028   1.297   5.303 -0.5828 -0.6420 -0.3858
16718TIP3   OH271644   5.080   6.804  16.641  0.0687 -0.5825 -0.4092
16718TIP3    H171645   5.162   6.851  16.622 -0.6318 -0.1293 -2.6098
16718TIP3    H271646   5.073   6.807  16.737  2.1389  0.1761 -0.2163
16719TIP3   OH271647   4.263   6.673   2.762 -0.0838  0.2112  0.3193
16719TIP3    H171648   4.221   6.740   2.707 -1.2392 -1.1416 -0.5338
16719TIP3    H271649   4.326   6.632   2.703  0.0627  0.0355  0.6027
16720TIP3   OH271650   0.502   2.494  11.160 -0.0367  0.2120 -0.2056
16720TIP3    H171651   0.433   2.561  11.161 -0.0054  0.3167 -2.2112
16720TIP3    H271652   0.584   2.545  11.160  0.0845  0.0918  1.6907
16721TIP3   OH271653   5.809   5.003   3.162 -0.4904  0.2601  0.2642
16721TIP3    H171654   5.733   5.055   3.136 -0.5073  1.3798  2.3368
16721TIP3    H271655   5.839   5.044   3.243  1.7255 -0.7742  0.0339
16722TIP3   OH271656   3.613   1.764  14.152 -0.7953 -0.4835  0.1705
16722TIP3    H171657   3.602   1.689  14.094 -3.0540 -0.2499  0.1759
16722TIP3    H271658   3.595   1.729  14.240  0.4252 -0.3835  0.4794
16723TIP3   OH271659   2.406   4.565   2.396  0.6037 -0.1431 -0.2422
16723TIP3    H171660   2.378   4.638   2.341 -0.8294 -0.1815  0.3917
16723TIP3    H271661   2.454   4.607   2.468 -0.2944  0.2139  0.1724
16724TIP3   OH271662   0.945   5.416   4.226 -0.1963  0.1692  0.2541
16724TIP3    H171663   0.942   5.500   4.271 -0.7790  0.2673  0.0383
16724TIP3    H271664   1.003   5.362   4.280  0.2557  0.7305  0.3480
16725TIP3   OH271665   6.861   0.476  11.040  0.9624  0.4925 -0.1656
16725TIP3    H171666   6.772   0.446  11.021  1.1540  0.2024 -0.6119
16725TIP3    H271667   6.857   0.504  11.132  0.6754 -0.5546  0.1602
16726TIP3   OH271668   0.464   0.699   5.188  0.1473 -0.1587 -0.2156
16726TIP3    H171669   0.369   0.713   5.179  0.5602  2.7111 -1.2799
16726TIP3    H271670   0.484   0.729   5.276  0.1122 -0.5045 -0.0889
16727TIP3   OH271671   5.467   6.159   1.846  0.1508 -0.1748  0.2134
16727TIP3    H171672   5.525   6.185   1.917 -1.3469 -0.8522  1.7518
16727TIP3    H271673   5.395   6.113   1.889 -0.5847 -1.0258 -1.7977
16728TIP3   OH271674   6.621   2.836  10.896  0.2345 -0.0103 -0.3347
16728TIP3    H171675   6.633   2.770  10.827  3.4791  0.1923 -0.0893
16728TIP3    H271676   6.592   2.785  10.972  2.2268 -1.1844 -0.2823
16729TIP3   OH271677   0.492   1.746   5.538 -0.1281  0.1032  0.6771
16729TIP3    H171678   0.407   1.777   5.569 -1.0712 -1.2651 -0.4457
16729TIP3    H271679   0.488   1.651   5.548  0.7141 -0.1080 -0.7674
16730TIP3   OH271680   0.254   5.645  16.250  0.4747  0.6114 -0.8199
16730TIP3    H171681   0.335   5.620  16.295 -0.2106  1.6272  1.0649
16730TIP3    H271682   0.184   5.611  16.306 -0.4205  1.1550 -1.5865
16731TIP3   OH271683   1.482   1.466  13.694 -0.9315 -0.5865 -0.0052
16731TIP3    H171684   1.470   1.551  13.652  1.0208 -0.5768 -0.6088
16731TIP3    H271685   1.562   1.475  13.746 -0.1592 -2.3199 -0.8065
16732TIP3   OH271686   3.973   0.343  10.890  0.0221 -0.9632  0.4596
16732TIP3    H171687   4.064   0.319  10.869  0.3681 -0.3344  1.1797
16732TIP3    H271688   3.935   0.264  10.926  0.4049 -1.1274  0.5141
16733TIP3   OH271689   2.745   0.148  10.573 -0.3727  0.4521  0.3162
16733TIP3    H171690   2.827   0.182  10.537 -0.8982  0.2638 -1.1553
16733TIP3    H271691   2.678   0.208  10.541 -0.9914 -0.3736  0.0128
16734TIP3   OH271692   5.633   1.922  13.861 -0.8295 -0.5121 -0.0696
16734TIP3    H171693   5.558   1.893  13.912 -0.3922 -0.1718  0.7803
16734TIP3    H271694   5.672   1.842  13.827 -0.8640 -0.7814  0.5115
16735TIP3   OH271695   4.234   5.545  11.514 -0.4146  1.0939 -0.0066
16735TIP3    H171696   4.203   5.455  11.520  1.5486  0.3828 -0.0381
16735TIP3    H271697   4.200   5.576  11.430  0.1270 -0.1239 -0.6963
16736TIP3   OH271698   6.580   3.695   3.635  0.9365  0.3266  0.4636
16736TIP3    H171699   6.592   3.604   3.664  0.4649 -0.0226 -0.4106
16736TIP3    H271700   6.600   3.693   3.541  1.3812  1.2268  0.5236
16737TIP3   OH271701   1.314   4.032  15.128  0.1897  0.0466  0.0823
16737TIP3    H171702   1.341   4.085  15.203  2.3626  0.0094 -0.6047
16737TIP3    H271703   1.261   3.962  15.165  1.5527 -0.1996  1.6401
16738TIP3   OH271704   0.936   3.164   4.850  0.2905  0.1203 -0.3000
16738TIP3    H171705   0.955   3.132   4.762  1.2524  0.4927 -0.2449
16738TIP3    H271706   0.965   3.094   4.908  1.1387  0.5154 -0.2310
16739TIP3   OH271707   4.058   3.061  11.928  0.1140 -0.3862  0.1019
16739TIP3    H171708   3.983   3.114  11.954  0.2056  0.5105 -1.3343
16739TIP3    H271709   4.073   3.003  12.002 -1.6045 -0.1625  0.6716
16740TIP3   OH271710   1.622   6.123   1.581 -0.0177  0.0524  0.0669
16740TIP3    H171711   1.589   6.039   1.613  1.7342  0.4802  3.4453
16740TIP3    H271712   1.717   6.112   1.576  0.1044  1.3435 -1.1402
16741TIP3   OH271713   0.739   1.059  10.228  0.6473 -0.1344 -0.2206
16741TIP3    H171714   0.728   0.966  10.211 -0.4480 -0.0706  0.0422
16741TIP3    H271715   0.796   1.064  10.305 -1.3817 -0.6961  1.3997
16742TIP3   OH271716   6.113   1.793   4.304 -0.2734 -0.7246  0.2558
16742TIP3    H171717   6.034   1.816   4.255 -0.7233 -0.0624  1.2463
16742TIP3    H271718   6.115   1.857   4.376  2.0086  0.2700 -0.5992
16743TIP3   OH271719   4.651   5.111   0.341 -0.0796 -0.0874  0.5786
16743TIP3    H171720   4.562   5.139   0.321 -0.6410 -1.6312  0.7830
16743TIP3    H271721   4.704   5.189   0.327 -1.1552  0.3307 -1.6765
16744TIP3   OH271722   5.674   3.121   0.967  0.4643 -0.3586  0.4149
16744TIP3    H171723   5.703   3.095   0.879 -0.0958  2.2888 -0.6435
16744TIP3    H271724   5.734   3.076   1.026  2.7369  0.0135 -1.4607
16745TIP3   OH271725   2.218   2.738   2.172 -0.1209 -1.0121 -0.2397
16745TIP3    H171726   2.254   2.655   2.143  2.7618  0.3158 -0.8142
16745TIP3    H271727   2.256   2.803   2.113 -0.4908  0.9431  1.5347
16746TIP3   OH271728   5.425   2.181  16.558 -0.1928  0.3495 -0.5433
16746TIP3    H171729   5.474   2.101  16.575  1.8997  1.8451  1.0885
16746TIP3    H271730   5.380   2.200  16.641 -2.2227 -0.0688 -1.4928
16747TIP3   OH271731   1.621   0.422  16.411  0.6772  0.3853  0.1123
16747TIP3    H171732   1.643   0.417  16.318  0.7578 -0.1622  0.1577
16747TIP3    H271733   1.572   0.341  16.428  1.4873  0.0275  0.7642
16748TIP3   OH271734   1.364   1.404  10.811  0.3913  0.5825 -0.5869
16748TIP3    H171735   1.283   1.353  10.819  0.2245  0.7573 -1.1180
16748TIP3    H271736   1.374   1.418  10.717  2.4525 -1.7428 -0.8359
16749TIP3   OH271737   1.188   4.983   1.691  0.2168  0.7040 -0.4056
16749TIP3    H171738   1.157   4.902   1.731  0.4881 -0.2254 -1.9877
16749TIP3    H271739   1.279   4.991   1.721  1.0274 -0.9859 -2.2290
16750TIP3   OH271740   3.549   1.588  16.088 -0.2922  0.4699  0.0394
16750TIP3    H171741   3.500   1.670  16.088 -0.5744  0.3071  0.7919
16750TIP3    H271742   3.578   1.577  16.178 -1.9504 -1.2299  0.4319
16751TIP3   OH271743   5.260   2.074   2.055 -0.1156 -0.0875 -0.5890
16751TIP3    H171744   5.279   2.110   1.968  0.1961 -1.6166 -1.1751
16751TIP3    H271745   5.315   1.997   2.062 -0.7623 -0.4628  0.6449
16752TIP3   OH271746   2.881   2.260   0.497  0.5512  0.3428  0.0989
16752TIP3    H171747   2.856   2.333   0.440  0.0611  0.4224  0.4112
16752TIP3    H271748   2.933   2.301   0.566 -0.2901  0.4957  0.6434
16753TIP3   OH271749   3.751   4.249  14.918 -0.0819  0.2221 -1.0070
16753TIP3    H171750   3.791   4.289  14.995 -0.4539  0.8243 -1.1217
16753TIP3    H271751   3.824   4.213  14.869  0.0531 -1.6736  0.4417
16754TIP3   OH271752   3.890   2.605   2.320 -0.1332 -0.0490  0.6870
16754TIP3    H171753   3.880   2.682   2.263 -0.9578  1.2622  2.4834
16754TIP3    H271754   3.982   2.582   2.314 -0.1565  0.1665 -0.9895
16755TIP3   OH271755   3.251   4.240  16.463  0.1405 -0.2992 -0.5315
16755TIP3    H171756   3.252   4.332  16.436  2.7405  1.5268  4.4702
16755TIP3    H271757   3.167   4.230  16.508  1.0162  0.6567  1.4116
16756TIP3   OH271758   0.079   0.745   3.029 -0.4339  0.4133  0.5292
16756TIP3    H171759   0.121   0.800   3.095  0.5459  1.3418 -0.8200
16756TIP3    H271760   0.009   0.799   2.993 -0.0891  0.4312 -0.1304
16757TIP3   OH271761   4.704   5.340   1.823  0.0483  0.4695  0.1915
16757TIP3    H171762   4.770   5.280   1.789  1.4502  1.3118  1.2653
16757TIP3    H271763   4.730   5.426   1.789 -1.5130  0.6082 -0.7478
16758TIP3   OH271764   3.953   0.490  16.495  0.3772 -0.0423 -0.2645
16758TIP3    H171765   3.894   0.538  16.436 -0.8505 -0.9032  0.2047
16758TIP3    H271766   3.987   0.418  16.441 -0.8724 -0.9259  0.0660
16759TIP3   OH271767   1.031   2.889   2.662 -0.1994 -0.2890 -0.3898
16759TIP3    H171768   1.038   2.898   2.757 -3.2842  0.5759 -0.1149
16759TIP3    H271769   1.004   2.976   2.633 -0.4436 -0.8462 -1.8876
16760TIP3   OH271770   3.009   6.490   5.282  0.0440  0.4717 -0.1229
16760TIP3    H171771   2.942   6.526   5.224  0.0157  2.0797  0.8371
16760TIP3    H271772   3.076   6.559   5.286  0.5054 -0.0221  0.9791
16761TIP3   OH271773   5.243   3.412   1.918 -0.2256 -0.3732  0.3833
16761TIP3    H171774   5.177   3.415   1.848  0.4744  1.2098 -0.2614
16761TIP3    H271775   5.321   3.375   1.876 -0.3877 -1.3082  0.8818
16762TIP3   OH271776   6.067   4.749   5.903  0.2079  0.5189 -0.4375
16762TIP3    H171777   6.099   4.836   5.879 -0.0263  0.2755 -1.6999
16762TIP3    H271778   6.137   4.712   5.957 -0.3612  2.0602  1.4717
16763TIP3   OH271779   5.328   5.743  13.528  0.1317  0.3132 -0.3702
16763TIP3    H171780   5.375   5.700  13.600  1.1106  0.6718 -0.7815
16763TIP3    H271781   5.306   5.672  13.468 -3.2964 -0.5142  1.5730
16764TIP3   OH271782   6.219   0.414  15.685 -0.0241 -0.0068 -0.1500
16764TIP3    H171783   6.182   0.490  15.731  2.1794  0.6322  0.6652
16764TIP3    H271784   6.143   0.372  15.644 -1.7689  0.7228  2.1418
16765TIP3   OH271785   2.075   6.861   4.475  0.0207 -0.0319 -0.1278
16765TIP3    H171786   2.121   6.822   4.401  0.0630  0.4150 -0.3450
16765TIP3    H271787   2.052   6.949   4.445 -4.0813 -1.3002 -1.3892
16766TIP3   OH271788   6.599   3.740  13.210 -0.0916  0.0873  0.3734
16766TIP3    H171789   6.546   3.698  13.142  0.7704 -2.4540  1.1609
16766TIP3    H271790   6.656   3.800  13.163  0.3744 -1.4843 -1.1689
16767TIP3   OH271791   2.209   5.187  14.549 -0.1471  0.4118  0.1493
16767TIP3    H171792   2.299   5.193  14.518  0.1807  1.1936  1.1768
16767TIP3    H271793   2.175   5.107  14.510  1.0372  0.0348 -0.1423
16768TIP3   OH271794   4.154   5.888  12.539  0.2880 -0.0801  0.8644
16768TIP3    H171795   4.087   5.916  12.477 -0.6071 -1.9217  0.9356
16768TIP3    H271796   4.111   5.894  12.624  0.3437 -0.8818  0.9516
16769TIP3   OH271797   0.558   4.944   3.788 -0.8829  0.1033 -0.8459
16769TIP3    H171798   0.603   4.936   3.704 -0.0067  1.7891 -0.5682
16769TIP3    H271799   0.484   5.002   3.771  0.1049  1.6028 -0.1818
16770TIP3   OH271800   0.904   3.832   1.330 -0.1811  0.5055 -0.2155
16770TIP3    H171801   0.929   3.740   1.332  1.1738  0.8551 -0.3040
16770TIP3    H271802   0.907   3.856   1.237  0.5472  0.9098 -0.0959
16771TIP3   OH271803   4.245   4.667   4.437  0.0435 -0.3600 -0.1626
16771TIP3    H171804   4.175   4.639   4.495 -0.2552 -0.9401 -0.7839
16771TIP3    H271805   4.324   4.625   4.473 -0.2402 -1.2277 -0.5163
16772TIP3   OH271806   5.960   1.863   5.538  0.0433  0.4575 -0.2140
16772TIP3    H171807   5.973   1.784   5.486  0.3414  0.4022 -0.0592
16772TIP3    H271808   5.866   1.877   5.539  0.0562  0.6869 -1.1205
16773TIP3   OH271809   2.882   6.634   0.368 -0.4261  0.0489  0.5114
16773TIP3    H171810   2.870   6.549   0.409  0.9434 -0.7033 -0.5571
16773TIP3    H271811   2.882   6.697   0.440  0.6671 -1.0867  1.5321
16774TIP3   OH271812   0.697   4.278   2.592 -0.4651  0.2087  0.0787
16774TIP3    H171813   0.778   4.260   2.545 -0.3704 -2.2829  1.0291
16774TIP3    H271814   0.628   4.265   2.527 -0.2580 -1.8408  0.1918
16775TIP3   OH271815   5.117   3.350  14.501 -0.3510  0.5341 -0.0196
16775TIP3    H171816   5.054   3.336  14.430 -0.0427 -0.1736 -0.1723
16775TIP3    H271817   5.095   3.436  14.537 -1.6278  0.1584  0.1646
16776TIP3   OH271818   0.019   6.599   5.130 -0.0164  0.2275  0.0464
16776TIP3    H171819   0.087   6.598   5.062 -0.3967  0.3942 -0.3362
16776TIP3    H271820  -0.051   6.544   5.095  0.6128 -1.3825  1.1744
16777TIP3   OH271821   1.237   5.415   4.093 -0.2635 -0.0838  0.3698
16777TIP3    H171822   1.147   5.384   4.109 -0.9618  1.4955 -0.2979
16777TIP3    H271823   1.246   5.415   3.998 -1.0000  3.4373  0.1701
16778TIP3   OH271824   2.592   2.049   3.547  0.1323 -0.1768  0.3398
16778TIP3    H171825   2.592   2.057   3.451  0.9921  0.3735  0.3797
16778TIP3    H271826   2.677   2.083   3.574  0.7831 -2.2960  1.1493
16779TIP3   OH271827   1.076   4.773   4.605 -0.2972 -0.0474 -0.0954
16779TIP3    H171828   1.059   4.858   4.565  1.5929 -0.1385 -1.1986
16779TIP3    H271829   1.105   4.717   4.533  1.0412 -0.8536  1.0232
16780TIP3   OH271830   2.010   4.677   4.259  0.0702  0.0797  0.6043
16780TIP3    H171831   2.010   4.735   4.183  0.9812 -0.9070 -0.1888
16780TIP3    H271832   1.923   4.636   4.257 -0.0295  0.3013  0.2801
16781TIP3   OH271833   1.012   3.427   4.436  0.1233  0.4271 -0.2850
16781TIP3    H171834   0.948   3.451   4.369  0.3511 -2.1651 -1.5230
16781TIP3    H271835   1.096   3.426   4.390  0.5940  0.5470  0.5432
16782TIP3   OH271836   5.875   5.316   4.738 -0.0498 -0.2643  0.2283
16782TIP3    H171837   5.824   5.391   4.767 -0.6489  0.0938 -1.6449
16782TIP3    H271838   5.811   5.245   4.728 -0.1326  0.0098 -1.5019
16783TIP3   OH271839   3.817   4.730   3.823  0.0255 -0.4410 -0.3138
16783TIP3    H171840   3.859   4.719   3.908  0.0315 -0.5379 -0.3293
16783TIP3    H271841   3.743   4.788   3.840 -0.7086 -1.4478 -0.0143
16784TIP3   OH271842   0.854   4.543   4.893  0.1801 -0.1631  0.3960
16784TIP3    H171843   0.843   4.454   4.859  0.2482 -0.3995  0.9775
16784TIP3    H271844   0.808   4.599   4.830  1.6026 -0.4185 -0.9184
16785TIP3   OH271845   2.001   3.336  12.182  0.5667 -0.4487  0.0388
16785TIP3    H171846   2.060   3.410  12.171  0.1985 -0.3100 -1.0953
16785TIP3    H271847   1.914   3.376  12.191  0.6803 -0.6037  2.5018
16786TIP3   OH271848   6.467   6.126  15.378 -0.0689  0.1014  0.6246
16786TIP3    H171849   6.396   6.184  15.403  0.9551  2.5766 -1.7228
16786TIP3    H271850   6.427   6.061  15.320 -0.9748 -0.8019  2.1931
16787TIP3   OH271851   6.635   2.152   5.198 -0.0411  0.4966  0.4528
16787TIP3    H171852   6.658   2.238   5.234 -1.5630  1.1934 -0.1611
16787TIP3    H271853   6.637   2.165   5.103 -1.5833  0.2316  0.3667
16788TIP3   OH271854   3.666   4.871  14.126  0.2719 -0.1021  0.0991
16788TIP3    H171855   3.585   4.862  14.076  0.6470 -0.2589 -0.4933
16788TIP3    H271856   3.729   4.816  14.079  1.4738  2.1333 -1.0774
16789TIP3   OH271857   2.852   0.203   5.184  0.0548 -0.1906 -0.0229
16789TIP3    H171858   2.878   0.190   5.092  0.9098  1.3093 -0.0273
16789TIP3    H271859   2.768   0.158   5.192  0.7792 -1.8295 -1.0757
16790TIP3   OH271860   1.875   0.622   5.636  0.1472 -0.4700  0.1300
16790TIP3    H171861   1.884   0.603   5.729 -0.4425 -1.3443  0.0223
16790TIP3    H271862   1.965   0.630   5.604  0.3453  0.7450  0.9347
16791TIP3   OH271863   5.209   5.036   1.577 -0.4523  0.5166 -0.3074
16791TIP3    H171864   5.159   5.040   1.495  0.5650  0.0865 -0.9785
16791TIP3    H271865   5.189   4.950   1.613 -1.7818  1.1383  0.5004
16792TIP3   OH271866   5.809   3.174  16.925  0.3456 -0.7023 -0.2375
16792TIP3    H171867   5.796   3.196  16.833  0.1660  0.3712  0.0245
16792TIP3    H271868   5.899   3.200  16.944  0.4944 -1.2377 -0.1883
16793TIP3   OH271869   0.045   4.445  15.029 -0.0256  0.4043 -0.3806
16793TIP3    H171870   0.087   4.524  15.062  2.4242 -1.4227  1.2041
16793TIP3    H271871   0.010   4.471  14.943  0.4595  3.2284  0.1811
16794TIP3   OH271872   6.028   3.590  17.091 -0.5840  0.4413 -0.2598
16794TIP3    H171873   6.119   3.574  17.117 -0.5307  1.8758  0.4900
16794TIP3    H271874   5.981   3.511  17.118  0.2260  0.1568  0.3504
16795TIP3   OH271875   5.425   5.646  17.047 -0.1950  0.3257  0.0969
16795TIP3    H171876   5.433   5.692  16.963 -1.7030  1.2830  0.4366
16795TIP3    H271877   5.515   5.634  17.076  0.3220  0.8041 -1.2176
16796TIP3   OH271878   1.340   3.636   4.875  0.3736  0.3142  0.0235
16796TIP3    H171879   1.390   3.711   4.908 -0.3465  0.8767 -0.1278
16796TIP3    H271880   1.251   3.651   4.906  0.4690 -1.1978  1.1555
16797TIP3   OH271881   0.396   1.851   6.661  0.2841 -0.8458 -0.5071
16797TIP3    H171882   0.419   1.758   6.662 -2.7909 -1.7290 -1.1529
16797TIP3    H271883   0.408   1.877   6.570 -4.1322 -2.3067 -1.7677
16798TIP3   OH271884   2.770   6.627   1.408 -0.2943  0.1672 -0.3834
16798TIP3    H171885   2.688   6.585   1.380 -0.8507  1.0914 -0.1880
16798TIP3    H271886   2.836   6.594   1.347 -0.6521 -1.2014 -0.0568
16799TIP3   OH271887   2.485   1.915  13.869 -0.9242 -0.6871  0.0963
16799TIP3    H171888   2.512   2.007  13.879 -0.6130 -0.8330  0.6464
16799TIP3    H271889   2.551   1.878  13.810 -1.4855 -0.3749 -0.7417
16800TIP3   OH271890   0.407   3.041  15.750 -0.5578  0.4291  0.4781
16800TIP3    H171891   0.428   2.998  15.667  0.5312  0.8431  0.5261
16800TIP3    H271892   0.479   3.103  15.764 -1.1860  1.0015  1.2886
16801TIP3   OH271893   0.078   4.152  11.792  0.4632  0.4324 -0.1239
16801TIP3    H171894   0.105   4.199  11.870  0.6904  1.6783 -0.9218
16801TIP3    H271895  -0.009   4.187  11.771 -0.4597 -1.3001  0.6520
16802TIP3   OH271896   3.953   6.390  13.714  0.2083 -0.2130 -0.0330
16802TIP3    H171897   4.037   6.348  13.698  0.9177  1.4130 -0.7632
16802TIP3    H271898   3.974   6.468  13.765 -0.7725  0.6188 -0.8636
16803TIP3   OH271899   3.432   5.025   4.377 -0.2534  0.0436 -0.1013
16803TIP3    H171900   3.391   5.104   4.341  0.0829  1.4348  2.3636
16803TIP3    H271901   3.425   5.036   4.471  2.8888 -1.2343  0.3833
16804TIP3   OH271902   1.637   4.802   0.847 -0.5586 -0.1867  0.7223
16804TIP3    H171903   1.642   4.886   0.892  0.2951  0.3753 -0.3431
16804TIP3    H271904   1.637   4.825   0.754 -2.0252 -1.3034  0.4038
16805TIP3   OH271905   3.441   2.274   1.765 -0.1472  0.1427  0.3592
16805TIP3    H171906   3.439   2.367   1.789  0.4852 -0.0977  1.4250
16805TIP3    H271907   3.521   2.240   1.806 -0.9838 -1.1218  1.0182
16806TIP3   OH271908   3.593   0.036   4.432 -0.7166 -0.2246 -0.0802
16806TIP3    H171909   3.541   0.090   4.492 -1.8214 -1.1162 -0.2009
16806TIP3    H271910   3.647   0.098   4.384 -0.6212  0.6087  1.0613
16807TIP3   OH271911   3.363   0.933  13.504 -0.2518 -0.4349  0.3444
16807TIP3    H171912   3.328   0.920  13.592 -0.1241  0.0378  0.4725
16807TIP3    H271913   3.288   0.965  13.453 -0.3956 -0.9849  0.2062
16808TIP3   OH271914   3.357   5.757   0.173 -0.2149 -0.2626  0.5298
16808TIP3    H171915   3.422   5.696   0.208 -0.4812 -0.3556  0.8607
16808TIP3    H271916   3.284   5.701   0.146 -0.5566 -0.0687  1.0496
16809TIP3   OH271917   4.109   5.980   4.714 -0.1749  0.0472  0.9511
16809TIP3    H171918   4.082   6.068   4.687 -1.5020 -0.1862  1.4737
16809TIP3    H271919   4.039   5.923   4.684  0.1040 -0.6888  1.6683
16810TIP3   OH271920   2.522   1.389   3.003  0.2071 -0.0909  0.0651
16810TIP3    H171921   2.565   1.461   2.958 -1.3285 -0.6638 -2.5249
16810TIP3    H271922   2.572   1.311   2.976 -0.3282 -0.3669 -0.1537
16811TIP3   OH271923   5.150   0.435   5.807 -0.0862  0.5014  0.3863
16811TIP3    H171924   5.098   0.439   5.887  0.4003 -3.1141  1.0363
16811TIP3    H271925   5.086   0.428   5.737 -0.4891  1.5578  0.6376
16812TIP3   OH271926   5.030   4.392  16.860  0.4243 -0.7342 -0.6463
16812TIP3    H171927   4.947   4.391  16.908  1.3839 -0.8429  1.0749
16812TIP3    H271928   5.033   4.478  16.818  0.6599  0.3835  1.5514
16813TIP3   OH271929   5.703   3.425  16.776 -0.3406 -0.3192 -0.3978
16813TIP3    H171930   5.710   3.358  16.844 -0.3641 -0.8711 -0.9318
16813TIP3    H271931   5.618   3.466  16.792  0.2615  0.5123  0.7638
16814TIP3   OH271932   3.131   0.323  16.674  0.0640  0.5209 -0.5621
16814TIP3    H171933   3.130   0.232  16.702  0.8328 -0.2300 -2.7346
16814TIP3    H271934   3.192   0.324  16.599  0.2772  2.8642 -0.4332
16815TIP3   OH271935   1.448   3.451   2.714  0.5973 -0.4722 -0.6044
16815TIP3    H171936   1.498   3.523   2.676 -1.2013  0.3449 -1.4995
16815TIP3    H271937   1.439   3.387   2.643 -2.2648  0.7980 -1.4945
16816TIP3   OH271938   4.886   5.005   6.531 -0.2030 -0.1895 -0.4013
16816TIP3    H171939   4.939   4.930   6.559 -1.1659 -0.8692 -0.3518
16816TIP3    H271940   4.823   4.968   6.469 -1.1277  0.4440  0.1336
16817TIP3   OH271941   0.678   0.152   3.141  0.3278 -0.2915 -0.4836
16817TIP3    H171942   0.676   0.156   3.045 -0.1646  1.1988 -0.4391
16817TIP3    H271943   0.597   0.195   3.169  0.9689  0.2485  0.6169
16818TIP3   OH271944   4.028   5.720  11.611 -0.2678  0.5478 -0.5515
16818TIP3    H171945   3.997   5.785  11.548 -1.0034 -1.4056 -2.3090
16818TIP3    H271946   4.091   5.666  11.563 -0.1305 -0.4329  0.6536
16819TIP3   OH271947   6.233   2.984   3.321 -0.1132 -0.5525 -0.4997
16819TIP3    H171948   6.182   2.983   3.240  1.6677  0.2219 -1.6948
16819TIP3    H271949   6.263   3.075   3.329 -0.1761 -0.6489  0.9801
16820TIP3   OH271950   0.176   4.162  11.507 -0.0484 -0.4278 -0.4075
16820TIP3    H171951   0.121   4.239  11.519 -0.7496 -1.1165  1.2565
16820TIP3    H271952   0.114   4.090  11.495  0.5584 -0.9140 -0.6951
16821TIP3   OH271953   1.843   2.408   6.404  0.2214 -0.1687  0.1234
16821TIP3    H171954   1.924   2.438   6.445  0.7921  0.3849 -1.3287
16821TIP3    H271955   1.806   2.486   6.362 -0.8212 -0.5154  0.3573
16822TIP3   OH271956   6.406   5.723  12.180  0.0725  0.3090  0.3826
16822TIP3    H171957   6.385   5.816  12.173 -0.7207  0.1217  0.1763
16822TIP3    H271958   6.456   5.716  12.262 -1.0042  0.7233  1.0938
16823TIP3   OH271959   1.655   3.738  11.288  0.2614 -0.2361 -0.3049
16823TIP3    H171960   1.607   3.661  11.319 -0.2363 -0.0963 -0.7115
16823TIP3    H271961   1.684   3.715  11.200 -0.3640  0.2405 -0.6426
16824TIP3   OH271962   6.334   3.049   0.866 -0.3801  0.4915 -0.1965
16824TIP3    H171963   6.379   3.008   0.941  0.7914 -0.2390 -1.2586
16824TIP3    H271964   6.330   2.980   0.800 -3.2668  0.4711 -0.1215
16825TIP3   OH271965   5.524   6.431  15.338  0.2003 -0.4440  0.4432
16825TIP3    H171966   5.533   6.337  15.354 -0.6005 -0.7589 -0.8533
16825TIP3    H271967   5.442   6.440  15.290  0.7675  0.8093 -0.3433
16826TIP3   OH271968   6.777   6.638  10.377  0.1449  0.2303 -0.2878
16826TIP3    H171969   6.804   6.729  10.361 -0.8972  0.3823 -1.2998
16826TIP3    H271970   6.693   6.646  10.422  0.2288 -0.2424 -0.0451
16827TIP3   OH271971   2.643   0.487   4.719 -0.6263  0.0093  0.2540
16827TIP3    H171972   2.560   0.515   4.758 -1.0285  0.1637 -0.6937
16827TIP3    H271973   2.657   0.399   4.754  0.2403  0.9824  2.6116
16828TIP3   OH271974   5.731   0.672  13.326 -0.4784 -0.4298  0.0846
16828TIP3    H171975   5.653   0.662  13.271 -0.5931 -0.6659  0.2894
16828TIP3    H271976   5.802   0.687  13.263 -0.9289  1.3833 -0.0389
16829TIP3   OH271977   0.330   3.992  16.455  0.2131  0.0865 -0.9380
16829TIP3    H171978   0.352   4.053  16.385 -0.1355 -0.4262 -1.4978
16829TIP3    H271979   0.362   4.035  16.535  0.4424  0.7580 -1.3825
16830TIP3   OH271980   2.526   4.044   3.749 -0.6969  0.5324  0.2135
16830TIP3    H171981   2.490   4.015   3.833 -1.7453 -0.5701 -0.5880
16830TIP3    H271982   2.609   3.998   3.742 -1.6315 -1.1494 -0.3350
16831TIP3   OH271983   6.611   5.504  14.310  0.2819  0.2597 -0.0489
16831TIP3    H171984   6.679   5.567  14.288  0.8360 -0.2758  0.0830
16831TIP3    H271985   6.585   5.466  14.226 -0.9947  1.5851 -0.2793
16832TIP3   OH271986   4.797   1.152   2.723 -0.5101 -0.6850  0.0683
16832TIP3    H171987   4.750   1.175   2.643  0.0656 -0.1181 -0.1118
16832TIP3    H271988   4.858   1.083   2.696  1.4654  1.2041 -0.5839
16833TIP3   OH271989   4.475   3.414  15.887 -0.9654 -0.1097 -0.1719
16833TIP3    H171990   4.384   3.439  15.906 -0.8510 -0.2701  0.6482
16833TIP3    H271991   4.483   3.422  15.792 -1.6886  0.4047 -0.1999
16834TIP3   OH271992   6.158   2.006  14.704 -0.1701  0.3757 -0.1212
16834TIP3    H171993   6.226   1.938  14.705  0.7526  1.2160 -1.7651
16834TIP3    H271994   6.178   2.061  14.780 -0.5943 -0.8376  0.9019
16835TIP3   OH271995   6.669   2.941   4.461  0.1764  0.4892 -0.5495
16835TIP3    H171996   6.636   2.911   4.546  0.4806 -1.4294 -1.0752
16835TIP3    H271997   6.602   2.915   4.398  0.2632  1.3080 -0.9944
16836TIP3   OH271998   3.931   4.967   3.093  0.1795 -0.0937  0.1159
16836TIP3    H171999   3.897   5.055   3.080 -0.9548 -0.8387 -2.7861
16836TIP3    H272000   3.854   4.912   3.103  0.6538 -1.1713 -1.6563
16837TIP3   OH272001   5.743   5.526   4.802 -0.6331 -0.2177 -0.5608
16837TIP3    H172002   5.682   5.524   4.876 -0.9900  0.7792 -0.8116
16837TIP3    H272003   5.745   5.618   4.775 -0.2463 -0.5132 -1.5813
16838TIP3   OH272004   0.358   6.138   1.035  0.1350  0.0076 -0.2164
16838TIP3    H172005   0.391   6.208   0.977  0.8748  0.9026  1.2250
16838TIP3    H272006   0.280   6.175   1.075  2.0608  1.2518  2.7237
16839TIP3   OH272007   2.035   1.067   0.537  0.6867 -0.0351 -0.5661
16839TIP3    H172008   2.024   1.145   0.483 -1.4621 -0.6501 -1.1142
16839TIP3    H272009   1.963   1.071   0.600  1.6684 -0.6305  0.6460
16840TIP3   OH272010   1.525   0.142  15.727  0.1516 -0.1670 -0.2614
16840TIP3    H172011   1.506   0.161  15.819 -0.8752  1.3235 -0.7620
16840TIP3    H272012   1.615   0.172  15.714 -0.2192  1.0598 -0.1106
16841TIP3   OH272013   3.303   1.801   3.525  0.1033 -0.5397  0.9501
16841TIP3    H172014   3.239   1.833   3.588 -1.0261 -1.4017  0.2610
16841TIP3    H272015   3.375   1.864   3.531 -0.7822  0.4321  1.7577
16842TIP3   OH272016   4.469   1.958   5.502 -0.2722 -0.0171 -0.5250
16842TIP3    H172017   4.456   2.031   5.563 -0.8312 -1.1444  0.7558
16842TIP3    H272018   4.564   1.943   5.503 -0.3658 -0.6184  0.8165
16843TIP3   OH272019   3.335   2.840  15.156  0.0101  0.0434  0.0232
16843TIP3    H172020   3.287   2.901  15.099 -0.2895  0.1962  0.4356
16843TIP3    H272021   3.266   2.790  15.199  0.2085  0.4558  0.8345
16844TIP3   OH272022   5.907   3.724  12.811  0.2975 -0.4315 -0.6099
16844TIP3    H172023   5.914   3.721  12.716 -2.8160  0.8843 -1.0017
16844TIP3    H272024   5.850   3.798  12.829 -0.4453 -1.5302  2.2169
16845TIP3   OH272025   3.966   4.514   3.042 -0.3513  0.0459  0.1764
16845TIP3    H172026   3.991   4.600   3.077  2.2494  0.1845 -1.7402
16845TIP3    H272027   3.897   4.533   2.979 -1.4971  0.3996  1.5066
16846TIP3   OH272028   0.242   6.754  16.128 -0.0537 -0.3956  0.1048
16846TIP3    H172029   0.314   6.706  16.169  0.5976 -0.7411 -1.3562
16846TIP3    H272030   0.188   6.685  16.088 -0.2872 -0.0337 -0.2069
16847TIP3   OH272031   5.646   6.009  11.682  0.3441  0.1420 -0.1534
16847TIP3    H172032   5.715   6.025  11.617  1.4027 -0.0843  0.8865
16847TIP3    H272033   5.641   5.914  11.689 -0.7452  0.1167 -0.8831
16848TIP3   OH272034   6.618   5.311   0.818 -0.1365 -0.0039 -0.0353
16848TIP3    H172035   6.634   5.306   0.723  1.0004  0.1869  0.1367
16848TIP3    H272036   6.577   5.227   0.840  3.1037 -1.7280 -0.0625
16849TIP3   OH272037   2.159   3.713  15.632  0.9642 -0.4634 -0.1325
16849TIP3    H172038   2.081   3.768  15.630  1.1065  0.0523  3.1959
16849TIP3    H272039   2.215   3.748  15.563 -0.6575  0.8294 -0.8654
16850TIP3   OH272040   1.472   6.085   4.203 -0.1739 -0.4858 -0.7603
16850TIP3    H172041   1.544   6.061   4.145 -1.1874 -2.3449 -1.3584
16850TIP3    H272042   1.514   6.124   4.279  1.3821 -0.5705 -1.5432
16851TIP3   OH272043   0.107   2.390   0.969  0.4849  0.0000  0.3899
16851TIP3    H172044   0.193   2.352   0.990  1.8922  2.5849 -0.2949
16851TIP3    H272045   0.062   2.321   0.920  0.9410 -2.5057  3.1906
16852TIP3   OH272046   0.860   0.851   3.073  0.2861  0.2508  0.0858
16852TIP3    H172047   0.935   0.868   3.130  0.0569 -1.9284  1.1073
16852TIP3    H272048   0.897   0.804   2.999 -0.1581 -1.7335  1.0744
16853TIP3   OH272049   1.910   0.987  11.617 -0.6402 -0.3404  0.0074
16853TIP3    H172050   1.842   1.034  11.568 -1.1918 -0.6434  0.4772
16853TIP3    H272051   1.879   0.986  11.707 -0.5093 -1.3772  0.0473
16854TIP3   OH272052   0.012   2.817  12.836  0.9462 -0.0010  0.3401
16854TIP3    H172053   0.057   2.902  12.828  2.1425 -0.3890  2.1241
16854TIP3    H272054  -0.036   2.824  12.919 -0.0242 -0.6028 -0.1632
16855TIP3   OH272055   1.125   5.634   1.872  0.3024  0.2946  0.1633
16855TIP3    H172056   1.194   5.588   1.919  1.6309  1.8025 -0.2305
16855TIP3    H272057   1.080   5.685   1.940  0.8071  0.7756  0.1402
16856TIP3   OH272058   2.158   6.203  17.064  0.1807  0.1805 -0.4459
16856TIP3    H172059   2.162   6.294  17.094 -1.6424 -0.0648  0.6760
16856TIP3    H272060   2.082   6.166  17.109  2.6106 -2.8130  1.6727
16857TIP3   OH272061   0.480   4.636   1.177 -0.3754 -0.3945 -0.5769
16857TIP3    H172062   0.550   4.649   1.241 -1.2381 -2.6407  0.9858
16857TIP3    H272063   0.510   4.681   1.098  0.3324  3.3616  1.6039
16858TIP3   OH272064   0.483   2.301  12.579 -0.5003 -0.0496  0.3171
16858TIP3    H172065   0.520   2.354  12.509 -1.7887 -0.9317 -1.0947
16858TIP3    H272066   0.393   2.332  12.587 -0.1463  0.6342  2.2367
16859TIP3   OH272067   1.807   0.662   1.504  0.2925 -0.0727  0.2570
16859TIP3    H172068   1.859   0.669   1.584  0.7349 -1.3434  0.1047
16859TIP3    H272069   1.725   0.621   1.533 -0.1295  0.7600  0.2805
16860TIP3   OH272070   6.787   3.665  12.491  0.9273  0.3865 -0.2921
16860TIP3    H172071   6.715   3.717  12.455  1.5056  0.9830 -0.6179
16860TIP3    H272072   6.779   3.580  12.448 -0.4691 -0.0671  0.7910
16861TIP3   OH272073   6.265   0.797   4.680  0.2744 -0.1500 -0.2088
16861TIP3    H172074   6.253   0.784   4.586 -1.0080 -2.5252  0.1856
16861TIP3    H272075   6.213   0.875   4.700 -1.7026 -1.1444 -1.1189
16862TIP3   OH272076   4.067   1.975  12.284  0.4143  0.2946 -0.3368
16862TIP3    H172077   4.077   1.963  12.379  2.2448 -0.2224 -0.5608
16862TIP3    H272078   4.052   2.069  12.274  1.4997  0.5729  0.3992
16863TIP3   OH272079   4.566   1.313  10.759 -0.7492  0.9513 -0.0648
16863TIP3    H172080   4.656   1.338  10.741  0.3778 -3.3264 -1.5568
16863TIP3    H272081   4.514   1.360  10.694  0.7435  1.4097 -0.9651
16864TIP3   OH272082   3.710   3.357  14.482  0.5599 -0.4342 -0.0368
16864TIP3    H172083   3.757   3.328  14.403  2.1331 -2.8065  1.6432
16864TIP3    H272084   3.689   3.449  14.464  2.2369 -0.4248 -2.5747
16865TIP3   OH272085   6.619   0.914  11.550 -0.6941  0.0062 -0.0343
16865TIP3    H172086   6.611   0.835  11.603 -0.4813 -0.0047 -0.0159
16865TIP3    H272087   6.529   0.938  11.528 -0.7233 -0.8149 -0.8771
16866TIP3   OH272088   2.280   4.164  16.030  0.1349 -0.1957 -0.0562
16866TIP3    H172089   2.331   4.088  16.004  0.4709 -0.2446  0.7240
16866TIP3    H272090   2.189   4.136  16.021  0.2189 -0.0227 -1.7099
16867TIP3   OH272091   2.286   4.572   1.709  0.2372  0.0703  0.0623
16867TIP3    H172092   2.216   4.522   1.667  0.9262 -0.6555 -0.2385
16867TIP3    H272093   2.317   4.515   1.780  1.3168 -0.1284 -0.5515
16868TIP3   OH272094   5.250   5.636   1.819 -0.7699  0.1267 -0.0914
16868TIP3    H172095   5.235   5.554   1.865  0.4126 -2.2078 -3.4927
16868TIP3    H272096   5.166   5.658   1.779 -0.9318  0.2586  0.3180
16869TIP3   OH272097   2.093   1.954   6.299  0.3323  0.0111  0.4332
16869TIP3    H172098   2.176   1.987   6.333  0.9779 -2.2203  1.1510
16869TIP3    H272099   2.116   1.874   6.251 -1.4147 -0.7877  0.8278
16870TIP3   OH272100   4.777   0.152   1.204  0.4643  0.2985 -0.7097
16870TIP3    H172101   4.786   0.245   1.228 -0.1599  0.2285 -0.1776
16870TIP3    H272102   4.706   0.120   1.259 -0.0729 -0.2271 -1.6747
16871TIP3   OH272103   1.898   4.688  15.273 -0.3453  0.1062  0.1386
16871TIP3    H172104   1.908   4.609  15.221 -0.9730 -1.2961  2.0542
16871TIP3    H272105   1.976   4.740  15.252 -1.0061  0.0393 -2.8060
16872TIP3   OH272106   3.611   4.597  12.747 -0.7514  0.0649 -0.3089
16872TIP3    H172107   3.604   4.508  12.782  1.7394  0.2851  0.9760
16872TIP3    H272108   3.686   4.594  12.688  0.4298  1.6231  1.0082
16873TIP3   OH272109   0.020   0.383  13.192  0.3596  0.3096 -0.0284
16873TIP3    H172110   0.116   0.377  13.199  0.3355 -0.0701  0.0111
16873TIP3    H272111  -0.006   0.299  13.154  0.1428  0.8698 -1.1534
16874TIP3   OH272112   3.500   2.183  13.126 -0.3970 -0.3292  0.0993
16874TIP3    H172113   3.513   2.163  13.218  1.2042  2.3678  0.5732
16874TIP3    H272114   3.583   2.161  13.084  0.0485  1.4833 -0.0427
16875TIP3   OH272115   1.818   4.720   1.026  0.2890 -0.3692 -0.5156
16875TIP3    H172116   1.902   4.696   0.988  0.3980 -1.5189  0.3843
16875TIP3    H272117   1.760   4.733   0.950  1.0021 -0.6063 -1.1126
16876TIP3   OH272118   3.021   5.864   3.064  0.0102  0.0744 -0.2064
16876TIP3    H172119   3.031   5.918   3.143 -0.5373  0.7695 -0.6038
16876TIP3    H272120   2.936   5.821   3.075 -0.4903  0.8908 -0.8420
16877TIP3   OH272121   4.117   5.761  10.008  0.1542  0.0669  0.1419
16877TIP3    H172122   4.181   5.694   9.985 -0.1872  0.1485 -1.1579
16877TIP3    H272123   4.032   5.718   9.996 -0.0610  0.1895  1.1099
16878TIP3   OH272124   2.345   2.696  12.405 -0.0982 -0.2984 -0.5493
16878TIP3    H172125   2.276   2.738  12.456  1.2758  1.4422 -0.0265
16878TIP3    H272126   2.357   2.754  12.330  2.4603  0.8573  0.6390
16879TIP3   OH272127   0.137   0.837   6.308 -0.6209 -0.2750  0.1914
16879TIP3    H172128   0.115   0.792   6.227 -2.2479  3.6099 -1.7451
16879TIP3    H272129   0.223   0.876   6.292 -0.8790  0.3848  0.3649
16880TIP3   OH272130   2.066   2.627  13.356 -0.5488  0.0934  0.4609
16880TIP3    H172131   2.074   2.537  13.325  0.9403  0.1499  0.5955
16880TIP3    H272132   1.989   2.627  13.412 -0.3747 -1.1824  0.7207
16881TIP3   OH272133   0.300   0.227  11.372  0.7550  0.3178  0.3466
16881TIP3    H172134   0.256   0.249  11.291 -0.4474 -1.6367  0.3945
16881TIP3    H272135   0.242   0.260  11.441  0.6710  0.0790  0.3943
16882TIP3   OH272136   5.690   2.824  11.127  0.3495 -0.0699  0.1781
16882TIP3    H172137   5.757   2.757  11.140 -1.3338 -1.7470  0.7382
16882TIP3    H272138   5.644   2.797  11.048 -0.6466  0.1252  0.6656
16883TIP3   OH272139   3.629   4.496   4.989  0.0819  0.5020 -0.2535
16883TIP3    H172140   3.688   4.478   4.915 -1.2977 -0.9673 -1.0664
16883TIP3    H272141   3.572   4.566   4.958 -0.3349  0.0559 -0.5202
16884TIP3   OH272142   5.267   2.937  12.916 -0.1908  0.4352  0.3855
16884TIP3    H172143   5.271   2.854  12.964  1.3096 -0.1043 -0.6108
16884TIP3    H272144   5.230   2.999  12.979  1.7104 -0.2344  2.2744
16885TIP3   OH272145   5.730   1.824  15.314 -0.2574 -0.2528 -0.2159
16885TIP3    H172146   5.825   1.816  15.325 -0.4012 -1.6684  0.1327
16885TIP3    H272147   5.716   1.813  15.220 -0.0584  0.3311 -0.3215
16886TIP3   OH272148   4.186   1.551   2.373 -0.6879 -0.1402  0.7646
16886TIP3    H172149   4.222   1.472   2.333  1.1423 -0.4907  2.8664
16886TIP3    H272150   4.198   1.619   2.308 -1.4095 -1.3863 -0.7287
16887TIP3   OH272151   1.577   0.415  13.006  0.4406 -0.2357 -0.6364
16887TIP3    H172152   1.483   0.396  13.006  0.1565  0.9715  0.9161
16887TIP3    H272153   1.607   0.384  13.092  1.3526 -0.1154 -0.9070
16888TIP3   OH272154   5.904   4.847  14.378  0.2837 -0.8738  0.3744
16888TIP3    H172155   5.914   4.775  14.315  0.1747 -1.8166  1.3974
16888TIP3    H272156   5.984   4.845  14.430  0.2223 -0.3411  0.4968
16889TIP3   OH272157   0.292   6.017   3.888 -0.0286  0.8410 -0.0437
16889TIP3    H172158   0.245   5.988   3.809 -0.4783  0.3712  0.3833
16889TIP3    H272159   0.255   5.963   3.958 -1.5417  3.0033  0.9612
16890TIP3   OH272160   4.959   5.924  14.372 -0.3945 -0.2851 -0.4441
16890TIP3    H172161   4.912   5.930  14.455  2.2309  0.9713  1.0493
16890TIP3    H272162   5.031   5.863  14.389  0.3463  0.2043 -1.7270
16891TIP3   OH272163   5.994   6.772   1.819  0.6398 -0.0878  0.0265
16891TIP3    H172164   5.948   6.721   1.885  1.8217  0.1586  1.0985
16891TIP3    H272165   6.053   6.710   1.776  2.5808  0.3973  1.7992
16892TIP3   OH272166   6.047   6.194   1.894 -0.2447  0.4634  0.0800
16892TIP3    H172167   6.075   6.103   1.888 -0.0628  0.4021  1.6405
16892TIP3    H272168   6.072   6.232   1.809 -0.8809 -1.0674 -0.8289
16893TIP3   OH272169   1.117   6.536  10.843 -0.2996  0.0053 -0.5418
16893TIP3    H172170   1.167   6.456  10.825 -0.3573  0.0175 -0.7653
16893TIP3    H272171   1.136   6.593  10.768  1.2897  0.9784  0.5468
16894TIP3   OH272172   0.223   2.768  15.041  0.2038 -0.3629  0.0508
16894TIP3    H172173   0.269   2.852  15.040 -0.0999 -0.1950  0.1224
16894TIP3    H272174   0.293   2.703  15.047  0.4341 -0.1105  0.1366
16895TIP3   OH272175   0.508   2.484   2.948  0.1446  0.1353 -0.7857
16895TIP3    H172176   0.427   2.454   2.990  0.3323 -0.2728 -0.7003
16895TIP3    H272177   0.578   2.447   3.004  0.5096 -3.0559 -3.0762
16896TIP3   OH272178   6.734   0.913   6.375 -0.1874  0.1728  0.0832
16896TIP3    H172179   6.824   0.881   6.369 -0.8441 -1.7081 -0.3844
16896TIP3    H272180   6.733   0.967   6.454  1.3364  0.2424  0.0848
16897TIP3   OH272181   4.674   2.020  12.628 -0.4985 -0.4573  0.1542
16897TIP3    H172182   4.647   1.949  12.686  1.3733 -0.0171  1.6603
16897TIP3    H272183   4.738   1.981  12.568 -2.2026 -0.8402 -1.5002
16898TIP3   OH272184   4.595   6.178  10.026 -0.9449 -0.1571 -0.0051
16898TIP3    H172185   4.601   6.265  10.066  0.6471 -0.1631 -0.1674
16898TIP3    H272186   4.650   6.123  10.080 -1.9161 -1.0851  0.0734
16899TIP3   OH272187   6.230   2.032   1.999 -0.1203 -0.0051  0.2750
16899TIP3    H172188   6.178   2.101   1.957 -1.9128 -1.4193  0.0009
16899TIP3    H272189   6.298   2.010   1.936 -0.4589  0.4930 -0.2654
16900TIP3   OH272190   4.209   0.139   1.774 -0.1882  0.1999  0.2170
16900TIP3    H172191   4.245   0.227   1.777  0.3034  0.1157 -1.7109
16900TIP3    H272192   4.256   0.097   1.701 -2.0447 -0.8871 -0.4040
16901TIP3   OH272193   6.625   0.533  13.786  0.1012  0.3940 -0.4253
16901TIP3    H172194   6.553   0.481  13.822 -0.4207  1.1286 -0.3845
16901TIP3    H272195   6.602   0.547  13.694  1.1740 -1.0284 -0.9537
16902TIP3   OH272196   0.078   1.706   4.982  0.0901  1.0239 -0.3000
16902TIP3    H172197   0.120   1.792   4.982 -0.4381  1.3321  1.4883
16902TIP3    H272198   0.002   1.716   5.040  1.2338 -1.1322  1.7903
16903TIP3   OH272199   0.667   3.741  15.126 -0.3678  0.1488 -0.2303
16903TIP3    H172200   0.693   3.829  15.153  1.7396 -0.4497 -0.0793
16903TIP3    H272201   0.580   3.729  15.163 -0.7080  2.1646 -0.2740
16904TIP3   OH272202   0.855   5.617  16.490  0.3131  0.2427 -0.3651
16904TIP3    H172203   0.924   5.682  16.478  0.6756 -0.1805 -0.6227
16904TIP3    H272204   0.830   5.591  16.401 -1.4156  1.6515 -0.3377
16905TIP3   OH272205   4.535   2.707   6.673  0.4674  0.6563 -0.8342
16905TIP3    H172206   4.619   2.750   6.660  0.2057  1.7540  0.7628
16905TIP3    H272207   4.473   2.779   6.683 -0.3194 -0.1183  0.0096
16906TIP3   OH272208   6.679   1.034   1.397 -0.6848  0.3630 -0.3445
16906TIP3    H172209   6.620   0.996   1.461 -0.0585 -3.1554 -1.6306
16906TIP3    H272210   6.630   1.032   1.315  0.6911 -1.4466 -1.1856
16907TIP3   OH272211   1.255   5.724  12.762 -0.9209  0.1545  0.5777
16907TIP3    H172212   1.280   5.659  12.828  0.0680 -1.7967 -1.6033
16907TIP3    H272213   1.329   5.784  12.758  0.3969 -1.4537 -0.7637
16908TIP3   OH272214   3.971   6.215  10.066 -0.4358  0.0330  0.1175
16908TIP3    H172215   4.043   6.163  10.102 -0.8046  1.8870  4.0666
16908TIP3    H272216   3.996   6.306  10.081 -2.1042  0.8606 -1.6553
16909TIP3   OH272217   4.007   2.038   1.053  0.0449  0.1672 -0.3666
16909TIP3    H172218   4.055   2.091   0.990 -1.2416  2.0874  0.2044
16909TIP3    H272219   3.948   1.985   1.000 -0.4664  1.1813 -0.8268
16910TIP3   OH272220   5.910   5.021  16.269  0.2646 -0.5293 -0.5176
16910TIP3    H172221   5.889   5.114  16.277 -0.8198 -0.9198  4.2090
16910TIP3    H272222   6.003   5.016  16.289 -0.0188 -0.5120  0.9162
16911TIP3   OH272223   6.308   1.531  10.977  0.4112 -0.0203  0.2329
16911TIP3    H172224   6.237   1.567  11.030 -0.7106  0.1326 -1.2748
16911TIP3    H272225   6.289   1.437  10.972 -0.2937  0.1552 -0.9591
16912TIP3   OH272226   1.771   6.119  13.581 -0.3083  0.1015  0.4136
16912TIP3    H172227   1.686   6.156  13.556 -0.3191  1.2411  1.9778
16912TIP3    H272228   1.751   6.058  13.652 -0.0441 -1.4648 -0.7894
16913TIP3   OH272229   2.791   6.770  15.071  0.4816  0.1859 -0.4450
16913TIP3    H172230   2.877   6.741  15.041 -0.0747 -0.7549 -1.1894
16913TIP3    H272231   2.808   6.813  15.155  1.6166 -0.4018 -0.3537
16914TIP3   OH272232   5.758   5.837  12.734 -0.1202 -0.1181 -0.3910
16914TIP3    H172233   5.816   5.831  12.809 -0.1017  0.2638 -0.3760
16914TIP3    H272234   5.674   5.862  12.770  0.5682  3.1385 -0.7688
16915TIP3   OH272235   1.300   3.361   2.006  0.4266 -0.3307  0.1876
16915TIP3    H172236   1.283   3.440   2.058 -0.3561  0.0483 -0.6176
16915TIP3    H272237   1.395   3.353   2.006  0.5375  0.7610  0.0745
16916TIP3   OH272238   0.045   3.816  16.026 -0.4059 -0.1456  0.1408
16916TIP3    H172239   0.009   3.765  15.954 -1.6940 -0.3355  0.8828
16916TIP3    H272240   0.065   3.901  15.988 -0.3250 -0.4822 -0.5980
16917TIP3   OH272241   6.143   6.533   1.151  0.8286 -0.1127  0.2737
16917TIP3    H172242   6.194   6.578   1.083 -0.7841  0.3218 -0.7143
16917TIP3    H272243   6.139   6.596   1.223  2.2705 -0.4442  0.6707
16918TIP3   OH272244   5.392   4.834  16.276 -0.0255 -0.2980 -0.3124
16918TIP3    H172245   5.480   4.872  16.278 -1.0069  2.2176 -1.1172
16918TIP3    H272246   5.372   4.823  16.183 -0.5324 -0.8878 -0.1402
16919TIP3   OH272247   1.135   1.856   2.510 -0.2022 -0.0471 -0.2710
16919TIP3    H172248   1.182   1.773   2.513  0.4296  0.1741 -2.3975
16919TIP3    H272249   1.092   1.862   2.595  2.3827 -0.9733  1.2435
16920TIP3   OH272250   5.448   5.264   0.271  0.1456 -0.0695 -0.1277
16920TIP3    H172251   5.517   5.240   0.209  1.1445  1.8399  0.1674
16920TIP3    H272252   5.445   5.191   0.333  0.6244 -1.0095 -1.1806
16921TIP3   OH272253   5.977   6.676   4.752 -0.1754 -0.1061 -0.1557
16921TIP3    H172254   5.941   6.658   4.839 -0.3666 -0.4796 -0.3115
16921TIP3    H272255   6.069   6.650   4.757  0.2248  1.3021  0.3926
16922TIP3   OH272256   2.419   4.971   3.004  0.3226 -0.2956 -0.4939
16922TIP3    H172257   2.499   4.957   2.954 -0.7571 -0.6708 -2.2227
16922TIP3    H272258   2.403   5.065   2.999  0.0837 -0.3641 -1.1065
16923TIP3   OH272259   5.672   1.141   2.301  0.4176 -0.0669  0.2124
16923TIP3    H172260   5.628   1.171   2.222  0.9043  1.8574  0.6035
16923TIP3    H272261   5.672   1.046   2.295 -1.1128 -0.0156 -1.2319
16924TIP3   OH272262   4.416   3.733  13.233 -0.2310 -0.3652 -0.4408
16924TIP3    H172263   4.326   3.743  13.264 -0.1134 -0.5606 -0.0396
16924TIP3    H272264   4.410   3.668  13.163 -0.0819 -2.0477  1.0504
16925TIP3   OH272265   6.292   0.002   3.809 -0.2167 -0.2104 -0.2566
16925TIP3    H172266   6.298  -0.018   3.715 -1.0693  0.4687 -0.4635
16925TIP3    H272267   6.329   0.089   3.817 -0.4257 -0.1456 -0.0074
16926TIP3   OH272268   2.430   4.273   1.666  0.0438 -0.3050 -0.4314
16926TIP3    H172269   2.478   4.334   1.721 -1.9689  1.8868 -0.9849
16926TIP3    H272270   2.444   4.304   1.576  0.9098 -2.1126 -0.9868
16927TIP3   OH272271   3.531   4.251  16.191 -0.2346  0.3326  0.2480
16927TIP3    H172272   3.588   4.181  16.160  0.7251  1.0800  0.2740
16927TIP3    H272273   3.451   4.241  16.140 -0.7170 -1.6833  1.2737
16928TIP3   OH272274   2.271   5.898   3.568 -0.0111 -0.3687 -0.4476
16928TIP3    H172275   2.324   5.876   3.644 -1.2725 -0.0320  0.5741
16928TIP3    H272276   2.327   5.953   3.514  1.0157 -0.8752  0.0859
16929TIP3   OH272277   3.133   2.941   0.342  0.3712  0.0993 -0.4771
16929TIP3    H172278   3.173   3.008   0.398  1.1356 -1.2649  0.6748
16929TIP3    H272279   3.205   2.883   0.319 -0.6621 -1.7213  0.6166
16930TIP3   OH272280   2.224   6.661   3.694  0.1644  0.2088  0.1190
16930TIP3    H172281   2.271   6.583   3.724 -1.4955  0.1474  2.8221
16930TIP3    H272282   2.134   6.648   3.722 -0.3281  2.7712  0.0226
16931TIP3   OH272283   1.694   2.143  15.196 -0.2799 -0.2547  0.1304
16931TIP3    H172284   1.674   2.164  15.287  1.3802  1.0189  0.2732
16931TIP3    H272285   1.737   2.058  15.200 -1.3133 -0.7756  0.3733
16932TIP3   OH272286   0.114   1.264  14.948  0.3674  0.0748  0.1317
16932TIP3    H172287   0.062   1.341  14.969  1.8318  1.2904 -0.4500
16932TIP3    H272288   0.202   1.300  14.929  0.9195 -1.6653 -0.7929
16933TIP3   OH272289   1.386   2.590  13.303 -0.3803 -0.2256 -0.2973
16933TIP3    H172290   1.379   2.673  13.349  2.0686  0.2669 -0.6979
16933TIP3    H272291   1.304   2.582  13.254 -1.8035  0.6171  1.8288
16934TIP3   OH272292   2.709   1.934  11.533  0.5880  0.2856 -0.1629
16934TIP3    H172293   2.738   2.022  11.508  0.0022  0.0084 -1.9485
16934TIP3    H272294   2.613   1.940  11.533  0.5469 -0.3518 -0.2624
16935TIP3   OH272295   5.342   1.038   0.853  0.3957  0.1402  0.0066
16935TIP3    H172296   5.400   0.962   0.849 -0.5455 -0.7093  1.5951
16935TIP3    H272297   5.258   1.006   0.820  0.1356  0.6317  0.1785
16936TIP3   OH272298   0.660   5.488   1.433 -0.1698  0.0134 -0.1321
16936TIP3    H172299   0.706   5.411   1.399 -0.5208  0.0475 -0.7044
16936TIP3    H272300   0.581   5.494   1.379 -0.5603  0.2880  0.4633
16937TIP3   OH272301   6.568   5.753   2.173 -0.1479  0.0889  0.7012
16937TIP3    H172302   6.526   5.713   2.249 -1.3492 -0.1802 -0.0695
16937TIP3    H272303   6.547   5.846   2.179  1.1895  0.3712  1.5689
16938TIP3   OH272304   1.400   3.711  11.425  0.0140  0.1760  0.3572
16938TIP3    H172305   1.420   3.634  11.372  2.2594  1.6598 -1.1569
16938TIP3    H272306   1.307   3.702  11.446 -0.5179 -1.5132 -2.1630
16939TIP3   OH272307   1.287   0.554   3.316  0.3131 -0.1618  0.0201
16939TIP3    H172308   1.217   0.517   3.371 -0.0900 -0.9890 -1.0244
16939TIP3    H272309   1.244   0.575   3.233  1.1028  0.2814 -0.2887
16940TIP3   OH272310   4.816   3.724  15.212 -0.5532 -0.0189 -0.1573
16940TIP3    H172311   4.720   3.729  15.215 -0.6771 -1.8112  0.3237
16940TIP3    H272312   4.844   3.749  15.300 -0.5476  0.9115 -0.4199
16941TIP3   OH272313   3.654   5.290   1.235  0.2854 -0.0834 -0.5098
16941TIP3    H172314   3.701   5.281   1.152  0.6073 -0.6859 -0.2673
16941TIP3    H272315   3.723   5.300   1.301  0.0133  1.3167 -0.4108
16942TIP3   OH272316   6.100   3.933   2.577 -0.2311 -0.7337  0.4208
16942TIP3    H172317   6.147   3.851   2.564 -1.3317 -1.3317  0.1324
16942TIP3    H272318   6.008   3.910   2.569 -0.6384  0.2468  1.8497
16943TIP3   OH272319   5.460   0.048  13.082  0.4628 -0.2461 -0.0658
16943TIP3    H172320   5.441   0.106  13.155  0.0750 -0.8369  0.3051
16943TIP3    H272321   5.556   0.049  13.075  0.4532  0.6194 -0.2221
16944TIP3   OH272322   3.565   4.475   2.407 -0.3204 -0.4104  0.4149
16944TIP3    H172323   3.545   4.389   2.444 -0.3295 -0.4038  0.4258
16944TIP3    H272324   3.648   4.500   2.449  1.4510 -1.8623 -1.9734
16945TIP3   OH272325   5.686   4.049   1.247 -0.4227  0.1302 -0.0463
16945TIP3    H172326   5.621   4.067   1.315 -0.1835  1.5667 -0.1723
16945TIP3    H272327   5.649   4.089   1.168  0.3569  0.4602 -0.2460
16946TIP3   OH272328   6.081   6.064  14.450  0.0293 -0.3171 -0.2920
16946TIP3    H172329   6.132   5.999  14.499  1.2692 -0.0933 -1.2334
16946TIP3    H272330   6.144   6.134  14.431 -1.2470  1.1431  0.6139
16947TIP3   OH272331   1.658   6.803  16.233  0.3025  0.3349  0.1653
16947TIP3    H172332   1.657   6.710  16.254 -1.4184 -0.0517 -1.4041
16947TIP3    H272333   1.641   6.847  16.317  1.9752 -0.6737  1.0801
16948TIP3   OH272334   2.508   2.943   4.941 -0.5891  0.1691 -0.3222
16948TIP3    H172335   2.488   2.940   4.848  0.8455  2.8391 -0.8165
16948TIP3    H272336   2.517   3.037   4.961 -2.0197 -0.2205  2.7856
16949TIP3   OH272337   3.531   3.740  13.382 -0.2439  0.1739  0.2470
16949TIP3    H172338   3.462   3.738  13.316 -0.8188  1.8909  0.7271
16949TIP3    H272339   3.607   3.776  13.337  0.2208 -1.2817 -0.1638
16950TIP3   OH272340   3.370   5.893   2.861  0.1255  0.1554 -0.1760
16950TIP3    H172341   3.404   5.806   2.839 -1.4862 -0.3978 -0.6188
16950TIP3    H272342   3.400   5.950   2.791 -0.9156 -0.5910 -1.2559
16951TIP3   OH272343   0.513   4.685   3.375 -0.2477 -0.0715 -0.6657
16951TIP3    H172344   0.607   4.704   3.383 -0.2929 -0.7170  2.4793
16951TIP3    H272345   0.470   4.765   3.407 -0.6164 -1.1674  1.8065
16952TIP3   OH272346   4.015   4.787  10.406  0.2405 -0.5500  0.1662
16952TIP3    H172347   3.942   4.846  10.387  0.9364  0.7478  1.3731
16952TIP3    H272348   4.087   4.822  10.354  0.2949 -1.1799 -0.1852
16953TIP3   OH272349   5.135   2.560  13.666  0.4915 -0.2561  0.0977
16953TIP3    H172350   5.224   2.544  13.696  0.4594 -1.7006 -0.5091
16953TIP3    H272351   5.081   2.547  13.743  0.7261 -0.1730  0.2768
16954TIP3   OH272352   4.798   4.812  16.343  0.4501  0.2447 -0.4682
16954TIP3    H172353   4.879   4.799  16.393 -0.3974 -1.0267  0.6239
16954TIP3    H272354   4.790   4.733  16.289 -1.2409 -0.7515  1.1680
16955TIP3   OH272355   4.106   5.276   3.786  0.5461  0.3024  0.2553
16955TIP3    H172356   4.123   5.217   3.859  0.5044  0.8726  0.7385
16955TIP3    H272357   4.067   5.354   3.827  0.6607  0.6886 -0.3554
16956TIP3   OH272358   6.350   4.450   1.986 -0.0803 -0.2042  0.1858
16956TIP3    H172359   6.401   4.372   2.006  0.2676  0.4149  1.9086
16956TIP3    H272360   6.290   4.459   2.060 -1.0264  0.4321 -0.6308
16957TIP3   OH272361   1.312   5.970  10.564 -0.2951  0.4843 -0.1100
16957TIP3    H172362   1.259   5.903  10.521  1.6497  0.1286 -2.1385
16957TIP3    H272363   1.357   5.924  10.634  1.7165 -0.6845 -2.0438
16958TIP3   OH272364   5.596   6.130  15.388 -0.1040  0.3156  0.1551
16958TIP3    H172365   5.527   6.066  15.406  1.2828 -1.0587  0.7584
16958TIP3    H272366   5.597   6.137  15.292 -0.1410 -0.7395  0.0667
16959TIP3   OH272367   0.373   2.082   5.449  0.4629 -0.3317 -0.0527
16959TIP3    H172368   0.448   2.136   5.473  0.6990 -0.4075 -0.6141
16959TIP3    H272369   0.362   2.021   5.523 -0.0694  0.7473  0.7868
16960TIP3   OH272370   2.270   6.564  13.016  0.4015 -0.1669 -0.0312
16960TIP3    H172371   2.299   6.616  13.091 -1.6196 -1.1098  1.5178
16960TIP3    H272372   2.220   6.625  12.963  1.5912  0.4402 -0.4845
16961TIP3   OH272373   3.425   2.249  17.032  0.9964 -0.5896  0.8012
16961TIP3    H172374   3.491   2.303  17.075 -0.5091  0.8182  1.4680
16961TIP3    H272375   3.388   2.196  17.103  0.3884 -0.2621  0.7362
16962TIP3   OH272376   1.906   1.073  11.140 -0.2054  0.6792 -0.4596
16962TIP3    H172377   1.961   0.999  11.167 -0.0474  0.7973 -0.4555
16962TIP3    H272378   1.864   1.043  11.059 -0.3452  0.4878 -0.3148
16963TIP3   OH272379   1.901   0.347  12.957  0.3296 -0.2005  0.3764
16963TIP3    H172380   1.937   0.394  12.882  1.0423 -0.8145  0.3195
16963TIP3    H272381   1.976   0.304  12.997 -0.1992 -0.7533  0.8103
16964TIP3   OH272382   6.724   3.173   1.045  0.0701 -0.1875 -0.3347
16964TIP3    H172383   6.676   3.241   1.092  0.6090 -0.6934  0.9875
16964TIP3    H272384   6.814   3.205   1.043 -0.3241  1.1153 -3.4447
16965TIP3   OH272385   5.520   0.350   4.962  0.3991  0.3615  0.2407
16965TIP3    H172386   5.467   0.403   4.903  0.2995  1.5384  1.3562
16965TIP3    H272387   5.554   0.412   5.026  2.9438 -0.4034 -0.2793
16966TIP3   OH272388   3.886   2.380   4.034 -0.2750  0.2272  0.2592
16966TIP3    H172389   3.869   2.316   4.103  1.1047  1.1265  1.4999
16966TIP3    H272390   3.803   2.426   4.023 -0.6623 -0.2899  0.9500
16967TIP3   OH272391   6.636   5.815  11.635 -0.0445  0.2470 -0.2490
16967TIP3    H172392   6.654   5.814  11.541 -1.4178  1.6548 -0.5778
16967TIP3    H272393   6.696   5.880  11.671 -0.3018  0.5516 -0.3602
16968TIP3   OH272394   1.010   3.670   4.204 -0.6425  0.1889 -0.7737
16968TIP3    H172395   0.924   3.644   4.238 -0.8118 -0.7202 -1.8541
16968TIP3    H272396   0.990   3.721   4.126 -0.2115  0.6553 -0.5797
16969TIP3   OH272397   4.660   4.803   3.262  0.1704 -0.3385 -0.1007
16969TIP3    H172398   4.683   4.848   3.344  1.3161 -1.0266 -0.0146
16969TIP3    H272399   4.577   4.842   3.235  0.1812  0.4657  0.9690
16970TIP3   OH272400   1.662   6.845  14.146 -0.8012  0.0068 -0.2154
16970TIP3    H172401   1.667   6.898  14.066 -0.4201  2.2032  1.1858
16970TIP3    H272402   1.675   6.908  14.217 -1.8814 -1.7568  1.6275
16971TIP3   OH272403   2.699   1.486  12.719  0.0461 -0.0434 -0.2829
16971TIP3    H172404   2.682   1.517  12.630 -0.1466 -2.0101 -0.9722
16971TIP3    H272405   2.742   1.560  12.762 -0.2102  1.0841 -1.8813
16972TIP3   OH272406   3.927   4.256   0.227 -0.2056 -0.6454 -0.3582
16972TIP3    H172407   3.833   4.242   0.234 -0.3694 -1.7259 -3.3064
16972TIP3    H272408   3.962   4.229   0.313 -2.4523 -1.1411  0.4596
16973TIP3   OH272409   3.282   2.082   0.529  0.2025 -0.0501 -0.3653
16973TIP3    H172410   3.235   2.154   0.571  2.0449  0.6823  0.5046
16973TIP3    H272411   3.220   2.009   0.532 -0.5736  0.6222  1.5510
16974TIP3   OH272412   0.127   2.631   2.798 -0.2346  0.2016  0.0037
16974TIP3    H172413   0.090   2.676   2.874 -0.2805 -0.1384  0.1862
16974TIP3    H272414   0.197   2.689   2.768 -2.4007  2.0511 -1.8246
16975TIP3   OH272415   4.447   0.143   4.964  0.2373 -0.1361 -0.5290
16975TIP3    H172416   4.365   0.093   4.967  1.1476 -1.6399  0.3057
16975TIP3    H272417   4.502   0.094   4.902  2.0521 -1.7130  2.1284
16976TIP3   OH272418   6.474   3.782   5.941 -0.4009 -0.3038 -0.0560
16976TIP3    H172419   6.392   3.740   5.966 -0.1194 -0.6359  0.3097
16976TIP3    H272420   6.478   3.771   5.846 -0.9240 -0.0200 -0.1147
16977TIP3   OH272421   3.672   1.350   1.461 -0.2012  0.6975 -0.1041
16977TIP3    H172422   3.699   1.302   1.540 -1.8524  0.7945  0.5584
16977TIP3    H272423   3.628   1.284   1.407 -3.6822  1.5882  1.3983
16978TIP3   OH272424   4.999   2.663  17.050 -0.2457  0.0795  0.3209
16978TIP3    H172425   4.947   2.587  17.026  0.7700 -0.1652 -1.2529
16978TIP3    H272426   5.072   2.663  16.988 -1.5623  3.7689 -1.5205
16979TIP3   OH272427   4.570   5.295  10.980 -0.4477 -0.4098  0.0948
16979TIP3    H172428   4.637   5.355  11.014  0.1038 -0.2407 -1.2232
16979TIP3    H272429   4.507   5.352  10.936 -0.5270 -0.7140 -0.1844
16980TIP3   OH272430   3.624   1.481  13.105  0.2681 -0.6447  0.1802
16980TIP3    H172431   3.687   1.418  13.069  0.0784 -0.7750  0.0791
16980TIP3    H272432   3.639   1.561  13.054 -0.4756 -1.0309 -0.6680
16981TIP3   OH272433   2.552   0.442  11.270  0.0663 -0.2766 -0.0499
16981TIP3    H172434   2.491   0.370  11.282 -0.4527  0.2388  0.5135
16981TIP3    H272435   2.498   0.515  11.241  0.4148  0.1585  0.3668
16982TIP3   OH272436   3.320   3.722   3.633  0.1838 -0.0775 -0.0963
16982TIP3    H172437   3.359   3.691   3.551 -1.1239 -1.4785 -0.2471
16982TIP3    H272438   3.256   3.787   3.605 -0.6826 -0.9768 -0.2909
16983TIP3   OH272439   1.410   0.904  14.132 -0.3138 -0.6875 -0.0835
16983TIP3    H172440   1.357   0.892  14.211  0.1776 -1.8478  0.1071
16983TIP3    H272441   1.379   0.835  14.073  2.0032 -2.5191  0.6527
16984TIP3   OH272442   2.882   4.240  11.102 -0.4558 -0.3668 -0.6203
16984TIP3    H172443   2.889   4.144  11.098  1.0110 -0.3224  0.0495
16984TIP3    H272444   2.961   4.271  11.057 -0.8376  0.5287 -0.6897
16985TIP3   OH272445   3.754   0.182  11.991 -0.7954  0.0211  0.0534
16985TIP3    H172446   3.818   0.243  12.028 -0.3757 -0.2711 -0.1731
16985TIP3    H272447   3.744   0.210  11.900  0.2086 -0.8735 -0.3590
16986TIP3   OH272448   5.137   3.670  11.142  0.1585  0.0183  0.1726
16986TIP3    H172449   5.046   3.667  11.112  0.0876  1.3552  0.1735
16986TIP3    H272450   5.183   3.719  11.073  0.6203  0.4029  0.7381
16987TIP3   OH272451   2.504   0.701  15.934  0.2118  0.0882 -0.3088
16987TIP3    H172452   2.571   0.673  15.997  0.4090  0.1245 -0.4984
16987TIP3    H272453   2.523   0.649  15.856 -0.8396 -0.9116  0.0763
16988TIP3   OH272454   5.716   5.180  14.592 -0.6712 -0.1859  0.3282
16988TIP3    H172455   5.712   5.171  14.688  0.2416 -1.6945  0.2630
16988TIP3    H272456   5.810   5.178  14.572 -0.8020  1.2513 -0.5348
16989TIP3   OH272457   3.838   3.035   5.270  0.0070  0.2985 -0.1785
16989TIP3    H172458   3.794   3.113   5.235 -0.4763  0.0902 -0.0412
16989TIP3    H272459   3.845   2.977   5.194 -0.5218  0.0808 -0.0667
16990TIP3   OH272460   0.388   3.038   5.823  0.0791  0.2403  0.0932
16990TIP3    H172461   0.450   3.111   5.817  1.3185 -0.7648  0.3291
16990TIP3    H272462   0.365   3.033   5.916  0.5714 -0.1416  0.1933
16991TIP3   OH272463   5.830   2.318  15.713 -0.5724 -0.8178  0.0815
16991TIP3    H172464   5.822   2.226  15.686  0.2570 -1.0915  0.7425
16991TIP3    H272465   5.768   2.327  15.786 -1.8609 -0.4074 -1.0055
16992TIP3   OH272466   4.655   6.431   0.514  0.1087  0.3004  0.1062
16992TIP3    H172467   4.608   6.478   0.583  1.4142 -0.8812  1.8771
16992TIP3    H272468   4.643   6.339   0.536  2.6187 -0.0554  0.2421
16993TIP3   OH272469   6.653   6.325  11.286  0.3280  0.2283  0.2566
16993TIP3    H172470   6.587   6.325  11.216  1.6685 -1.8915 -1.1502
16993TIP3    H272471   6.723   6.380  11.253  0.5895 -0.0698  0.3079
16994TIP3   OH272472   3.450   0.914  13.039  0.7910  0.2558  0.3853
16994TIP3    H172473   3.474   1.006  13.040 -0.7622  0.6860 -0.0717
16994TIP3    H272474   3.505   0.874  13.107  1.9699  1.3635  0.1149
16995TIP3   OH272475   4.968   3.304   5.587  0.1901  0.0455 -0.2605
16995TIP3    H172476   5.060   3.320   5.566  0.2747  0.1726  0.1936
16995TIP3    H272477   4.964   3.308   5.683 -0.0884 -1.0469 -0.2120
16996TIP3   OH272478   4.921   6.425   4.287 -0.5773 -0.0483  0.1412
16996TIP3    H172479   5.016   6.415   4.292 -0.6564 -0.3733  1.1753
16996TIP3    H272480   4.890   6.345   4.245 -0.4647 -0.2602  0.4683
16997TIP3   OH272481   6.019   4.480  11.524  0.3439 -0.3937  0.5190
16997TIP3    H172482   6.024   4.420  11.598 -2.3591 -0.4714  0.7236
16997TIP3    H272483   5.988   4.562  11.562 -0.4932 -0.2550 -0.4254
16998TIP3   OH272484   6.636   3.494  11.520 -0.0463 -0.3326 -0.1645
16998TIP3    H172485   6.647   3.524  11.610 -2.5326  1.6693 -0.3938
16998TIP3    H272486   6.710   3.532  11.473  0.6834 -0.4818  0.8323
16999TIP3   OH272487   0.244   1.601  13.848  0.1123 -0.3917 -0.0687
16999TIP3    H172488   0.270   1.682  13.805 -0.4950 -0.1629 -0.0164
16999TIP3    H272489   0.151   1.612  13.865  0.3344 -0.4766  1.2938
17000TIP3   OH272490   4.625   6.410  11.137 -0.0417 -0.0347 -0.2051
17000TIP3    H172491   4.606   6.340  11.074 -0.4628 -1.3002  1.2742
17000TIP3    H272492   4.540   6.449  11.157  0.0502  0.1538 -0.1743
17001TIP3   OH272493   1.847   6.559  13.499 -0.4000 -0.3682  0.2193
17001TIP3    H172494   1.780   6.615  13.461  1.0263  0.7620 -0.7291
17001TIP3    H272495   1.930   6.604  13.480  0.6117 -1.5269  1.6580
17002TIP3   OH272496   0.815   4.315   3.239  0.0564 -0.2504  0.5422
17002TIP3    H172497   0.733   4.356   3.266 -0.8977 -1.4375 -0.4215
17002TIP3    H272498   0.829   4.346   3.150  0.8647  0.2244  0.8244
17003TIP3   OH272499   6.240   2.389   3.972  0.0013 -0.0393 -0.0014
17003TIP3    H172500   6.264   2.472   4.014  0.9152 -0.3575  0.1168
17003TIP3    H272501   6.244   2.325   4.043  0.2143 -0.3452 -0.2881
17004TIP3   OH272502   4.447   4.093  15.422  0.1884  0.2466  0.2019
17004TIP3    H172503   4.467   4.187  15.429 -0.1277  0.3224  0.1193
17004TIP3    H272504   4.381   4.088  15.353  1.2349 -0.1894 -0.8109
17005TIP3   OH272505   6.236   2.800  14.227  0.2143  0.6930  0.0084
17005TIP3    H172506   6.234   2.846  14.143  2.5770  2.3824  0.7656
17005TIP3    H272507   6.313   2.744  14.221 -1.4585 -1.7354 -0.1059
17006TIP3   OH272508   4.907   4.314   2.061 -0.8057 -0.2388  0.9169
17006TIP3    H172509   4.987   4.366   2.058 -1.3424  0.5992  0.6696
17006TIP3    H272510   4.885   4.309   2.154 -0.4493 -0.5015  0.9874
17007TIP3   OH272511   5.533   1.429  13.195  0.4434  0.2382 -0.2332
17007TIP3    H172512   5.471   1.497  13.220  0.7085  0.2244  0.4814
17007TIP3    H272513   5.598   1.474  13.141 -0.2498  0.2254 -1.1133
17008TIP3   OH272514   2.566   5.577  12.188  0.6019  0.2122 -0.4723
17008TIP3    H172515   2.564   5.592  12.283 -1.0973  0.0578 -0.4540
17008TIP3    H272516   2.641   5.519  12.175  1.0179  0.4381  0.7355
17009TIP3   OH272517   1.143   6.047  15.050  0.3574  0.2455 -0.1466
17009TIP3    H172518   1.096   6.084  14.975  1.4845 -1.1512 -1.5938
17009TIP3    H272519   1.081   6.054  15.123 -2.2580 -1.7216 -2.0057
17010TIP3   OH272520   6.563   0.355  11.255 -0.7884 -0.0710 -0.2478
17010TIP3    H172521   6.628   0.330  11.320  0.0919 -2.2595 -1.8444
17010TIP3    H272522   6.486   0.378  11.305  0.8245  1.5232  1.6663
17011TIP3   OH272523   2.874   0.938   4.756  0.6795  0.0258 -0.3483
17011TIP3    H172524   2.906   0.938   4.846 -1.3075 -0.2885  0.4098
17011TIP3    H272525   2.880   0.847   4.728  0.8381  0.0404 -0.3632
17012TIP3   OH272526   0.155   6.824  14.701  0.3590 -0.9029  0.6056
17012TIP3    H172527   0.221   6.772  14.655  0.1214 -1.3414  0.7498
17012TIP3    H272528   0.098   6.858  14.632  2.9746  2.8752 -0.0202
17013TIP3   OH272529   5.780   2.376  12.939  0.5369 -0.3398 -0.2087
17013TIP3    H172530   5.736   2.361  13.023  1.3746 -0.2324  0.2522
17013TIP3    H272531   5.804   2.468  12.940 -0.7541  0.0458 -1.2123
17014TIP3   OH272532   4.799   6.647  14.974 -0.2831  0.5651 -0.1175
17014TIP3    H172533   4.820   6.720  14.916  0.2117  0.9588  0.5342
17014TIP3    H272534   4.837   6.673  15.058 -0.1020 -0.4453  0.1189
17015TIP3   OH272535   4.025   6.156  14.883 -0.3292  0.0835  0.2961
17015TIP3    H172536   4.021   6.101  14.961 -0.9082  0.9258  0.8862
17015TIP3    H272537   3.966   6.114  14.821 -2.1347  0.9165  1.3583
17016TIP3   OH272538   4.590   1.307  16.194  0.1833 -0.4332  0.4600
17016TIP3    H172539   4.662   1.336  16.137 -1.5613  1.0141 -1.1146
17016TIP3    H272540   4.513   1.353  16.161 -1.9504 -3.5335  0.6598
17017TIP3   OH272541   3.175   6.527  12.573  0.2513 -0.0089  0.2511
17017TIP3    H172542   3.149   6.598  12.632  0.5856  1.2670 -1.1020
17017TIP3    H272543   3.096   6.507  12.523  0.4254  0.0877 -0.0610
17018TIP3   OH272544   2.266   5.207   2.552 -0.3822  0.1392  0.0124
17018TIP3    H172545   2.212   5.134   2.584 -0.9317 -0.7560 -2.7287
17018TIP3    H272546   2.253   5.276   2.617  0.9562 -2.4236  3.3002
17019TIP3   OH272547   3.431   2.537   1.928 -0.1314 -0.2042 -0.6766
17019TIP3    H172548   3.425   2.627   1.895 -1.1707  0.8423  2.0815
17019TIP3    H272549   3.343   2.502   1.919  0.4054 -1.2432 -2.3205
17020TIP3   OH272550   3.596   4.038   5.684  0.1923 -0.0328 -0.0856
17020TIP3    H172551   3.602   4.097   5.759 -1.6276 -0.9515  0.8464
17020TIP3    H272552   3.586   4.096   5.608  0.6557  0.8804  0.5392
17021TIP3   OH272553   0.979   3.406   4.021 -0.5430  0.1473  0.7807
17021TIP3    H172554   0.939   3.368   4.100  0.0113  2.2663  2.1790
17021TIP3    H272555   1.060   3.356   4.009  0.1900  0.8032  2.5887
17022TIP3   OH272556   4.799   0.591  12.989  0.2058 -0.2334 -0.3901
17022TIP3    H172557   4.742   0.583  12.912  0.0963 -0.3869 -0.2943
17022TIP3    H272558   4.773   0.674  13.029  0.2668 -0.1503 -0.5221
17023TIP3   OH272559   1.679   5.411  16.873  0.2223 -0.5562  0.2016
17023TIP3    H172560   1.661   5.419  16.966 -0.8476 -0.8373  0.0365
17023TIP3    H272561   1.705   5.499  16.846  1.0515 -0.5919  0.8603
17024TIP3   OH272562   3.402   5.683   4.829  0.0675  0.0463 -0.2377
17024TIP3    H172563   3.446   5.616   4.777 -0.0131 -0.2998  0.1292
17024TIP3    H272564   3.326   5.638   4.867  0.4854  0.1021  0.7055
17025TIP3   OH272565   0.967   4.608  12.730 -0.2787 -0.4805  0.1588
17025TIP3    H172566   1.031   4.634  12.796  0.3510 -0.6052 -0.4010
17025TIP3    H272567   0.997   4.648  12.649  0.0028 -1.8834 -0.4503
17026TIP3   OH272568   3.161   0.298   3.563  0.0384 -0.5751  0.0506
17026TIP3    H172569   3.180   0.337   3.478  0.5050 -0.4561  0.2057
17026TIP3    H272570   3.070   0.269   3.556 -0.4405  0.8453  0.0432
17027TIP3   OH272571   2.584   5.833  17.082  0.4546 -0.2449  0.1810
17027TIP3    H172572   2.574   5.750  17.127  2.2103  0.1350  1.3853
17027TIP3    H272573   2.678   5.852  17.086 -0.0008  2.3113  0.9487
17028TIP3   OH272574   5.721   0.199   2.756  0.2220  0.1659  0.2064
17028TIP3    H172575   5.772   0.118   2.751 -0.3610 -0.1890 -0.0982
17028TIP3    H272576   5.694   0.216   2.666  0.3310  0.6962  0.2719
17029TIP3   OH272577   6.420   1.260  11.467  0.6578 -0.9116  0.1409
17029TIP3    H172578   6.343   1.209  11.445  0.4709 -1.3547  1.7430
17029TIP3    H272579   6.449   1.297  11.383 -0.6883 -1.5519 -0.6317
17030TIP3   OH272580   5.553   6.301   2.485 -0.4412  0.0210 -0.0791
17030TIP3    H172581   5.462   6.321   2.504 -0.2861  1.8744 -1.0888
17030TIP3    H272582   5.558   6.205   2.487 -2.1563 -0.0755  1.0057
17031TIP3   OH272583   4.640   5.414   5.879 -0.2704  0.1408 -0.5588
17031TIP3    H172584   4.586   5.464   5.940  0.9081  0.4434  0.2526
17031TIP3    H272585   4.730   5.439   5.899  0.1843 -0.1254 -2.0903
17032TIP3   OH272586   4.487   0.149  12.237  0.9463 -0.2411  0.3016
17032TIP3    H172587   4.448   0.191  12.160 -1.2188  0.2741  1.6011
17032TIP3    H272588   4.527   0.069  12.203 -2.3099 -1.4889 -1.0602
17033TIP3   OH272589   2.108   5.985   5.148 -0.0746  0.1284  0.1038
17033TIP3    H172590   2.045   6.041   5.194  0.8845 -0.4723  2.3014
17033TIP3    H272591   2.119   6.025   5.062 -1.3373  1.8199  0.6821
17034TIP3   OH272592   6.500   2.846   5.665  0.1048 -0.4297 -0.2603
17034TIP3    H172593   6.497   2.777   5.732 -0.5753  0.9490  1.2154
17034TIP3    H272594   6.408   2.871   5.653  0.4707  1.8955  1.1496
17035TIP3   OH272595   3.770   0.197  13.030  0.3961  0.1171  0.2760
17035TIP3    H172596   3.716   0.276  13.034  1.6138  0.9297  1.3571
17035TIP3    H272597   3.860   0.229  13.033  0.9281 -1.3564  2.3516
17036TIP3   OH272598   2.816   2.531   2.637 -0.5139  0.0908 -0.5214
17036TIP3    H172599   2.729   2.569   2.649 -0.4360 -0.0458  0.5385
17036TIP3    H272600   2.826   2.469   2.710 -0.4028 -1.5525 -1.8535
17037TIP3   OH272601   6.280   6.101   0.393  0.0056 -0.1670 -0.3669
17037TIP3    H172602   6.247   6.012   0.381  2.7353 -1.4471  0.7177
17037TIP3    H272603   6.283   6.137   0.305  0.6752 -1.9016 -1.1010
17038TIP3   OH272604   0.858   0.703  16.249  0.0172 -0.1360 -0.0571
17038TIP3    H172605   0.815   0.780  16.285 -0.1191 -1.0522  1.8913
17038TIP3    H272606   0.847   0.636  16.317  0.5503 -1.7234 -1.4800
17039TIP3   OH272607   2.934   1.768   4.508 -0.0057 -0.1664 -0.0020
17039TIP3    H172608   2.891   1.699   4.557 -0.8415  0.5159  0.2474
17039TIP3    H272609   2.892   1.768   4.423  0.0163  0.0088 -0.0146
17040TIP3   OH272610   5.442   4.772   1.567 -0.2462 -0.0347  0.4697
17040TIP3    H172611   5.496   4.835   1.614 -1.2101 -0.2864  1.9757
17040TIP3    H272612   5.359   4.772   1.614 -0.4906 -1.9556  0.1319
17041TIP3   OH272613   4.545   5.528   4.870  0.1501 -0.2096 -0.2480
17041TIP3    H172614   4.456   5.501   4.892  0.6475 -0.8129  1.1942
17041TIP3    H272615   4.570   5.470   4.798 -0.5026 -0.2490 -0.4558
17042TIP3   OH272616   5.601   3.409  13.289  0.0826 -0.6164  0.2237
17042TIP3    H172617   5.568   3.446  13.207 -0.4649  1.0534  1.1609
17042TIP3    H272618   5.525   3.366  13.328 -0.2391  0.5133  0.8859
17043TIP3   OH272619   2.706   4.620   3.585  0.0546  0.3108 -0.5437
17043TIP3    H172620   2.627   4.594   3.633 -0.0453 -0.9097 -1.3335
17043TIP3    H272621   2.776   4.569   3.627 -0.1416 -1.3303 -2.1075
17044TIP3   OH272622   0.235   2.623  16.847  0.1894  0.4105 -0.1213
17044TIP3    H172623   0.302   2.657  16.905  0.1299  2.7993 -1.3269
17044TIP3    H272624   0.173   2.579  16.905  1.8247 -0.2398  1.2004
17045TIP3   OH272625   6.033   2.631  14.476  0.6376  0.5806 -0.5665
17045TIP3    H172626   6.032   2.551  14.529  1.8179  0.8318 -0.1302
17045TIP3    H272627   6.103   2.616  14.412  1.1024  1.3937 -0.2599
17046TIP3   OH272628   3.629   4.982   0.826 -0.6589  0.3891  0.1312
17046TIP3    H172629   3.632   5.010   0.918  2.1492 -0.3747  0.3614
17046TIP3    H272630   3.611   5.062   0.778 -2.6504  0.7336  1.3187
17047TIP3   OH272631   4.742   0.191  17.009  0.4821  0.3345 -0.0662
17047TIP3    H172632   4.751   0.097  16.993 -0.5737 -0.0290  1.3111
17047TIP3    H272633   4.785   0.205  17.094  1.9882  1.3945 -0.9506
17048TIP3   OH272634   1.476   0.412   4.463 -0.8377  0.6978 -0.3487
17048TIP3    H172635   1.390   0.403   4.423 -0.3342 -1.2599 -1.1267
17048TIP3    H272636   1.477   0.345   4.532 -0.4385  1.6900  0.6450
17049TIP3   OH272637   4.745   5.502  11.879  0.3215  0.3506 -0.1420
17049TIP3    H172638   4.763   5.502  11.785  2.6195  0.7578  0.2303
17049TIP3    H272639   4.726   5.594  11.900  0.9587  0.4687 -0.0490
17050TIP3   OH272640   1.031   4.324   4.359  0.1335 -0.2519 -0.0980
17050TIP3    H172641   1.040   4.303   4.266 -1.8258 -0.1725 -0.3464
17050TIP3    H272642   1.079   4.254   4.404  1.2019 -0.2288 -1.1403
17051TIP3   OH272643   0.102   0.421  12.126 -0.0676  0.0464  0.0963
17051TIP3    H172644   0.017   0.439  12.166 -0.5198 -0.6208 -0.5455
17051TIP3    H272645   0.123   0.501  12.078 -0.0506  0.4303  0.7281
17052TIP3   OH272646   0.523   1.770   4.085  0.4912 -0.5404 -0.3810
17052TIP3    H172647   0.602   1.822   4.069 -1.4866  1.9435 -3.0987
17052TIP3    H272648   0.523   1.704   4.016  0.1508 -0.5312 -0.3890
17053TIP3   OH272649   2.091   3.229   3.604 -0.2659  0.1305 -0.0170
17053TIP3    H172650   2.066   3.320   3.621  0.5255  0.4126 -0.3217
17053TIP3    H272651   2.132   3.200   3.686 -0.2858  0.1297 -0.0070
17054TIP3   OH272652   4.580   1.579  16.091  0.2821  0.5260 -0.1004
17054TIP3    H172653   4.498   1.574  16.140  0.5089 -0.1238  0.2188
17054TIP3    H272654   4.557   1.628  16.011 -0.5010  0.0046 -0.2052
17055TIP3   OH272655   6.742   0.931   0.168  0.4489  0.0269 -0.2535
17055TIP3    H172656   6.677   0.950   0.235  0.4002 -0.7065 -0.0848
17055TIP3    H272657   6.746   1.011   0.115 -1.4628 -0.3423 -1.0076
17056TIP3   OH272658   5.336   6.314  12.303 -0.1051  0.3239  0.4269
17056TIP3    H172659   5.277   6.369  12.253 -1.8415 -0.6211  1.3354
17056TIP3    H272660   5.361   6.244  12.243  0.2811  0.8381 -0.0223
17057TIP3   OH272661   2.006   1.536   5.291  0.3030  0.2994 -0.2775
17057TIP3    H172662   2.065   1.608   5.269 -0.4637  0.1598 -3.2423
17057TIP3    H272663   1.946   1.531   5.217 -1.2369 -1.8107  1.0044
17058TIP3   OH272664   2.640   0.939  16.368 -0.0419  0.2239  0.3351
17058TIP3    H172665   2.653   1.034  16.366  1.4152  0.0493 -0.1526
17058TIP3    H272666   2.649   0.916  16.461  3.5358  0.1636  0.1247
17059TIP3   OH272667   3.986   6.701   4.964 -0.4024 -0.0131  0.3851
17059TIP3    H172668   3.944   6.675   4.882  0.0771 -3.4979  1.0777
17059TIP3    H272669   3.949   6.641   5.029  0.0633  1.9222  2.5300
17060TIP3   OH272670   2.866   1.074   1.143  0.0585 -0.5425  0.0157
17060TIP3    H172671   2.842   1.141   1.080 -0.1341 -0.8130 -0.2020
17060TIP3    H272672   2.852   1.115   1.229  0.8718  0.0186 -0.1104
17061TIP3   OH272673   3.822   5.071   1.063  0.0935 -0.6917  0.3739
17061TIP3    H172674   3.826   5.044   1.155  1.1667  0.3494  0.6613
17061TIP3    H272675   3.902   5.036   1.024  1.2336  1.4746  0.6225
17062TIP3   OH272676   5.119   4.867  16.314  0.1174  0.1431 -0.1608
17062TIP3    H172677   5.093   4.957  16.336  0.5312  0.5008 -1.0788
17062TIP3    H272678   5.214   4.872  16.303  0.1025 -0.3442 -0.5184
17063TIP3   OH272679   6.821   4.357  15.954 -0.3679  0.1466 -0.1374
17063TIP3    H172680   6.804   4.279  15.902  1.0308  0.6971 -1.5117
17063TIP3    H272681   6.744   4.413  15.940 -0.7438 -0.4040 -0.2827
17064TIP3   OH272682   5.790   3.854   2.127 -0.5108  0.0800  0.0876
17064TIP3    H172683   5.778   3.855   2.032 -0.1026  0.3613  0.0356
17064TIP3    H272684   5.820   3.942   2.149 -1.7944  0.4001  0.6501
17065TIP3   OH272685   6.545   5.178   4.753 -0.0369 -0.1812  0.1152
17065TIP3    H172686   6.625   5.208   4.797  0.1607  0.4848 -0.6790
17065TIP3    H272687   6.562   5.085   4.735  0.3444 -0.1737  0.4002
17066TIP3   OH272688   2.298   1.368   2.669  0.0143 -0.0991  0.0403
17066TIP3    H172689   2.383   1.342   2.703 -0.3558 -1.8765 -0.2750
17066TIP3    H272690   2.260   1.286   2.635 -1.7364  0.6858  0.0134
17067TIP3   OH272691   2.154   1.664  16.571  0.4420 -0.6147 -0.0958
17067TIP3    H172692   2.240   1.669  16.614  0.4910  0.6970 -0.2911
17067TIP3    H272693   2.108   1.742  16.601 -1.6561 -2.4981  1.9492
17068TIP3   OH272694   6.092   4.869  12.043 -0.1821  0.4637 -0.0029
17068TIP3    H172695   6.043   4.938  11.998  0.5322  0.2396 -1.1436
17068TIP3    H272696   6.095   4.899  12.134  0.7681  2.3347 -0.5962
17069TIP3   OH272697   6.578   0.557   1.178 -0.1174 -0.0591 -0.4793
17069TIP3    H172698   6.560   0.572   1.086 -1.3664  2.5057  0.0774
17069TIP3    H272699   6.501   0.590   1.224  1.0632  0.1353  1.5257
17070TIP3   OH272700   1.571   5.514   3.120 -0.2750  0.0573 -0.1680
17070TIP3    H172701   1.624   5.485   3.195 -0.3187 -1.4315 -0.6834
17070TIP3    H272702   1.628   5.501   3.044 -0.0565  2.0140 -0.3894
17071TIP3   OH272703   5.658   6.673   3.458 -0.1895 -0.1560 -0.2486
17071TIP3    H172704   5.643   6.637   3.370  0.5203  1.3443 -1.0084
17071TIP3    H272705   5.736   6.628   3.489 -0.9221 -1.3131 -0.0147
17072TIP3   OH272706   1.429   6.104  13.798  0.0930  0.1566  0.2980
17072TIP3    H172707   1.336   6.084  13.797 -0.1460  1.2512  0.2357
17072TIP3    H272708   1.466   6.050  13.728 -0.4801 -0.2924  0.3363
17073TIP3   OH272709   6.394   2.282   2.211 -0.2847 -0.5340  0.5082
17073TIP3    H172710   6.456   2.278   2.284  1.6250  0.1267 -0.9814
17073TIP3    H272711   6.433   2.225   2.144 -1.0095  0.3291 -0.6743
17074TIP3   OH272712   0.826   5.407   0.348  0.0558  0.2826 -0.2039
17074TIP3    H172713   0.790   5.490   0.381  0.6856  0.6680 -0.4667
17074TIP3    H272714   0.896   5.386   0.410  2.4391  1.9186 -2.1902
17075TIP3   OH272715   5.846   5.335   0.586  0.6658  0.5288  0.1474
17075TIP3    H172716   5.897   5.290   0.653  0.4852  2.3233  1.5776
17075TIP3    H272717   5.893   5.417   0.572  0.7449  0.1600 -2.0435
17076TIP3   OH272718   0.575   1.855  12.745 -0.1309  0.2940  0.0403
17076TIP3    H172719   0.671   1.851  12.747 -0.1605 -0.2054  1.1456
17076TIP3    H272720   0.555   1.901  12.664  0.9845 -1.6338 -1.4267
17077TIP3   OH272721   4.721   5.598   0.444  0.1898 -0.1081  0.3174
17077TIP3    H172722   4.721   5.690   0.471  0.9030 -0.1276  0.4039
17077TIP3    H272723   4.807   5.585   0.405 -0.1923 -0.5443 -0.3902
17078TIP3   OH272724   2.923   2.072   6.619 -0.7558 -0.3471 -0.8899
17078TIP3    H172725   3.000   2.061   6.675 -0.6269 -1.0094 -1.1926
17078TIP3    H272726   2.951   2.043   6.532 -1.1766 -0.0383 -1.1369
17079TIP3   OH272727   1.303   0.589   4.927 -0.0237  0.0816  0.2722
17079TIP3    H172728   1.390   0.626   4.914 -0.3656  0.2818 -1.7810
17079TIP3    H272729   1.244   0.664   4.924 -0.2983 -0.0033  2.0443
17080TIP3   OH272730   5.064   5.959  14.035 -0.9729 -0.6763 -0.1590
17080TIP3    H172731   5.148   5.920  14.010 -0.5521 -0.3474  0.6886
17080TIP3    H272732   5.086   6.020  14.105 -1.8342 -0.0830 -0.3834
17081TIP3   OH272733   0.609   6.167  11.357  0.4911 -0.2007  0.1029
17081TIP3    H172734   0.571   6.222  11.289  1.9862 -2.0668 -2.4197
17081TIP3    H272735   0.661   6.227  11.411 -0.5376  1.2979 -0.5239
17082TIP3   OH272736   4.824   3.311  16.160 -0.3055  0.3006 -0.5301
17082TIP3    H172737   4.898   3.330  16.101  0.8711 -0.9652  0.4594
17082TIP3    H272738   4.770   3.390  16.157  0.8336  1.0839 -1.6563
17083TIP3   OH272739   0.619   3.498   0.902 -1.1094  0.2903  0.3340
17083TIP3    H172740   0.589   3.412   0.873 -0.0838  0.5381 -1.5959
17083TIP3    H272741   0.702   3.481   0.947 -1.3430  0.1912  0.7322
17084TIP3   OH272742   0.248   6.700  15.405 -0.1361  0.3176 -0.1725
17084TIP3    H172743   0.226   6.613  15.438  0.3647  1.3651  3.3691
17084TIP3    H272744   0.167   6.750  15.412  0.6123  1.2968  2.3900
17085TIP3   OH272745   6.247   4.769  12.418  0.4508  0.5298  0.5900
17085TIP3    H172746   6.241   4.813  12.503  0.3014  1.0015  0.3373
17085TIP3    H272747   6.286   4.834  12.360 -1.7623  1.1406 -0.3282
17086TIP3   OH272748   1.996   5.019   5.785 -0.5270  0.2713 -0.0749
17086TIP3    H172749   2.045   4.965   5.722 -0.2205 -0.5555  0.8351
17086TIP3    H272750   2.061   5.040   5.852 -1.1334  0.1527  0.5525
17087TIP3   OH272751   5.466   1.717  13.557  0.2330 -0.3897 -0.4780
17087TIP3    H172752   5.408   1.722  13.632  0.9145 -1.8887  0.1942
17087TIP3    H272753   5.525   1.792  13.566 -0.5413  0.1932 -0.2631
17088TIP3   OH272754   3.444   1.152  14.617  0.5712 -0.3113  0.1883
17088TIP3    H172755   3.446   1.167  14.523  0.9579 -3.0174 -0.3394
17088TIP3    H272756   3.403   1.230  14.654  0.0413  0.6370 -2.2458
17089TIP3   OH272757   1.181   3.869  14.109  0.1683  0.7884  0.2621
17089TIP3    H172758   1.123   3.820  14.168 -0.4523  0.1078 -0.8969
17089TIP3    H272759   1.253   3.897  14.166  0.5539 -1.4398  1.0106
17090TIP3   OH272760   3.511   0.336  14.186 -0.1551 -0.3523  0.1560
17090TIP3    H172761   3.442   0.357  14.123 -0.2717 -0.1519  0.3504
17090TIP3    H272762   3.467   0.334  14.270  0.1011 -0.0932  0.2977
17091TIP3   OH272763   2.329   2.586   3.120 -0.4500 -0.1583 -0.6453
17091TIP3    H172764   2.387   2.587   3.196 -1.0233 -0.5244 -0.1954
17091TIP3    H272765   2.336   2.497   3.085 -1.8596 -0.6932  0.3122
17092TIP3   OH272766   2.555   0.190  12.601  0.9644  0.1657 -0.1239
17092TIP3    H172767   2.495   0.124  12.565 -0.1216  0.3704  1.2319
17092TIP3    H272768   2.617   0.206  12.530  0.0349 -0.8198 -1.2177
17093TIP3   OH272769   2.959   3.910   2.700  0.2368  0.3375  0.4137
17093TIP3    H172770   2.998   3.943   2.781  1.7332  1.4578 -0.7142
17093TIP3    H272771   3.021   3.844   2.668  0.4074  0.9573 -0.5614
17094TIP3   OH272772   3.416   1.146   0.491 -0.2640  0.7461 -0.3232
17094TIP3    H172773   3.467   1.067   0.474 -0.3201  0.3736  1.1341
17094TIP3    H272774   3.443   1.207   0.423  0.2117 -0.3268 -1.1188
17095TIP3   OH272775   3.297   1.959  12.347  0.2276  0.0346 -0.2525
17095TIP3    H172776   3.257   1.879  12.381 -0.5895  0.8938  0.9168
17095TIP3    H272777   3.265   1.967  12.258  0.3128 -0.9319 -0.3782
17096TIP3   OH272778   1.117   4.299  12.735  0.2452  0.0951 -0.0807
17096TIP3    H172779   1.137   4.391  12.751  0.5083  0.3184 -1.5245
17096TIP3    H272780   1.061   4.273  12.808 -0.1125  1.4844  0.1612
17097TIP3   OH272781   4.681   0.991  15.512 -0.0092  0.0779  0.2065
17097TIP3    H172782   4.654   0.919  15.569 -0.4800 -0.4224 -0.6309
17097TIP3    H272783   4.740   0.951  15.449 -1.8330 -0.0576 -1.5362
17098TIP3   OH272784   5.819   1.084   4.919 -0.1701 -0.1569  0.3082
17098TIP3    H172785   5.907   1.091   4.955 -0.3902  3.0430  0.5429
17098TIP3    H272786   5.821   1.004   4.866  2.8822 -0.1753  0.2655
17099TIP3   OH272787   6.802   6.505   2.293 -0.5914  0.1288  0.1152
17099TIP3    H172788   6.755   6.537   2.216 -0.5908  1.7560  0.7542
17099TIP3    H272789   6.813   6.582   2.348  0.2596 -0.8135  1.3167
17100TIP3   OH272790   3.412   1.649  13.677  0.3199  0.1277 -0.5061
17100TIP3    H172791   3.371   1.579  13.626  0.1847 -1.0593  1.1755
17100TIP3    H272792   3.365   1.728  13.650 -1.6103 -0.8700 -0.2298
17101TIP3   OH272793   3.820   2.159   0.773  0.3684  0.3228 -0.1557
17101TIP3    H172794   3.845   2.077   0.815 -0.1549  0.1032 -0.2623
17101TIP3    H272795   3.772   2.207   0.841  1.3944  0.9116  0.1726
17102TIP3   OH272796   4.143   5.388  10.218 -0.5389 -0.2251  0.2480
17102TIP3    H172797   4.103   5.396  10.131  3.8848 -0.8219 -2.1331
17102TIP3    H272798   4.171   5.297  10.224  0.1944  0.0675  1.8810
17103TIP3   OH272799   6.818   2.348  12.753 -0.3234 -0.1469 -0.1847
17103TIP3    H172800   6.848   2.265  12.715  1.1204 -0.4598  1.5155
17103TIP3    H272801   6.726   2.332  12.776 -0.0819 -1.2645  0.0618
17104TIP3   OH272802   6.834   5.178   2.803  0.3542  0.0474  0.1614
17104TIP3    H172803   6.918   5.176   2.849  1.1348  0.6018 -1.1965
17104TIP3    H272804   6.778   5.120   2.854  1.1281  0.7425  1.8991
17105TIP3   OH272805   4.926   3.169  16.664  0.1374  0.0257 -0.3797
17105TIP3    H172806   4.910   3.115  16.742  1.8765 -0.6031 -0.4140
17105TIP3    H272807   4.947   3.256  16.699  1.1751 -0.3186 -0.1006
17106TIP3   OH272808   1.522   5.282   0.081 -0.2388 -0.1066 -0.4019
17106TIP3    H172809   1.576   5.232   0.020  1.1710  3.5759 -2.4994
17106TIP3    H272810   1.432   5.269   0.050 -0.2907 -3.2695  0.7853
17107TIP3   OH272811   0.268   3.164   3.259 -0.2544 -0.5156 -0.2908
17107TIP3    H172812   0.308   3.228   3.199 -2.3073  1.9692  0.7490
17107TIP3    H272813   0.310   3.180   3.343 -1.9854  0.8481  0.3854
17108TIP3   OH272814   6.205   1.031  12.924 -0.2250 -0.1559  0.1673
17108TIP3    H172815   6.152   1.037  12.845  0.9264 -0.8077 -0.7029
17108TIP3    H272816   6.295   1.025  12.892  0.2859 -0.3010  1.5372
17109TIP3   OH272817   5.413   4.490   2.750  0.2801 -0.2388  0.4242
17109TIP3    H172818   5.426   4.527   2.837 -1.5161 -1.5987  1.3423
17109TIP3    H272819   5.487   4.431   2.738  1.3538  1.0880  0.3563
17110TIP3   OH272820   5.741   0.621   4.725 -0.2571 -0.6224  0.1258
17110TIP3    H172821   5.770   0.549   4.669 -1.7797 -0.9221 -0.3251
17110TIP3    H272822   5.647   0.607   4.734 -0.9056  2.1492 -1.2472
17111TIP3   OH272823   4.825   0.903  13.008  0.3094 -0.0835 -0.1517
17111TIP3    H172824   4.809   0.997  12.997  0.1941  0.1149  1.4404
17111TIP3    H272825   4.909   0.888  12.965  0.5704  0.8444  0.0095
17112TIP3   OH272826   2.463   6.651  16.449 -0.2512  0.0285 -0.7460
17112TIP3    H172827   2.445   6.558  16.458  1.4956 -0.2142  0.7142
17112TIP3    H272828   2.421   6.691  16.526 -0.4592  0.3825 -1.0370
17113TIP3   OH272829   4.220   5.160  13.091  0.4479 -0.3257  0.1009
17113TIP3    H172830   4.191   5.242  13.051 -1.9990 -1.6951 -1.1965
17113TIP3    H272831   4.314   5.159  13.078  0.2035  0.9699 -2.4863
17114TIP3   OH272832   1.391   2.608   4.839  0.0361 -0.3153 -0.0833
17114TIP3    H172833   1.334   2.655   4.778 -0.2296 -0.1865  0.2567
17114TIP3    H272834   1.380   2.516   4.816 -0.3793 -0.2979  0.0330
17115TIP3   OH272835   1.837   2.431   2.278  0.0532  0.4191 -0.3921
17115TIP3    H172836   1.804   2.486   2.349 -0.4198 -0.1151 -0.1873
17115TIP3    H272837   1.901   2.485   2.232 -0.9121  1.3843 -0.6311
17116TIP3   OH272838   3.387   5.719   3.764  0.1050 -0.1430 -0.2474
17116TIP3    H172839   3.476   5.716   3.798 -0.4027 -1.1380  1.0839
17116TIP3    H272840   3.337   5.767   3.831 -1.0072 -2.5248  0.7240
17117TIP3   OH272841   2.180   3.604   5.816 -0.4487  0.4338  0.3879
17117TIP3    H172842   2.215   3.689   5.789  1.4642 -0.1944  0.7398
17117TIP3    H272843   2.127   3.624   5.894 -0.2476  1.3389  0.3049
17118TIP3   OH272844   1.239   6.838  14.200  0.0994  0.2295  0.3893
17118TIP3    H172845   1.205   6.924  14.178 -0.2007  0.1408  0.4933
17118TIP3    H272846   1.282   6.850  14.285  1.1659  0.5479 -0.1773
17119TIP3   OH272847   6.557   5.677   5.868 -0.6232  0.4479 -0.4937
17119TIP3    H172848   6.630   5.685   5.807 -0.5725  0.2989 -0.4526
17119TIP3    H272849   6.522   5.589   5.852 -0.0388  0.0566  0.3347
17120TIP3   OH272850   4.044   1.226   2.451 -0.3206 -0.6955 -0.2801
17120TIP3    H172851   4.090   1.149   2.417  0.1735 -1.3998  1.8361
17120TIP3    H272852   3.965   1.191   2.492 -0.6890  0.0676 -0.3175
17121TIP3   OH272853   4.128   2.052   3.309  0.1053  0.2911 -0.0198
17121TIP3    H172854   4.147   1.996   3.234  0.7493  0.4437  0.0256
17121TIP3    H272855   4.088   1.994   3.373 -1.5230  0.3803 -0.9014
17122TIP3   OH272856   5.618   5.704  16.179 -0.6154  0.0971 -0.0738
17122TIP3    H172857   5.527   5.680  16.164 -0.1001 -2.1282  0.0845
17122TIP3    H272858   5.638   5.670  16.266  0.2492  0.9636  0.0827
17123TIP3   OH272859   1.941   4.285  13.999 -0.1012  0.2614 -0.2990
17123TIP3    H172860   1.876   4.350  14.027  1.3846  1.4523  0.5164
17123TIP3    H272861   1.974   4.318  13.916 -0.3405 -0.2022 -0.5814
17124TIP3   OH272862   3.562   6.025   9.971 -0.6227 -0.0310 -0.4495
17124TIP3    H172863   3.577   5.988  10.058  1.1187  0.7339 -0.3924
17124TIP3    H272864   3.640   6.078   9.953 -1.5410  0.8889 -1.9316
17125TIP3   OH272865   5.251   4.803   0.629 -0.2835  0.2451 -0.2002
17125TIP3    H172866   5.260   4.773   0.720  1.4048 -1.1993 -0.7954
17125TIP3    H272867   5.173   4.859   0.630  0.0947  0.8347  2.2704
17126TIP3   OH272868   0.338   0.542  11.843  0.4594  0.4609  0.0161
17126TIP3    H172869   0.394   0.481  11.891 -0.1632  0.2381  0.4809
17126TIP3    H272870   0.358   0.527  11.751  2.0981  1.2952  0.2098
17127TIP3   OH272871   3.084   3.150   6.553  0.0503  0.3138  0.2164
17127TIP3    H172872   3.071   3.135   6.459 -1.5912  0.6439  0.3587
17127TIP3    H272873   3.104   3.243   6.560  1.3746  0.0477  0.1017
17128TIP3   OH272874   0.971   3.126  13.391  0.6074 -0.1338 -0.8488
17128TIP3    H172875   0.909   3.195  13.415 -0.4634 -1.4205  0.3405
17128TIP3    H272876   0.943   3.051  13.443  1.4048 -1.6253 -2.4769
17129TIP3   OH272877   1.459   5.899   2.840 -0.1918 -0.3357 -0.7166
17129TIP3    H172878   1.471   5.827   2.777  1.1600 -0.7036 -0.0825
17129TIP3    H272879   1.471   5.858   2.925  2.5949  0.9365 -0.3945
17130TIP3   OH272880   1.445   6.780   1.705 -0.1910  0.2025  0.2854
17130TIP3    H172881   1.509   6.757   1.772  2.7821  0.0747 -2.3631
17130TIP3    H272882   1.417   6.696   1.668  0.2016  0.3552 -0.3646
17131TIP3   OH272883   2.043   3.648   4.595  0.5773 -0.2850 -0.2467
17131TIP3    H172884   2.044   3.689   4.682 -0.3021 -0.9964  0.1122
17131TIP3    H272885   1.963   3.681   4.554  0.6845 -0.4162 -0.5625
17132TIP3   OH272886   4.443   0.390   2.578  0.1818 -0.0352 -0.1984
17132TIP3    H172887   4.502   0.424   2.510 -1.3521  0.3299 -1.4000
17132TIP3    H272888   4.357   0.387   2.536 -0.5406 -1.2730  1.2615
17133TIP3   OH272889   5.818   5.119  13.547 -0.0338 -0.1279  0.6421
17133TIP3    H172890   5.815   5.030  13.511  1.2433  0.2664 -0.5165
17133TIP3    H272891   5.798   5.107  13.640  0.9540 -1.7501  0.6975
17134TIP3   OH272892   5.641   4.887   0.455 -0.1219  0.0191  0.1862
17134TIP3    H172893   5.698   4.852   0.523  3.5364  1.9979 -1.5342
17134TIP3    H272894   5.653   4.826   0.381  0.3949  0.8011 -0.3986
17135TIP3   OH272895   6.044   0.204  15.089 -0.3749  0.4221  0.1142
17135TIP3    H172896   6.043   0.150  15.168 -0.2331  0.1200 -0.0877
17135TIP3    H272897   5.951   0.212  15.065 -0.4853  1.1380  0.7209
17136TIP3   OH272898   5.331   0.437  11.453  0.2594  0.1155 -0.6033
17136TIP3    H172899   5.326   0.530  11.430 -0.3274 -0.3390 -2.5286
17136TIP3    H272900   5.399   0.402  11.396  1.5896 -0.3868  1.2071
17137TIP3   OH272901   4.001   6.188  13.264  0.4786 -0.0128 -0.4144
17137TIP3    H172902   4.050   6.269  13.279  1.1207 -0.5582  0.5182
17137TIP3    H272903   3.915   6.204  13.303  1.3549 -0.5691  1.8749
17138TIP3   OH272904   4.245   5.314   3.052  0.4631 -0.1555  0.4609
17138TIP3    H172905   4.280   5.359   3.129 -0.3299  0.9840  0.1719
17138TIP3    H272906   4.238   5.222   3.080  1.9098 -0.0926  1.1186
17139TIP3   OH272907   5.500   1.818   2.734 -0.1033  0.3714  0.4218
17139TIP3    H172908   5.481   1.853   2.647  0.1261  3.5314  1.4875
17139TIP3    H272909   5.440   1.744   2.744  0.7116 -0.9034 -2.8051
17140TIP3   OH272910   5.190   2.743   0.398  0.0067 -0.0668  0.0950
17140TIP3    H172911   5.143   2.681   0.342  0.7013 -0.8361  0.3345
17140TIP3    H272912   5.171   2.713   0.487 -0.3164  0.5690  0.2425
17141TIP3   OH272913   5.283   6.120   2.055 -0.2252  0.2235  0.1299
17141TIP3    H172914   5.209   6.169   2.091  0.2641  1.1789 -0.1384
17141TIP3    H272915   5.349   6.121   2.125 -0.1562  0.0568  0.0688
17142TIP3   OH272916   6.632   2.735  15.653 -0.8783  0.0769  0.2239
17142TIP3    H172917   6.641   2.776  15.739 -2.2871  0.1615  0.3661
17142TIP3    H272918   6.714   2.688  15.640 -0.7704 -0.2245  1.7569
17143TIP3   OH272919   3.267   2.194  11.953  0.0079  0.8442 -0.5849
17143TIP3    H172920   3.279   2.269  11.895  2.8101  0.4912 -0.5748
17143TIP3    H272921   3.288   2.118  11.899 -1.2628  0.1500 -0.1562
17144TIP3   OH272922   2.187   3.117   2.901  0.0166 -0.2163  0.5330
17144TIP3    H172923   2.278   3.092   2.917 -0.0146  0.4439  1.7998
17144TIP3    H272924   2.140   3.091   2.980 -1.0813 -1.2984 -0.4154
17145TIP3   OH272925   4.304   4.833   0.240  0.6883  0.3012 -0.9680
17145TIP3    H172926   4.249   4.895   0.289 -0.2968 -0.3926 -1.1637
17145TIP3    H272927   4.394   4.860   0.260  0.3543 -0.1581  1.4918
17146TIP3   OH272928   2.583   6.443   1.276 -0.1054  0.2579  0.3343
17146TIP3    H172929   2.593   6.358   1.234 -0.6733  0.3021  0.0988
17146TIP3    H272930   2.575   6.505   1.203  1.4079  0.6778  0.4739
17147TIP3   OH272931   6.156   0.713   4.042 -0.3992  0.0568 -0.0139
17147TIP3    H172932   6.189   0.761   3.966 -0.2486  1.0425  0.6481
17147TIP3    H272933   6.117   0.781   4.098 -1.9507 -0.8588  0.0546
17148TIP3   OH272934   4.150   3.178   5.776  0.2185 -0.6046 -0.4601
17148TIP3    H172935   4.085   3.118   5.811  0.9902 -1.3400 -0.2482
17148TIP3    H272936   4.200   3.125   5.713  1.4266 -0.4365  0.3291
17149TIP3   OH272937   2.876   4.364  15.057  0.0426 -0.4285 -0.3387
17149TIP3    H172938   2.836   4.382  15.141 -0.8399 -0.0950 -0.8206
17149TIP3    H272939   2.831   4.422  14.995 -0.5628 -1.9172 -1.3513
17150TIP3   OH272940   6.117   1.595  13.194  0.3036  0.3242  0.2656
17150TIP3    H172941   6.114   1.583  13.289 -1.3934 -1.4591  0.0547
17150TIP3    H272942   6.180   1.666  13.181  0.4791  0.7183  2.7168
17151TIP3   OH272943   5.579   3.449  16.093  0.1787 -0.2092 -0.3624
17151TIP3    H172944   5.657   3.505  16.084 -0.2750  0.5868  0.5911
17151TIP3    H272945   5.588   3.385  16.021  1.3680  0.2719 -0.6700
17152TIP3   OH272946   3.458   3.718  11.487 -0.2387  0.4324  0.3638
17152TIP3    H172947   3.408   3.718  11.406 -0.3935 -0.7753  0.4503
17152TIP3    H272948   3.429   3.798  11.532 -3.1194 -0.8210  0.9941
17153TIP3   OH272949   2.663   4.501   4.576  0.0058 -0.1473  0.0909
17153TIP3    H172950   2.600   4.539   4.514 -0.3155  0.3013  0.6871
17153TIP3    H272951   2.748   4.517   4.536 -0.2520 -1.0570 -0.8937
17154TIP3   OH272952   2.384   2.263  12.919 -0.0305 -0.0092 -0.5337
17154TIP3    H172953   2.445   2.332  12.944  1.8224 -2.4282  2.3016
17154TIP3    H272954   2.337   2.242  12.999 -1.5382 -1.1178 -1.6537
17155TIP3   OH272955   0.923   1.632  12.158 -0.3481  0.2164 -0.0434
17155TIP3    H172956   1.014   1.630  12.130 -0.5781 -0.3771 -0.7785
17155TIP3    H272957   0.888   1.546  12.133 -1.2909  0.6942 -0.4292
17156TIP3   OH272958   2.348   5.385  12.163 -0.2786  0.7772  0.5204
17156TIP3    H172959   2.338   5.336  12.245  3.0741 -0.5902  0.2965
17156TIP3    H272960   2.421   5.445  12.180 -0.0282  1.0132 -1.2068
17157TIP3   OH272961   4.989   2.326  16.248  0.0747 -0.4602  0.0717
17157TIP3    H172962   5.068   2.312  16.196  0.5347  1.6439  0.1350
17157TIP3    H272963   4.919   2.335  16.182 -0.2038 -2.4603  0.0194
17158TIP3   OH272964   2.982   5.609   2.201  0.5232 -0.7306  0.1479
17158TIP3    H172965   2.925   5.608   2.277  1.6674  0.1184  1.0485
17158TIP3    H272966   2.968   5.524   2.159 -2.3607 -0.0533 -0.4446
17159TIP3   OH272967   3.819   1.265  13.409 -0.1651  0.2716  0.4574
17159TIP3    H172968   3.841   1.336  13.349 -1.6586  0.8066  0.5175
17159TIP3    H272969   3.774   1.200  13.355 -2.0790  1.0292  1.0461
17160TIP3   OH272970   2.599   1.724  12.032 -0.0913  0.4227  0.4285
17160TIP3    H172971   2.530   1.658  12.033  0.9372 -0.6938  0.8633
17160TIP3    H272972   2.557   1.804  12.063 -1.3987  0.0169 -0.2397
17161TIP3   OH272973   2.926   0.332  10.954 -0.0765 -0.2665  0.3222
17161TIP3    H172974   2.947   0.300  11.042 -0.8981  0.0388  0.6501
17161TIP3    H272975   2.854   0.394  10.969  1.1150  1.3593 -0.3263
17162TIP3   OH272976   5.244   2.281  13.784  0.5720 -0.2263 -0.3830
17162TIP3    H172977   5.322   2.336  13.770 -0.2048  0.9196 -0.3843
17162TIP3    H272978   5.207   2.312  13.866 -0.5613  0.1114 -0.9912
17163TIP3   OH272979   6.149   2.729  15.044 -0.3037  0.1713 -0.6240
17163TIP3    H172980   6.106   2.644  15.055  0.6927 -0.4969 -1.7121
17163TIP3    H272981   6.233   2.720  15.088 -1.2120  1.5177  1.5986
17164TIP3   OH272982   5.211   3.234   3.158 -0.3355  0.7430 -0.2784
17164TIP3    H172983   5.228   3.219   3.065 -0.9377  0.5364 -0.3604
17164TIP3    H272984   5.115   3.240   3.164 -0.4916 -1.7469  0.6954
17165TIP3   OH272985   2.501   1.225  11.025  0.5073  1.0468  0.3604
17165TIP3    H172986   2.512   1.282  11.102 -0.2422 -0.5968  1.7561
17165TIP3    H272987   2.515   1.283  10.950 -6.0928  4.8670  1.2705
17166TIP3   OH272988   3.984   4.695   5.615  0.1731 -0.2067  0.1822
17166TIP3    H172989   3.925   4.744   5.673  2.1629  1.6793  0.7648
17166TIP3    H272990   4.051   4.759   5.590  0.9145 -1.7140 -2.0279
17167TIP3   OH272991   6.842   3.146   3.234 -0.7721  0.2154 -0.3597
17167TIP3    H172992   6.822   3.071   3.178 -2.4567 -0.7444  1.3858
17167TIP3    H272993   6.937   3.145   3.243 -0.6377 -0.7975 -1.5841
17168TIP3   OH272994   2.381   2.755  16.681 -0.1244 -0.4077  0.2210
17168TIP3    H172995   2.344   2.753  16.592  1.4018  2.7621 -0.6145
17168TIP3    H272996   2.320   2.811  16.730 -0.2468 -1.0621  0.8195
17169TIP3   OH272997   1.400   3.687  12.146 -0.3762 -0.0273 -0.3650
17169TIP3    H172998   1.307   3.672  12.160 -0.7647  0.4142 -2.1973
17169TIP3    H272999   1.412   3.781  12.156 -0.2626  0.0092 -0.8181
17170TIP3   OH273000   3.799   0.355  14.452 -0.4685 -0.5479  0.0728
17170TIP3    H173001   3.765   0.291  14.514  1.2659 -0.2843  1.3899
17170TIP3    H273002   3.872   0.311  14.410  0.9429  0.5601  1.2078
17171TIP3   OH273003   2.395   0.606  12.659  0.0037  0.1200 -0.1514
17171TIP3    H173004   2.303   0.628  12.646  0.1617  0.4354 -0.7647
17171TIP3    H273005   2.428   0.587  12.571  0.4439 -0.3167  0.1030
17172TIP3   OH273006   1.650   4.552  15.270 -0.2357 -0.1918  0.2605
17172TIP3    H173007   1.668   4.476  15.325  1.8145 -1.9140 -2.5258
17172TIP3    H273008   1.720   4.614  15.291 -0.9361  0.2639  1.3308
17173TIP3   OH273009   0.035   1.282  16.512 -0.4750  0.0548  0.0811
17173TIP3    H173010   0.010   1.210  16.454  0.6808 -0.0367 -0.3210
17173TIP3    H273011  -0.034   1.347  16.500 -1.1183 -0.6491 -0.1423
17174TIP3   OH273012   5.504   2.065   2.342  0.0531  0.3830 -0.3522
17174TIP3    H173013   5.553   2.147   2.347 -0.1745  0.5207 -0.3808
17174TIP3    H273014   5.563   2.004   2.298  1.0448 -0.0773  1.5070
17175TIP3   OH273015   1.564   2.676  14.854 -0.3264 -0.2770  0.0150
17175TIP3    H173016   1.617   2.602  14.884 -0.7841 -1.6038 -2.1663
17175TIP3    H273017   1.515   2.641  14.779 -1.7347  1.8375 -0.1480
17176TIP3   OH273018   4.228   2.056  11.935 -0.0758 -0.2367  0.2322
17176TIP3    H173019   4.208   2.139  11.892  0.0596 -0.8547 -1.0645
17176TIP3    H273020   4.147   2.033  11.980  0.8968  2.3641  3.7891
17177TIP3   OH273021   5.763   5.688   2.904  0.4503 -0.6039  0.5195
17177TIP3    H173022   5.692   5.636   2.867 -0.1471 -0.0268  0.8415
17177TIP3    H273023   5.744   5.778   2.879 -0.4511 -0.0549  2.8914
17178TIP3   OH273024   3.892   3.084   4.832 -0.2367 -0.1850 -0.2704
17178TIP3    H173025   3.893   3.014   4.897  0.8190 -1.3962 -1.5269
17178TIP3    H273026   3.979   3.080   4.791 -0.3064  1.5906 -0.6656
17179TIP3   OH273027   4.826   0.971   0.493 -0.1553  0.2546 -0.5509
17179TIP3    H173028   4.848   0.931   0.408 -0.8713  1.1439 -1.1721
17179TIP3    H273029   4.888   1.044   0.501 -0.6542  0.7079 -0.7341
17180TIP3   OH273030   2.415   0.408   2.790 -0.4315  0.0982  0.4559
17180TIP3    H173031   2.336   0.355   2.802 -0.5911  0.7065  2.5512
17180TIP3    H273032   2.486   0.355   2.828  0.0623 -0.1163 -0.7158
17181TIP3   OH273033   1.287   3.758   1.242 -0.1867 -0.2675 -0.1241
17181TIP3    H173034   1.210   3.745   1.298 -0.1269  0.9744  0.2677
17181TIP3    H273035   1.333   3.674   1.245 -0.7005 -0.5236  0.8984
17182TIP3   OH273036   5.334   5.139   4.689  0.3059 -0.2756  0.0054
17182TIP3    H173037   5.244   5.109   4.697  0.5542 -1.3798 -0.9332
17182TIP3    H273038   5.332   5.231   4.713 -1.1423 -0.1990 -0.3428
17183TIP3   OH273039   3.773   6.437   4.430  0.7489  0.1407  0.0804
17183TIP3    H173040   3.866   6.418   4.416  1.3963  0.5433  3.1181
17183TIP3    H273041   3.746   6.375   4.498 -0.5408  1.6319  0.9970
17184TIP3   OH273042   2.480   4.819   0.335 -0.4023  0.6142 -0.1522
17184TIP3    H173043   2.474   4.876   0.258  1.8362  0.8922 -0.1841
17184TIP3    H273044   2.504   4.878   0.407 -0.6912  0.0839  0.3943
17185TIP3   OH273045   3.437   0.608  10.482 -0.1979 -0.0709  0.1720
17185TIP3    H173046   3.429   0.600  10.387 -0.2770  0.6179  0.1156
17185TIP3    H273047   3.395   0.529  10.516  1.0391 -1.0057 -0.3961
17186TIP3   OH273048   1.923   4.579  12.452 -0.5966 -0.2854 -0.5867
17186TIP3    H173049   1.837   4.545  12.475  0.3428 -2.0172  0.6672
17186TIP3    H273050   1.922   4.669  12.482 -1.8896 -0.3537 -0.3727
17187TIP3   OH273051   2.093   5.263  13.748  0.0085 -0.6301 -0.6919
17187TIP3    H173052   2.186   5.255  13.771 -0.0833 -0.0661 -0.0723
17187TIP3    H273053   2.088   5.232  13.658  0.7986 -0.6756 -0.7319
17188TIP3   OH273054   1.818   3.633  15.562 -0.3199  0.1455  0.5869
17188TIP3    H173055   1.812   3.569  15.632 -0.2630 -0.1554  0.3184
17188TIP3    H273056   1.828   3.717  15.607  0.9627 -0.1657  0.9423
17189TIP3   OH273057   5.911   1.046  13.983 -0.0599  0.3232 -0.1361
17189TIP3    H173058   5.974   0.980  14.012  0.1042  0.3094 -0.5121
17189TIP3    H273059   5.918   1.116  14.047 -1.6616 -0.8430  1.4209
17190TIP3   OH273060   2.348   2.964   0.543  0.3618  0.0755 -0.0453
17190TIP3    H173061   2.343   2.910   0.464 -1.3491 -1.1649  0.8213
17190TIP3    H273062   2.266   3.014   0.542 -0.6004 -1.3228  1.7866
17191TIP3   OH273063   6.319   3.900  13.025  0.1266 -0.3805 -0.0158
17191TIP3    H173064   6.312   3.819  12.974  0.9157 -0.9156  0.7134
17191TIP3    H273065   6.307   3.873  13.116 -2.7838  0.7661  0.0595
17192TIP3   OH273066   5.905   0.785   3.634 -1.0101  0.0316  0.4001
17192TIP3    H173067   5.837   0.784   3.566 -1.3044  2.0177  0.5941
17192TIP3    H273068   5.954   0.704   3.621 -0.3904  0.7922 -2.8617
17193TIP3   OH273069   4.132   1.359   0.899  0.2927 -0.1859 -0.0664
17193TIP3    H173070   4.197   1.321   0.958 -0.5318  0.0207  1.0048
17193TIP3    H273071   4.161   1.449   0.887  0.6462 -0.3228 -0.2513
17194TIP3   OH273072   4.873   5.312  14.821  0.2375 -0.3083  0.3338
17194TIP3    H173073   4.831   5.242  14.871 -0.0093 -0.0945  0.4254
17194TIP3    H273074   4.828   5.392  14.848 -1.1785 -0.3864 -1.6208
17195TIP3   OH273075   0.798   0.523   1.401 -0.1086 -0.1464 -0.2886
17195TIP3    H173076   0.878   0.477   1.427  0.0100  0.1549 -0.1209
17195TIP3    H273077   0.732   0.494   1.463 -0.0876 -0.2667 -0.3232
17196TIP3   OH273078   6.415   3.389   3.115 -0.1439  0.1168  0.3619
17196TIP3    H173079   6.388   3.333   3.041 -1.1781  0.9447  0.0873
17196TIP3    H273080   6.384   3.476   3.091  0.0172  0.5064  1.5300
17197TIP3   OH273081   4.625   2.975  13.112 -0.5189  0.0196  0.0345
17197TIP3    H173082   4.632   2.938  13.200  0.0064  1.1593  0.4960
17197TIP3    H273083   4.707   3.023  13.099 -0.9271  0.5266 -0.7622
17198TIP3   OH273084   6.544   5.016  13.845  0.0126  0.0833  0.2968
17198TIP3    H173085   6.635   5.023  13.819  0.4315 -1.0654  1.3489
17198TIP3    H273086   6.543   4.948  13.912 -1.5272  0.5008  0.7477
17199TIP3   OH273087   3.283   0.681  15.125  0.1224 -0.0030 -0.1677
17199TIP3    H173088   3.331   0.747  15.074  0.3632 -0.3580 -0.3976
17199TIP3    H273089   3.334   0.601  15.116  0.4963  0.0624  1.1172
17200TIP3   OH273090   4.894   2.092   4.246 -0.0680  0.0289 -0.0976
17200TIP3    H173091   4.835   2.018   4.260  2.2417 -2.0563 -0.6844
17200TIP3    H273092   4.898   2.136   4.331 -0.4873 -1.2877  0.6308
17201TIP3   OH273093   5.648   5.308   1.474  0.4697  0.1235  0.2370
17201TIP3    H173094   5.563   5.277   1.505  1.1796 -2.2065  0.0377
17201TIP3    H273095   5.637   5.402   1.465 -1.0698  0.4203  3.4970
17202TIP3   OH273096   2.768   5.255   0.289  0.3744 -0.3604 -0.0045
17202TIP3    H173097   2.696   5.305   0.250 -0.0400 -0.0427  1.1181
17202TIP3    H273098   2.730   5.169   0.307  0.8826 -0.8796 -1.2748
17203TIP3   OH273099   1.080   0.044  15.514 -0.1913  0.4766  0.2001
17203TIP3    H173100   1.030  -0.029  15.550  1.1881 -0.9601 -0.6598
17203TIP3    H273101   1.080   0.109  15.584 -0.9861 -0.5607  1.2183
17204TIP3   OH273102   6.773   6.561   5.763 -0.0087 -0.4284 -0.5766
17204TIP3    H173103   6.693   6.565   5.815  1.6149  1.3103  2.0541
17204TIP3    H273104   6.831   6.502   5.812  0.5172 -1.3476 -2.2081
17205TIP3   OH273105   0.303   5.306  11.861  0.3201  0.0945  0.1737
17205TIP3    H173106   0.292   5.234  11.798  0.0544  0.2744  0.0092
17205TIP3    H273107   0.357   5.370  11.815 -0.4541  0.5368 -0.1420
17206TIP3   OH273108   4.363   4.884   5.905  0.1791 -0.1850 -0.3835
17206TIP3    H173109   4.422   4.861   5.834 -0.1544 -1.1018 -0.3793
17206TIP3    H273110   4.374   4.813   5.970  0.0996  0.3642  0.2410
17207TIP3   OH273111   5.462   6.134   4.183  0.0207  0.6468 -0.4049
17207TIP3    H173112   5.529   6.067   4.172  0.8779  1.3303  0.4352
17207TIP3    H273113   5.394   6.091   4.234  1.9275  1.1715  2.8820
17208TIP3   OH273114   0.427   4.952  11.821  0.0063 -0.4683  0.2549
17208TIP3    H173115   0.359   4.974  11.757  0.0285  1.0123  0.6915
17208TIP3    H273116   0.502   5.004  11.794  1.1805 -2.4639 -0.5180
17209TIP3   OH273117   0.984   3.722  16.078  0.9085  0.0213 -0.1807
17209TIP3    H173118   1.033   3.786  16.026 -0.2894 -0.6034 -2.2050
17209TIP3    H273119   0.960   3.655  16.015 -2.5041  0.2906  0.6702
17210TIP3   OH273120   2.103   0.956   2.915 -0.1191  0.1691  0.4512
17210TIP3    H173121   2.068   1.021   2.975 -1.1082 -0.3817  0.4958
17210TIP3    H273122   2.155   0.898   2.971 -0.1547  0.2742  0.5950
17211TIP3   OH273123   5.802   2.450   0.444  0.1475  0.7711  0.0179
17211TIP3    H173124   5.709   2.437   0.461  0.2425 -0.6196 -0.4071
17211TIP3    H273125   5.845   2.435   0.528  0.0949  0.0023 -0.0846
17212TIP3   OH273126   5.127   2.538   1.682 -0.0715 -0.0404 -0.2640
17212TIP3    H173127   5.053   2.482   1.702  0.2224 -0.2647  0.2128
17212TIP3    H273128   5.088   2.617   1.644 -0.4844 -0.5701 -0.9665
17213TIP3   OH273129   6.497   4.194  15.804 -0.7142  0.1009 -0.3728
17213TIP3    H173130   6.499   4.290  15.803 -0.6397  0.0975 -0.8052
17213TIP3    H273131   6.524   4.169  15.715  1.8702 -0.3894  0.4865
17214TIP3   OH273132   1.438   6.694  11.324  0.1608  0.0692  0.2688
17214TIP3    H173133   1.508   6.718  11.384  0.6297 -0.3367 -0.0941
17214TIP3    H273134   1.376   6.767  11.326  0.7436  0.5620  0.3833
17215TIP3   OH273135   5.897   1.425   2.385  0.2260 -0.2190 -0.2198
17215TIP3    H173136   5.926   1.516   2.383  1.2241 -0.5276 -0.5248
17215TIP3    H273137   5.804   1.429   2.362  0.7393  0.5482 -2.4300
17216TIP3   OH273138   5.343   0.281   3.149  0.0256  0.0839 -0.7315
17216TIP3    H173139   5.263   0.260   3.196 -0.8036  0.6943 -1.8129
17216TIP3    H273140   5.378   0.196   3.122 -0.9998 -0.1331 -1.4150
17217TIP3   OH273141   3.186   2.733   6.054 -0.3246 -0.0900 -0.0557
17217TIP3    H173142   3.255   2.707   6.115  0.4124 -0.3660 -0.9859
17217TIP3    H273143   3.228   2.732   5.969 -1.6608 -0.9496 -0.7371
17218TIP3   OH273144   4.717   5.327  12.884 -0.1418  0.0504 -0.2948
17218TIP3    H173145   4.721   5.349  12.791 -1.2452  1.6568  0.0032
17218TIP3    H273146   4.786   5.379  12.925 -1.2663  1.2787  0.0993
17219TIP3   OH273147   1.273   6.269  11.691  0.1742 -0.6871  0.0453
17219TIP3    H173148   1.300   6.177  11.688  1.0306 -0.4577  0.6747
17219TIP3    H273149   1.332   6.310  11.754 -1.0812  0.0074  0.8171
17220TIP3   OH273150   3.495   4.059  11.272 -0.4843 -0.6990 -0.1525
17220TIP3    H173151   3.494   3.966  11.248 -0.0303 -0.2895 -1.8862
17220TIP3    H273152   3.482   4.105  11.190 -0.0020  0.7925  0.5783
17221TIP3   OH273153   3.223   5.256   1.669 -0.0197 -0.5361  0.0878
17221TIP3    H173154   3.188   5.191   1.608 -0.2383 -0.9984  0.6942
17221TIP3    H273155   3.153   5.267   1.733 -1.1790  2.3537 -1.4783
17222TIP3   OH273156   3.529   6.769  11.856  0.0168 -0.2056  0.3603
17222TIP3    H173157   3.543   6.855  11.817 -3.9783  1.4850  2.0803
17222TIP3    H273158   3.493   6.716  11.785  1.1614 -0.0543 -0.3575
17223TIP3   OH273159   1.796   1.173  15.034 -0.8501  0.0112 -0.3189
17223TIP3    H173160   1.766   1.222  15.110  0.9840  1.1818 -0.3018
17223TIP3    H273161   1.865   1.116  15.068 -0.1758  0.3748 -1.0395
17224TIP3   OH273162   6.088   2.780  12.376 -0.0383 -0.5770  0.9019
17224TIP3    H173163   6.004   2.751  12.412 -1.0242 -0.2561 -1.0300
17224TIP3    H273164   6.066   2.855  12.320  1.8352  0.9157  2.0073
17225TIP3   OH273165   2.426   2.146   2.492 -0.0809  0.6385 -0.3267
17225TIP3    H173166   2.400   2.173   2.580 -0.7485 -0.5427 -0.1334
17225TIP3    H273167   2.433   2.228   2.442 -0.5864  1.2563  0.5875
17226TIP3   OH273168   4.109   3.401  14.257 -0.0347  0.1112  0.0344
17226TIP3    H173169   4.025   3.396  14.212 -0.3858  0.2083  0.6741
17226TIP3    H273170   4.149   3.481  14.223  0.1050 -0.3018 -0.7854
17227TIP3   OH273171   6.423   4.712  13.396 -0.0981  0.1733  0.4688
17227TIP3    H173172   6.410   4.678  13.485  0.2038  0.4158  0.6065
17227TIP3    H273173   6.345   4.683  13.348  0.8970 -2.1850  0.1210
17228TIP3   OH273174   1.488   4.690   4.077 -0.3104 -0.0025 -0.0068
17228TIP3    H173175   1.470   4.782   4.095  1.3470  0.6583 -1.4712
17228TIP3    H273176   1.452   4.675   3.990  0.9641 -0.2197 -0.5220
17229TIP3   OH273177   5.936   0.166   1.152 -0.3096  0.0146  0.4766
17229TIP3    H173178   5.962   0.192   1.240 -0.2242  0.5183  0.3069
17229TIP3    H273179   6.018   0.140   1.109 -0.4728 -1.1417  0.8372
17230TIP3   OH273180   4.378   2.389   1.100  0.1175 -0.1960  0.2431
17230TIP3    H173181   4.425   2.320   1.053  0.8419 -0.9532  1.9830
17230TIP3    H273182   4.447   2.450   1.126 -0.2296  0.0952  0.4862
17231TIP3   OH273183   4.468   0.739  14.108  0.5794  0.8866  0.2732
17231TIP3    H173184   4.441   0.724  14.018  1.0248  2.7698 -0.2081
17231TIP3    H273185   4.387   0.727  14.159  0.7880 -2.6101  0.0022
17232TIP3   OH273186   2.865   2.667  14.093 -0.1424 -0.1166 -0.3347
17232TIP3    H173187   2.821   2.724  14.156  4.4505  2.5333  0.9107
17232TIP3    H273188   2.870   2.720  14.013 -0.7511 -1.1371 -1.0789
17233TIP3   OH273189   1.760   5.493   1.054  0.0794  0.2967 -0.0426
17233TIP3    H173190   1.700   5.566   1.040  0.2140  0.4703  0.2770
17233TIP3    H273191   1.703   5.420   1.078 -0.2019 -0.1408 -1.9420
17234TIP3   OH273192   6.117   5.698  14.274  0.5263 -0.6071  0.3466
17234TIP3    H173193   6.099   5.780  14.228 -0.7052  0.3718  2.4444
17234TIP3    H273194   6.212   5.696  14.283  0.6218  0.2262 -0.3540
17235TIP3   OH273195   2.016   2.634  14.261 -0.6722 -0.0437  0.1399
17235TIP3    H173196   1.972   2.557  14.226  0.0090 -0.3620 -0.0365
17235TIP3    H273197   1.985   2.640  14.352 -0.8054 -0.4606  0.1220
17236TIP3   OH273198   6.552   0.599   4.176  0.5402 -0.4090 -0.2565
17236TIP3    H173199   6.464   0.568   4.198 -0.1416  1.8975  0.6044
17236TIP3    H273200   6.584   0.537   4.110 -0.3512 -3.2645  1.7960
17237TIP3   OH273201   6.042   1.121  12.669  0.6238  0.2414 -0.1710
17237TIP3    H173202   6.120   1.157  12.711 -0.6583  1.3755  1.3608
17237TIP3    H273203   5.983   1.196  12.660 -0.4909 -0.6835 -0.8523
17238TIP3   OH273204   5.482   5.481  10.559  0.1467 -0.0314 -0.4134
17238TIP3    H173205   5.401   5.515  10.598  0.0194  1.4159 -1.8371
17238TIP3    H273206   5.453   5.432  10.483  0.4976 -1.5716  0.4004
17239TIP3   OH273207   5.708   3.623  17.052  0.1020  0.0929  1.3311
17239TIP3    H173208   5.640   3.556  17.056 -0.1156  0.1406 -0.4830
17239TIP3    H273209   5.788   3.577  17.078  0.0931 -1.1243 -0.5685
17240TIP3   OH273210   5.947   6.052   5.595 -0.1464 -0.8537  0.1092
17240TIP3    H173211   6.019   5.989   5.597  0.6276 -0.0709 -1.1756
17240TIP3    H273212   5.899   6.037   5.676  0.4853 -2.5295  0.2055
17241TIP3   OH273213   2.269   1.934   4.100 -0.2282 -0.2860  0.0674
17241TIP3    H173214   2.331   1.927   4.028 -2.9432 -3.0105 -2.2836
17241TIP3    H273215   2.224   2.017   4.085  0.1404 -0.2004 -0.5938
17242TIP3   OH273216   1.327   2.159  14.789 -0.0521 -0.3596 -0.0340
17242TIP3    H173217   1.401   2.100  14.803  1.9793  2.0097 -0.1379
17242TIP3    H273218   1.340   2.229  14.854 -2.7397 -0.3119  0.5448
17243TIP3   OH273219   2.619   2.223   5.041  0.2095  0.4634 -0.1773
17243TIP3    H173220   2.578   2.223   4.955  0.9093 -0.0536 -0.5199
17243TIP3    H273221   2.709   2.195   5.025  0.3977  0.5305  0.6994
17244TIP3   OH273222   5.496   3.766   2.425  0.5900  0.1572  0.3626
17244TIP3    H173223   5.451   3.848   2.446 -0.0892 -0.3242  0.8279
17244TIP3    H273224   5.425   3.704   2.407  0.9308 -1.0715  2.7472
17245TIP3   OH273225   4.083   4.424  11.208 -0.0703 -0.2067 -0.1234
17245TIP3    H173226   4.175   4.396  11.214  0.1747  0.6598  0.3109
17245TIP3    H273227   4.035   4.344  11.189  0.5324 -1.0698  1.7439
17246TIP3   OH273228   2.046   3.863  16.192 -0.1602  0.0844  0.1578
17246TIP3    H173229   2.136   3.830  16.195  0.5015  1.8073  2.7677
17246TIP3    H273230   2.055   3.957  16.207 -2.3332  0.5446 -1.1342
17247TIP3   OH273231   2.601   6.626  13.075  0.4582 -1.0674 -0.1563
17247TIP3    H173232   2.549   6.705  13.087  0.3306 -1.1920  0.1229
17247TIP3    H273233   2.552   6.558  13.121  0.4355 -1.3611 -0.6192
17248TIP3   OH273234   5.685   2.282  13.725  0.5002 -0.4415 -0.1747
17248TIP3    H173235   5.674   2.249  13.814  0.0068 -0.2900 -0.1795
17248TIP3    H273236   5.598   2.278  13.687  0.5427  0.3324 -0.3596
17249TIP3   OH273237   5.148   0.838   1.352 -0.5334  0.7092 -0.1403
17249TIP3    H173238   5.217   0.897   1.324 -0.9149  0.9647 -0.5495
17249TIP3    H273239   5.100   0.887   1.418 -1.6479  1.3809 -1.3996
17250TIP3   OH273240   0.912   5.928  16.267 -0.2299  0.1891  0.2645
17250TIP3    H173241   0.951   5.889  16.346 -2.0359  0.2366  1.2443
17250TIP3    H273242   0.846   5.865  16.239  1.7874 -0.8632 -2.5682
17251TIP3   OH273243   1.542   0.016   2.659 -0.0019  0.0152  0.8384
17251TIP3    H173244   1.531   0.106   2.690 -1.9290 -0.0201  0.3879
17251TIP3    H273245   1.544  -0.037   2.739  1.7681  0.4855  1.1319
17252TIP3   OH273246   6.465   0.468   0.529  0.3856  0.2755  0.5995
17252TIP3    H173247   6.405   0.395   0.545  0.4558 -0.2801 -1.4099
17252TIP3    H273248   6.408   0.545   0.524  0.3969  0.6496  3.7434
17253TIP3   OH273249   4.780   6.782  10.441  0.4198  0.1134 -0.4520
17253TIP3    H173250   4.768   6.692  10.411  1.2556 -0.0096 -0.4477
17253TIP3    H273251   4.845   6.775  10.511 -0.4720  0.5639  0.4512
17254TIP3   OH273252   4.128   6.509   5.249 -0.3652 -0.2722  0.0557
17254TIP3    H173253   4.219   6.538   5.251  0.2927 -2.2222  1.3654
17254TIP3    H273254   4.123   6.438   5.314 -2.4540 -1.2387 -1.0321
17255TIP3   OH273255   5.239   3.177   5.294  0.2150 -0.4164 -0.4601
17255TIP3    H173256   5.202   3.257   5.332  1.3474 -0.0990  0.0305
17255TIP3    H273257   5.217   3.182   5.201 -1.0035 -0.2858 -0.1845
17256TIP3   OH273258   1.939   0.674  11.871 -0.1520 -0.0418  0.1367
17256TIP3    H173259   1.998   0.599  11.883 -0.6239 -0.2242  1.4238
17256TIP3    H273260   1.996   0.751  11.877  0.1762 -0.2536 -0.1733
17257TIP3   OH273261   2.398   4.979   5.828 -0.4481 -0.2191 -0.4704
17257TIP3    H173262   2.337   5.041   5.867  0.0966  0.9326 -1.3844
17257TIP3    H273263   2.417   4.916   5.897 -0.4433  1.0582  0.7161
17258TIP3   OH273264   2.462   6.736   3.592 -0.1359  0.7223 -0.2586
17258TIP3    H173265   2.378   6.709   3.628 -0.0461  0.6210 -0.1212
17258TIP3    H273266   2.441   6.779   3.510 -0.0981 -2.4637 -2.0962
17259TIP3   OH273267   5.064   4.900   2.496 -0.3352 -0.3582 -0.6009
17259TIP3    H173268   5.008   4.975   2.519  0.3220  0.4233 -1.4839
17259TIP3    H273269   5.002   4.829   2.479 -0.9060 -0.7924  2.6938
17260TIP3   OH273270   3.884   2.477  15.633  0.5641 -0.0459  0.0182
17260TIP3    H173271   3.794   2.496  15.660  0.5435 -0.3525  0.1622
17260TIP3    H273272   3.937   2.500  15.710  0.5245 -0.7209  0.2467
17261TIP3   OH273273   5.701   0.248  16.004  0.0507  0.4745 -0.1241
17261TIP3    H173274   5.697   0.243  16.099  3.5236 -1.1956  0.1007
17261TIP3    H273275   5.709   0.158  15.974  1.7682  1.0631 -1.6993
17262TIP3   OH273276   2.601   4.546  12.482  0.0828  0.1264 -0.2211
17262TIP3    H173277   2.624   4.453  12.471  0.4582  0.2671 -0.6376
17262TIP3    H273278   2.507   4.546  12.496  0.1173 -0.3405  0.0310
17263TIP3   OH273279   0.741   5.613   3.207  0.6788 -0.0307  0.6443
17263TIP3    H173280   0.663   5.660   3.180  0.4674  0.2537  1.6954
17263TIP3    H273281   0.717   5.521   3.203 -0.4260  0.0857  2.8918
17264TIP3   OH273282   5.993   2.214  12.889 -0.5278 -0.2347 -0.3859
17264TIP3    H173283   5.906   2.253  12.898 -1.2240 -1.7594 -0.1565
17264TIP3    H273284   5.993   2.174  12.802 -0.0871 -0.3184 -0.3497
17265TIP3   OH273285   2.117   2.488   4.179  0.3313  0.0458  0.4473
17265TIP3    H173286   2.197   2.440   4.200  0.5156 -0.2809 -0.8896
17265TIP3    H273287   2.086   2.522   4.263  0.0147 -2.6652  1.5245
17266TIP3   OH273288   0.623   2.043   4.268 -0.1760  0.8096  0.0310
17266TIP3    H173289   0.541   2.023   4.314  0.6259  1.5777  1.9123
17266TIP3    H273290   0.653   2.125   4.307  1.1669  0.8840 -1.0827
17267TIP3   OH273291   6.476   5.327  11.290 -0.1942  0.4063 -0.1571
17267TIP3    H173292   6.447   5.237  11.305 -2.0837  0.8585 -0.9261
17267TIP3    H273293   6.538   5.320  11.217  0.2787 -0.3340  0.2954
17268TIP3   OH273294   0.713   3.210   3.396 -0.0390  0.2643 -0.3037
17268TIP3    H173295   0.711   3.143   3.463  0.3867  0.6601  0.1080
17268TIP3    H273296   0.689   3.291   3.441  1.1446  0.6965 -0.4289
17269TIP3   OH273297   5.238   0.258   2.532 -0.7867 -0.0473 -0.5836
17269TIP3    H173298   5.225   0.175   2.578  2.8461 -0.1276  0.6175
17269TIP3    H273299   5.225   0.236   2.440 -2.5029 -1.2679 -0.0941
17270TIP3   OH273300   4.271   6.346   0.291 -0.4440 -0.3676  0.1155
17270TIP3    H173301   4.322   6.426   0.282  1.0028 -1.2808 -0.1589
17270TIP3    H273302   4.187   6.374   0.329  1.3825  0.8522  3.6404
17271TIP3   OH273303   4.014   5.576  14.355  0.1086  0.5300 -0.3601
17271TIP3    H173304   4.070   5.500  14.335  0.1787  0.2678  0.7838
17271TIP3    H273305   4.075   5.644  14.382  0.0975  1.2206 -1.9851
17272TIP3   OH273306   3.011   3.193  11.541 -0.5081  0.4994  0.0676
17272TIP3    H173307   2.986   3.264  11.482 -2.6099 -0.8479 -0.7942
17272TIP3    H273308   3.062   3.134  11.486  0.5944  0.9581  0.5814
17273TIP3   OH273309   1.354   4.991   0.814  0.1430  0.0617  0.6408
17273TIP3    H173310   1.335   4.898   0.809 -1.8791  0.4689 -0.1202
17273TIP3    H273311   1.414   5.008   0.742 -0.2000 -0.5014  0.2198
17274TIP3   OH273312   0.818   5.253   4.588  0.2965 -0.0611  0.1136
17274TIP3    H173313   0.792   5.346   4.589 -0.5931 -0.2919 -0.7860
17274TIP3    H273314   0.817   5.228   4.496  0.6986 -0.9329  0.3330
17275TIP3   OH273315   2.520   3.153   1.782  0.4167 -0.1396  0.0224
17275TIP3    H173316   2.531   3.103   1.701 -0.4355 -1.4946  0.7156
17275TIP3    H273317   2.558   3.098   1.850  1.3994  1.1188  0.5357
17276TIP3   OH273318   6.365   6.104   5.096 -0.5728  0.1083 -0.5671
17276TIP3    H173319   6.351   6.140   5.008 -2.0174 -0.1514 -0.4803
17276TIP3    H273320   6.393   6.179   5.148 -0.0967  0.3530 -1.1581
17277TIP3   OH273321   0.456   2.863  13.528  0.0705 -0.5025 -0.2514
17277TIP3    H173322   0.378   2.808  13.528  0.1734 -0.7741 -2.8786
17277TIP3    H273323   0.425   2.950  13.553 -0.5518 -1.1655  1.3865
17278TIP3   OH273324   3.927   5.841  17.040  0.5283  0.1266  0.3211
17278TIP3    H173325   4.019   5.816  17.033  1.0002  0.9573  2.7093
17278TIP3    H273326   3.917   5.914  16.979  0.9477 -1.0793 -1.2801
17279TIP3   OH273327   1.980   3.334   0.478 -0.5173  0.0395 -0.3926
17279TIP3    H173328   1.969   3.361   0.387 -1.7723 -0.7279 -0.4825
17279TIP3    H273329   1.900   3.286   0.499 -1.6311  2.6780  2.0240
17280TIP3   OH273330   0.511   5.863   5.619  0.2106  0.2247  0.2168
17280TIP3    H173331   0.498   5.823   5.705  2.4175  0.3363  0.6531
17280TIP3    H273332   0.472   5.800   5.558 -0.7942 -0.1726  1.2220
17281TIP3   OH273333   4.672   4.025   2.972 -0.1815 -0.0650  0.3961
17281TIP3    H173334   4.705   4.025   2.882  1.6466  1.1667  1.0174
17281TIP3    H273335   4.653   4.117   2.991  0.1457 -0.2090  1.4897
17282TIP3   OH273336   6.598   0.708   2.138  0.1114 -0.0350  0.1416
17282TIP3    H173337   6.600   0.791   2.091 -2.0403 -0.3959 -0.6876
17282TIP3    H273338   6.507   0.680   2.135  0.9582 -3.1645 -0.9064
17283TIP3   OH273339   3.006   6.368  16.826  0.0444 -0.0998  0.5755
17283TIP3    H173340   2.916   6.399  16.836 -0.2894 -0.5438 -0.8249
17283TIP3    H273341   3.022   6.315  16.904 -1.8089 -2.1276 -0.3344
17284TIP3   OH273342   1.538   4.819  12.641  0.2162 -0.3504 -0.0777
17284TIP3    H173343   1.460   4.804  12.695  0.5375 -0.6455  0.3100
17284TIP3    H273344   1.573   4.902  12.673 -0.7453  0.5407 -1.2405
17285TIP3   OH273345   3.530   6.316  10.780  0.0694  0.0721  0.0776
17285TIP3    H173346   3.444   6.292  10.747 -0.0487  3.3154 -2.6163
17285TIP3    H273347   3.535   6.277  10.867 -3.4336 -1.5511 -0.2896
17286TIP3   OH273348   6.558   0.678  11.337  0.3341 -0.3673 -0.1496
17286TIP3    H173349   6.541   0.688  11.243  0.4928 -0.2497 -0.1671
17286TIP3    H273350   6.481   0.632  11.371  0.2835 -0.4246 -0.3398
17287TIP3   OH273351   4.331   2.995   4.170  0.4395 -0.5116 -0.5399
17287TIP3    H173352   4.290   3.079   4.150  0.5897 -0.6324 -1.3542
17287TIP3    H273353   4.323   2.988   4.266 -2.1054 -0.8725 -0.7058
17288TIP3   OH273354   0.485   3.854   2.491  0.0866 -0.7448 -0.3159
17288TIP3    H173355   0.563   3.866   2.545 -0.1793 -1.1186  0.1642
17288TIP3    H273356   0.516   3.867   2.401  0.2560  1.3141 -0.0165
17289TIP3   OH273357   6.839   1.524  17.076  0.9442 -0.1744  0.0372
17289TIP3    H173358   6.933   1.502  17.072  0.5390 -1.8648 -1.6038
17289TIP3    H273359   6.811   1.493  17.162  1.7849 -0.0714  0.3601
17290TIP3   OH273360   2.297   4.779  14.179 -0.4727  0.2526 -0.7244
17290TIP3    H173361   2.352   4.829  14.118  0.2550  0.6669  0.2505
17290TIP3    H273362   2.292   4.691  14.140  0.8096  0.2361 -0.8955
17291TIP3   OH273363   5.569   2.738  15.171 -0.0168 -0.2184 -0.0401
17291TIP3    H173364   5.611   2.652  15.176  0.2958 -0.2269 -1.9938
17291TIP3    H273365   5.546   2.748  15.079 -2.5698  0.6298  0.6113
17292TIP3   OH273366   3.188   2.617   5.135 -0.3186 -0.2004 -0.6509
17292TIP3    H173367   3.168   2.608   5.042  0.3625  0.1000 -0.8370
17292TIP3    H273368   3.263   2.678   5.137 -1.1171  0.7939  0.1622
17293TIP3   OH273369   5.844   4.470   0.674 -0.2133  0.4267  0.1893
17293TIP3    H173370   5.770   4.422   0.639  0.8799 -0.5748 -0.8401
17293TIP3    H273371   5.874   4.524   0.601  0.5483  0.2270  0.3454
17294TIP3   OH273372   6.089   4.610  13.768 -0.8670  0.2620 -0.8493
17294TIP3    H173373   6.088   4.579  13.678 -0.6885 -0.4232 -0.6248
17294TIP3    H273374   6.147   4.549  13.814 -0.1529  1.1907 -0.4744
17295TIP3   OH273375   2.871   5.713  12.221  0.2220 -0.2432 -0.0315
17295TIP3    H173376   2.807   5.737  12.288 -1.0519 -1.9288 -0.5722
17295TIP3    H273377   2.907   5.630  12.251  1.0780 -0.0570 -0.5070
17296TIP3   OH273378   4.819   4.822  13.939  0.4088  0.1277 -0.6621
17296TIP3    H173379   4.827   4.735  13.901 -0.9785  0.1029 -0.9323
17296TIP3    H273380   4.764   4.810  14.017 -0.0348  0.7974 -0.8608
17297TIP3   OH273381   1.712   5.879  11.754 -0.2538  0.1322  0.0096
17297TIP3    H173382   1.801   5.855  11.783 -0.3762 -1.0247 -0.5352
17297TIP3    H273383   1.721   5.969  11.723  0.3311  0.6916  1.6547
17298TIP3   OH273384   6.604   2.177  13.661 -0.0366 -0.2348  0.7747
17298TIP3    H173385   6.550   2.127  13.600  1.4877 -0.8167 -0.1615
17298TIP3    H273386   6.690   2.136  13.655  1.0925  2.0363  0.5282
17299TIP3   OH273387   6.460   1.162  13.339 -0.1800  0.2145  0.5232
17299TIP3    H173388   6.370   1.136  13.358  0.0703 -1.2002 -0.0476
17299TIP3    H273389   6.464   1.255  13.360 -2.1116  0.6062 -0.6225
17300TIP3   OH273390   3.630   1.876   5.885  0.3166  0.5788  0.4788
17300TIP3    H173391   3.625   1.783   5.905  1.7292 -0.4528 -3.1344
17300TIP3    H273392   3.540   1.901   5.863  0.3480 -0.8237 -1.4862
17301TIP3   OH273393   6.417   0.385  14.648  0.0875 -0.2552  0.0340
17301TIP3    H173394   6.426   0.454  14.582  1.3974 -1.6213 -1.2778
17301TIP3    H273395   6.355   0.421  14.711  0.0771  1.7792 -1.0468
17302TIP3   OH273396   6.188   2.252   1.322  0.7864 -1.1082  0.2645
17302TIP3    H173397   6.106   2.207   1.344  1.2019 -1.7596  0.4970
17302TIP3    H273398   6.160   2.328   1.270  0.1395 -2.2176 -1.0823
17303TIP3   OH273399   4.066   4.817  16.046 -0.6673 -0.1120 -0.2290
17303TIP3    H173400   4.114   4.863  15.977 -1.0646 -1.1389 -1.2168
17303TIP3    H273401   4.122   4.826  16.123  0.4917 -0.1566 -1.0334
17304TIP3   OH273402   5.873   2.878   1.471 -0.1504  0.0618 -0.1627
17304TIP3    H173403   5.963   2.875   1.439 -0.3697  1.4844 -0.9975
17304TIP3    H273404   5.857   2.791   1.508  1.4508 -0.3052 -0.2894
17305TIP3   OH273405   3.357   3.625  15.831  0.4249  0.2030  0.2063
17305TIP3    H173406   3.277   3.663  15.794  0.8248 -0.0866 -0.9885
17305TIP3    H273407   3.379   3.553  15.772  1.1064 -0.2510  0.9999
17306TIP3   OH273408   1.593   4.125   4.356 -0.1908  0.0359 -0.7728
17306TIP3    H173409   1.504   4.101   4.331  0.1033 -0.6943 -1.1497
17306TIP3    H273410   1.633   4.157   4.276 -0.5053  1.6139 -0.3225
17307TIP3   OH273411   5.586   4.668  11.922  0.3690 -0.0332  0.0684
17307TIP3    H173412   5.582   4.623  11.838  0.8467 -0.5971  0.3363
17307TIP3    H273413   5.525   4.620  11.978  0.4869 -0.0211  0.2085
17308TIP3   OH273414   5.385   1.744  16.443 -0.1531  0.3840  0.0847
17308TIP3    H173415   5.335   1.663  16.433 -0.8084  0.7083  0.6473
17308TIP3    H273416   5.381   1.764  16.537  1.2704  0.2838  0.1962
17309TIP3   OH273417   1.593   3.116  11.773  0.0239  0.4151 -0.1738
17309TIP3    H173418   1.569   3.206  11.795  0.6419  0.7448 -0.7693
17309TIP3    H273419   1.638   3.083  11.851 -3.7009 -0.8200  1.6579
17310TIP3   OH273420   0.268   0.763  14.902 -0.4368 -0.8267  0.3047
17310TIP3    H173421   0.347   0.762  14.955  0.6893 -0.4852 -1.2947
17310TIP3    H273422   0.237   0.853  14.906 -0.3665 -0.8086  0.4120
17311TIP3   OH273423   0.689   2.710   3.084  0.3117  0.2293 -0.0964
17311TIP3    H173424   0.623   2.664   3.137 -0.6705  0.7448 -0.8338
17311TIP3    H273425   0.740   2.640   3.044 -0.7904 -0.2367 -0.7443
17312TIP3   OH273426   1.404   6.187  10.364  0.0554 -0.0558  0.0284
17312TIP3    H173427   1.324   6.235  10.340 -0.9012 -1.9287 -0.7674
17312TIP3    H273428   1.373   6.116  10.420  1.4386  0.2135  1.2028
17313TIP3   OH273429   4.274   4.795  16.259 -0.4638  0.3928  0.4148
17313TIP3    H173430   4.280   4.733  16.332 -1.2616 -0.2411 -0.0492
17313TIP3    H273431   4.320   4.873  16.291  0.0134 -0.2025  1.2395
17314TIP3   OH273432   5.715   3.319  16.449  0.1479  0.0608  0.1516
17314TIP3    H173433   5.712   3.404  16.491 -0.5246  0.1417 -0.0353
17314TIP3    H273434   5.766   3.333  16.369  1.7986 -0.1925  1.1146
17315TIP3   OH273435   5.599   3.497   5.751 -0.4102  0.2142  0.7262
17315TIP3    H173436   5.562   3.554   5.818  0.0030  1.6505 -0.2053
17315TIP3    H273437   5.632   3.558   5.684  0.0680 -1.1320 -0.3064
17316TIP3   OH273438   2.528   3.834  12.952  0.1588 -0.1973  1.1902
17316TIP3    H173439   2.542   3.791  12.867 -1.0022  0.7564  0.4847
17316TIP3    H273440   2.456   3.895  12.937  0.4326  0.5534  2.6794
17317TIP3   OH273441   0.238   1.772  16.895 -0.2826  0.1225  0.4068
17317TIP3    H173442   0.224   1.678  16.881  0.5033  0.0765 -0.1158
17317TIP3    H273443   0.237   1.810  16.807  0.1526  0.4948  0.5603
17318TIP3   OH273444   1.570   0.787   0.667  0.0167  0.2437  0.3919
17318TIP3    H173445   1.664   0.774   0.652  0.1953 -0.6451  2.0610
17318TIP3    H273446   1.565   0.861   0.727 -0.2898 -0.3226  1.0714
17319TIP3   OH273447   2.305   5.005   3.535 -0.1204 -0.0816  0.1335
17319TIP3    H173448   2.287   5.081   3.591  1.5391  1.6065 -1.4680
17319TIP3    H273449   2.382   4.964   3.575 -1.0941 -1.0704  1.0732
17320TIP3   OH273450   6.735   0.670  13.518  0.1555  0.1670  0.6286
17320TIP3    H173451   6.668   0.695  13.454 -0.1783 -1.8374  0.1457
17320TIP3    H273452   6.743   0.575  13.509  1.9768  0.1646  1.7534
17321TIP3   OH273453   3.186   0.399   1.591  0.1039 -0.5315  0.2298
17321TIP3    H173454   3.183   0.389   1.686  1.0400 -2.1594  0.1328
17321TIP3    H273455   3.125   0.470   1.572  2.3494  2.1608  2.3253
17322TIP3   OH273456   5.660   5.201   3.960  0.2890 -0.0440  0.0045
17322TIP3    H173457   5.569   5.170   3.963  0.6636 -1.6283 -2.4199
17322TIP3    H273458   5.709   5.139   4.013  0.1434  0.0466  0.2452
17323TIP3   OH273459   5.541   2.787   5.888 -0.2071 -0.1792  0.4741
17323TIP3    H173460   5.525   2.693   5.880  1.9999 -0.4333 -2.9734
17323TIP3    H273461   5.463   2.828   5.852 -0.3072 -0.8051 -0.0432
17324TIP3   OH273462   3.151   6.084  15.892  0.3199  0.2603 -0.4189
17324TIP3    H173463   3.103   6.031  15.828 -1.1732  0.7106  0.2802
17324TIP3    H273464   3.241   6.051  15.888  0.5388  0.9918 -3.5005
17325TIP3   OH273465   4.507   6.345   3.033  0.0491 -0.5352  0.4532
17325TIP3    H173466   4.450   6.421   3.028  1.2153  0.2974 -2.6450
17325TIP3    H273467   4.595   6.381   3.042  0.5558 -1.4975 -0.3771
17326TIP3   OH273468   0.255   0.338   0.741  0.5230 -0.5798  0.1452
17326TIP3    H173469   0.188   0.287   0.696 -0.3368  1.0028 -0.4320
17326TIP3    H273470   0.322   0.353   0.675 -0.1815  0.7298 -0.3029
17327TIP3   OH273471   0.942   1.937   2.315  0.8520 -0.4662  0.4216
17327TIP3    H173472   0.889   1.860   2.293  1.0652 -0.4774 -0.0843
17327TIP3    H273473   1.024   1.901   2.348 -0.0549 -0.4570  2.8234
17328TIP3   OH273474   3.851   3.530   5.835  0.0897 -0.0346 -0.5346
17328TIP3    H173475   3.768   3.528   5.786  0.1004  0.8218 -0.5963
17328TIP3    H273476   3.850   3.449   5.886 -0.6541 -0.1740 -0.7551
17329TIP3   OH273477   2.557   3.196   2.229  0.5464 -0.1990 -0.4547
17329TIP3    H173478   2.526   3.276   2.185 -1.1550 -0.9801 -0.7922
17329TIP3    H273479   2.512   3.196   2.313 -2.5610 -2.5753 -1.9071
17330TIP3   OH273480   2.216   5.136   5.993  0.3730 -0.5139  0.5674
17330TIP3    H173481   2.212   5.052   6.038  0.9061 -0.3717  0.8801
17330TIP3    H273482   2.213   5.201   6.063  0.3882 -0.2783  0.3504
17331TIP3   OH273483   0.248   1.011  15.174 -0.1720 -0.1535 -0.4342
17331TIP3    H173484   0.208   0.958  15.105 -0.5613 -0.5232  0.0661
17331TIP3    H273485   0.194   1.090  15.178 -0.6405 -0.4886 -0.0128
17332TIP3   OH273486   5.796   2.362  14.414 -0.3453  0.0712  0.2566
17332TIP3    H173487   5.733   2.353  14.342  0.4830  0.9378 -0.6083
17332TIP3    H273488   5.759   2.310  14.485 -0.1544 -2.6642 -1.4743
17333TIP3   OH273489   2.201   3.508  14.547 -0.5158 -0.4666  0.3673
17333TIP3    H173490   2.125   3.456  14.572 -0.3845  0.0230  1.8870
17333TIP3    H273491   2.270   3.444  14.532 -0.7863 -0.8137  0.6019
17334TIP3   OH273492   0.129   5.437   6.026 -0.2614 -0.2751 -0.4665
17334TIP3    H173493   0.219   5.446   5.998 -0.7112  1.3751 -1.5266
17334TIP3    H273494   0.083   5.402   5.950 -0.1377 -3.7231  0.8743
17335TIP3   OH273495   3.454   1.779  12.071  0.2183 -1.0057  0.1162
17335TIP3    H173496   3.541   1.817  12.059  0.0494 -1.0415 -1.4364
17335TIP3    H273497   3.409   1.842  12.127  0.6432  0.0106 -0.6393
17336TIP3   OH273498   6.765   6.539  13.439  0.1121 -0.2120  0.0181
17336TIP3    H173499   6.748   6.613  13.381 -1.4311 -2.0550 -2.0507
17336TIP3    H273500   6.821   6.481  13.387  0.3918 -1.0082  1.1799
17337TIP3   OH273501   5.812   4.231   4.008  0.3577  0.5130 -0.2322
17337TIP3    H173502   5.839   4.152   4.056  0.9582 -0.3022 -1.8152
17337TIP3    H273503   5.768   4.285   4.073  2.4823  0.1776  1.5980
17338TIP3   OH273504   1.346   3.835  14.326 -0.5313  0.1834 -0.3444
17338TIP3    H173505   1.345   3.740  14.316  3.3048 -0.0257 -0.3382
17338TIP3    H273506   1.402   3.851  14.401  0.3176  2.4465 -1.3508
17339TIP3   OH273507   4.234   2.382  12.643  0.1110  0.2948 -0.3387
17339TIP3    H173508   4.314   2.423  12.676  0.8254 -1.8306  0.7275
17339TIP3    H273509   4.264   2.325  12.572 -0.2915 -1.0871  0.5589
17340TIP3   OH273510   3.271   1.863  14.185  0.2134  0.6944 -0.2788
17340TIP3    H173511   3.351   1.899  14.224 -0.0901 -0.0696  1.1368
17340TIP3    H273512   3.212   1.850  14.260 -1.4974  1.8466 -1.3598
17341TIP3   OH273513   2.931   2.760  11.592 -0.4015 -0.5916  0.6759
17341TIP3    H173514   2.963   2.832  11.647 -1.4683  0.0676  0.4594
17341TIP3    H273515   2.973   2.682  11.628  2.8616  0.3807 -0.6993
17342TIP3   OH273516   1.504   0.133   5.029  0.2644 -0.4945 -0.1942
17342TIP3    H173517   1.477   0.206   4.973 -0.7900 -1.9556 -1.6583
17342TIP3    H273518   1.486   0.165   5.118  1.5034  1.6750 -0.6405
17343TIP3   OH273519   0.532   5.412  16.240  0.1230  0.1483 -0.2821
17343TIP3    H173520   0.532   5.454  16.155 -1.0524  0.8378  0.0359
17343TIP3    H273521   0.487   5.328  16.226  0.4543 -0.0033 -0.4508
17344TIP3   OH273522   2.714   3.342  15.420  0.4557  0.3717 -0.6001
17344TIP3    H173523   2.714   3.288  15.499  2.8413  0.8635 -0.2053
17344TIP3    H273524   2.647   3.408  15.437 -1.6950 -1.6612 -0.6065
17345TIP3   OH273525   3.358   2.531  14.074  0.0982  0.1953  0.4837
17345TIP3    H173526   3.367   2.480  14.154  0.8258 -1.0465 -0.3417
17345TIP3    H273527   3.352   2.621  14.103  0.5199 -0.2154  1.9224
17346TIP3   OH273528   2.064   6.702   5.585  0.0041 -0.5777 -0.8821
17346TIP3    H173529   1.980   6.714   5.631 -0.2491 -2.7534 -0.6648
17346TIP3    H273530   2.071   6.779   5.529 -0.6333  1.2082  1.3056
17347TIP3   OH273531   0.546   1.451   5.295  0.0489  0.6425  0.1446
17347TIP3    H173532   0.561   1.522   5.233 -3.0696  0.9674 -0.3941
17347TIP3    H273533   0.632   1.435   5.335  1.1763  3.6128 -0.8495
17348TIP3   OH273534   0.477   6.756  16.343  0.3642  0.0554 -0.2471
17348TIP3    H173535   0.489   6.808  16.423 -3.0056  1.2014 -0.3517
17348TIP3    H273536   0.566   6.733  16.316  1.7534  1.9666  2.2855
17349TIP3   OH273537   1.743   5.336  11.982 -0.3785 -0.0906  0.1791
17349TIP3    H173538   1.782   5.258  12.021 -2.0443 -1.6750 -1.1680
17349TIP3    H273539   1.736   5.398  12.055  3.5078 -0.0278  0.7489
17350TIP3   OH273540   1.279   6.199   4.064 -0.7653  0.0783 -0.1633
17350TIP3    H173541   1.213   6.257   4.103  0.2205  1.9827 -1.1947
17350TIP3    H273542   1.331   6.169   4.138 -1.3091  0.4905  0.4005
17351TIP3   OH273543   1.700   5.997   1.955  0.7764  0.3331 -0.4936
17351TIP3    H173544   1.644   6.071   1.982  0.5743 -0.1074  0.3285
17351TIP3    H273545   1.783   6.012   2.000  0.7534  0.0899 -0.3693
17352TIP3   OH273546   0.460   0.184  10.675  0.3197 -0.0230  0.1884
17352TIP3    H173547   0.511   0.104  10.663  0.1703  0.0640 -1.1470
17352TIP3    H273548   0.525   0.254  10.678  0.3247  0.1171 -1.7773
17353TIP3   OH273549   5.918   0.466  16.952  0.5909 -0.2739 -0.1737
17353TIP3    H173550   5.834   0.419  16.950  0.9340 -0.8920 -0.4595
17353TIP3    H273551   5.909   0.529  17.023  0.3982 -1.3334  0.7796
17354TIP3   OH273552   1.590   0.979   4.947 -0.5319 -0.1748 -0.5507
17354TIP3    H173553   1.497   0.968   4.967 -0.9187 -0.1261 -2.1792
17354TIP3    H273554   1.595   1.061   4.898  0.4901  0.2355  0.2222
17355TIP3   OH273555   0.946   2.027   0.642  0.4291  0.5742 -0.7463
17355TIP3    H173556   0.962   2.073   0.725 -1.8148 -0.4751  0.3507
17355TIP3    H273557   0.886   2.085   0.594 -1.5434 -0.5768  0.1843
17356TIP3   OH273558   6.440   3.764   1.680 -0.2167  0.1671  0.3379
17356TIP3    H173559   6.373   3.830   1.696  0.8042  1.1739  0.6645
17356TIP3    H273560   6.400   3.681   1.707 -0.6232  1.0179  2.5571
17357TIP3   OH273561   3.801   3.785   1.837  0.2813  0.1177  0.1744
17357TIP3    H173562   3.748   3.826   1.906 -0.8618 -1.8353  0.5415
17357TIP3    H273563   3.876   3.748   1.884 -0.4734 -1.1721  0.3891
17358TIP3   OH273564   1.005   1.254  13.324 -0.3336 -0.3605  0.1309
17358TIP3    H173565   1.012   1.282  13.415  0.2402  0.2274 -0.0940
17358TIP3    H273566   0.922   1.205  13.321 -1.1713  0.9774  0.6098
17359TIP3   OH273567   1.896   3.580   1.773 -0.2718  0.3372  0.3405
17359TIP3    H173568   1.890   3.498   1.723 -0.4573  1.0247 -0.7859
17359TIP3    H273569   1.988   3.585   1.799  0.0935  0.5607 -0.9626
17360TIP3   OH273570   2.234   4.647   2.167 -0.5785 -0.2517 -0.2600
17360TIP3    H173571   2.172   4.712   2.134  0.8173  0.2765 -2.0264
17360TIP3    H273572   2.256   4.594   2.090  0.4054 -1.0339  0.5332
17361TIP3   OH273573   3.898   3.677  14.215 -0.0190  0.3904 -0.1512
17361TIP3    H173574   3.893   3.711  14.304 -1.0182 -1.0286  0.3764
17361TIP3    H273575   3.990   3.685  14.191  0.2891  0.6630  1.0617
17362TIP3   OH273576   6.861   2.577  15.720 -0.3067 -0.3643 -0.2901
17362TIP3    H173577   6.935   2.593  15.661  0.2637  0.8674  0.7173
17362TIP3    H273578   6.875   2.488  15.752 -0.0128 -0.6336 -1.1373
17363TIP3   OH273579   6.847   1.040  13.801 -0.2933  0.2182 -0.5090
17363TIP3    H173580   6.851   1.058  13.895  1.1876  0.2630 -0.5522
17363TIP3    H273581   6.813   0.951  13.795 -0.8867  0.4035  0.0432
17364TIP3   OH273582   2.385   2.603   5.834 -0.2713  0.3215  0.3320
17364TIP3    H173583   2.463   2.617   5.781 -1.0834  1.0453 -0.7290
17364TIP3    H273584   2.365   2.510   5.825 -0.0042  0.3022 -0.0743
17365TIP3   OH273585   6.607   5.466   2.954 -0.6362 -0.3851 -0.0611
17365TIP3    H173586   6.579   5.445   2.865 -1.8529  0.7479  0.0211
17365TIP3    H273587   6.657   5.389   2.982 -0.6679 -0.9745 -1.5280
17366TIP3   OH273588   1.196   2.212  15.461  0.8818 -0.3381 -0.0100
17366TIP3    H173589   1.208   2.126  15.422  0.5798 -0.0639 -0.7224
17366TIP3    H273590   1.132   2.198  15.531  0.7491 -0.6640 -0.1965
17367TIP3   OH273591   0.081   4.095   1.331  0.1429  0.6624 -0.3833
17367TIP3    H173592   0.074   4.061   1.241 -1.1469  0.5619 -0.2518
17367TIP3    H273593   0.098   4.188   1.320  1.5523  0.3930 -0.7268
17368TIP3   OH273594   4.827   4.598  11.917  0.1511  0.4701 -0.2795
17368TIP3    H173595   4.893   4.667  11.915  0.2148  0.6257  2.5511
17368TIP3    H273596   4.773   4.619  11.993 -0.1904 -2.2456  0.3519
17369TIP3   OH273597   5.691   4.846  15.493 -0.0658 -0.7832  0.5289
17369TIP3    H173598   5.695   4.752  15.510 -0.1585 -0.7277  0.8824
17369TIP3    H273599   5.739   4.858  15.411 -1.0821 -1.2810 -0.1508
17370TIP3   OH273600   3.977   5.699   5.351  0.2717  0.4909 -0.0445
17370TIP3    H173601   4.057   5.647   5.349  0.7212  1.1370  0.7249
17370TIP3    H273602   4.007   5.790   5.356 -0.4987  0.7093  0.8674
17371TIP3   OH273603   4.983   3.348   1.965 -0.4365 -0.4619  0.2565
17371TIP3    H173604   5.006   3.441   1.971  0.0373 -0.5807  0.3026
17371TIP3    H273605   4.888   3.346   1.976 -0.5949  0.1275 -0.9107
17372TIP3   OH273606   1.213   6.258   3.755  0.0825 -0.2201  0.4657
17372TIP3    H173607   1.172   6.212   3.828  0.3435 -1.5014 -0.1660
17372TIP3    H273608   1.301   6.220   3.748 -0.5064 -1.3935 -1.5601
17373TIP3   OH273609   2.241   0.510   0.874  0.0776  0.5510  0.0701
17373TIP3    H173610   2.190   0.523   0.954 -1.0836 -0.0627 -0.5455
17373TIP3    H273611   2.321   0.466   0.904 -1.0912 -1.2270  0.7088
17374TIP3   OH273612   5.486   6.715   0.928  0.6146  0.0865  0.4433
17374TIP3    H173613   5.556   6.767   0.967  0.2939 -1.0895  2.7666
17374TIP3    H273614   5.409   6.734   0.983 -0.5428  0.2031 -1.1439
17375TIP3   OH273615   2.783   2.553  14.807 -0.5070  0.0505 -0.5207
17375TIP3    H173616   2.716   2.605  14.851 -0.0363 -0.0220  0.2930
17375TIP3    H273617   2.831   2.510  14.878  0.2865 -0.0384 -1.1003
17376TIP3   OH273618   6.228   1.595   3.808  0.1148  0.0783  0.1668
17376TIP3    H173619   6.203   1.578   3.717  0.4730 -0.2827  0.1341
17376TIP3    H273620   6.161   1.655   3.840 -0.6432 -0.6584 -0.0045
17377TIP3   OH273621   2.351   0.178  16.511  0.1192 -0.5769 -0.5321
17377TIP3    H173622   2.307   0.161  16.428 -0.9766  0.3500 -0.1622
17377TIP3    H273623   2.372   0.271  16.509 -2.2480  0.0869  1.2588
17378TIP3   OH273624   6.009   2.492  13.772  0.1360 -0.4524 -0.2910
17378TIP3    H173625   5.999   2.415  13.828 -0.5408  0.0052  0.2352
17378TIP3    H273626   6.104   2.509  13.773  0.0829 -0.0157  1.3588
17379TIP3   OH273627   1.220   6.535  14.150  0.1380 -0.4406  0.0008
17379TIP3    H173628   1.224   6.629  14.133 -0.0981 -0.2116  1.1413
17379TIP3    H273629   1.145   6.504  14.100 -0.7308  0.2675  0.8426
17380TIP3   OH273630   4.451   6.234   0.904  0.5503 -0.3393  0.8156
17380TIP3    H173631   4.508   6.158   0.900 -0.3268 -1.0819  1.9805
17380TIP3    H273632   4.453   6.261   0.996  0.7755  1.0152  0.4503
17381TIP3   OH273633   0.072   0.559   0.027 -0.1589  0.5438  0.2688
17381TIP3    H173634   0.116   0.627   0.078  0.1732  1.3741 -1.0799
17381TIP3    H273635   0.089   0.582  -0.064 -0.6521 -0.9573 -0.2378
17382TIP3   OH273636   1.389   0.984   4.670 -0.5639 -0.1040  0.1422
17382TIP3    H173637   1.344   1.028   4.742 -1.5347 -2.1193  0.8644
17382TIP3    H273638   1.331   0.910   4.648 -0.1433  0.2677 -2.5171
17383TIP3   OH273639   5.066   4.592   5.974 -0.1688  0.0987  0.1752
17383TIP3    H173640   5.067   4.567   6.067  0.1553 -0.1386  0.1095
17383TIP3    H273641   5.114   4.675   5.972 -0.1564  0.0928  0.2163
17384TIP3   OH273642   0.727   3.027   5.506 -0.6941  0.0934  0.0990
17384TIP3    H173643   0.784   3.092   5.547 -0.6854 -0.7474  1.5129
17384TIP3    H273644   0.726   2.954   5.568 -1.7301 -0.7228 -0.8317
17385TIP3   OH273645   0.653   5.233   0.221  0.1971  0.3493  0.1969
17385TIP3    H173646   0.717   5.285   0.269  1.1920 -0.3428 -0.3629
17385TIP3    H273647   0.632   5.286   0.144  1.3720 -0.1649 -0.4847
17386TIP3   OH273648   3.288   3.094  10.475 -0.2700  0.4494 -1.1500
17386TIP3    H173649   3.371   3.047  10.486 -1.2358 -1.0292  0.3455
17386TIP3    H273650   3.227   3.027  10.445 -1.3629  1.0827 -0.3868
17387TIP3   OH273651   2.300   2.081   5.996 -0.3930 -0.1307 -0.2597
17387TIP3    H173652   2.296   1.986   5.983 -1.6717 -0.5148  2.2947
17387TIP3    H273653   2.302   2.092   6.091  2.0495  2.3932 -0.4632
17388TIP3   OH273654   5.470   3.820   3.740 -0.1318  0.3075  0.2423
17388TIP3    H173655   5.428   3.852   3.820 -1.6053 -0.3537 -0.2161
17388TIP3    H273656   5.398   3.813   3.677  0.3016 -2.5968 -0.0572
17389TIP3   OH273657   2.703   2.886  12.192  0.6398 -0.2519 -0.5683
17389TIP3    H173658   2.727   2.794  12.205  0.4922 -0.0858  1.1861
17389TIP3    H273659   2.764   2.918  12.126  0.6536 -1.6085 -1.2686
17390TIP3   OH273660   0.518   3.581   5.496  0.2959 -0.2460  0.5144
17390TIP3    H173661   0.551   3.605   5.409 -0.5590 -1.3737 -0.1540
17390TIP3    H273662   0.423   3.582   5.487  0.2025 -1.2796  1.1670
17391TIP3   OH273663   0.849   1.302  10.852 -0.5231  0.0713 -0.0095
17391TIP3    H173664   0.895   1.373  10.809  1.1436 -2.2822 -2.4443
17391TIP3    H273665   0.807   1.254  10.781  0.1000 -2.4655  1.2160
17392TIP3   OH273666   3.989   0.855   1.648 -0.2267  0.0847  0.1402
17392TIP3    H173667   3.961   0.837   1.558 -1.3296  0.7750  0.3323
17392TIP3    H273668   4.051   0.785   1.668  0.9020  0.5682 -1.5392
17393TIP3   OH273669   0.398   2.936   0.119  0.1149  0.6094  0.2060
17393TIP3    H173670   0.365   3.020   0.085 -0.7999  0.4133  0.5651
17393TIP3    H273671   0.493   2.944   0.115  0.0572  0.6971 -2.1079
17394TIP3   OH273672   6.045   0.729  15.013  0.2245 -0.1661  0.6115
17394TIP3    H173673   6.003   0.647  15.041 -2.4211  0.4201 -1.2827
17394TIP3    H273674   6.087   0.762  15.093 -3.1615 -0.7409  2.8655
17395TIP3   OH273675   2.700   0.084  16.063  0.3415 -0.0041  1.1452
17395TIP3    H173676   2.690   0.156  16.126  0.6949 -0.8859  2.2318
17395TIP3    H273677   2.623   0.029  16.078  0.2835 -0.0765  0.6022
17396TIP3   OH273678   5.760   2.221   4.951 -0.3102  0.4961  0.3605
17396TIP3    H173679   5.771   2.159   4.879  0.6058  0.6736  0.3339
17396TIP3    H273680   5.682   2.190   4.997  1.0395 -1.6782  1.3371
17397TIP3   OH273681   6.817   3.060  16.081 -0.1935  0.0190 -0.0819
17397TIP3    H173682   6.880   3.036  16.149  0.8428 -0.4910 -1.1906
17397TIP3    H273683   6.843   3.009  16.004 -1.8085 -0.0031 -0.6515
17398TIP3   OH273684   4.370   6.613   3.895  0.2255 -0.1212 -0.0326
17398TIP3    H173685   4.462   6.586   3.895  0.0919 -1.3117 -4.2593
17398TIP3    H273686   4.321   6.532   3.905 -0.1902 -0.4953 -3.6599
17399TIP3   OH273687   2.452   3.465  12.514 -0.1902  0.3431 -0.1746
17399TIP3    H173688   2.463   3.385  12.462 -0.1257  0.7548 -0.8149
17399TIP3    H273689   2.462   3.536  12.450 -1.3203  0.8444  0.1724
17400TIP3   OH273690   6.471   5.043   2.896  0.3333 -0.1132  0.1757
17400TIP3    H173691   6.452   5.120   2.843  2.0237 -0.2634 -0.7114
17400TIP3    H273692   6.534   5.073   2.961 -0.6764 -0.2576  1.2521
17401TIP3   OH273693   0.736   3.918  10.888  0.2000  0.1821  0.4320
17401TIP3    H173694   0.803   3.976  10.850 -1.2641  1.7542  0.1112
17401TIP3    H273695   0.777   3.832  10.888  1.7494  0.8424 -0.9893
17402TIP3   OH273696   3.847   5.881  15.506  0.0349 -0.3518  0.0609
17402TIP3    H173697   3.900   5.851  15.579 -1.7787  0.4054  1.7609
17402TIP3    H273698   3.763   5.905  15.545 -0.4980  1.5229 -2.0308
17403TIP3   OH273699   6.341   3.410  10.940  0.4747  0.2876  0.1325
17403TIP3    H173700   6.373   3.467  10.869 -1.5366  0.1670 -0.9321
17403TIP3    H273701   6.254   3.444  10.961  1.0556  0.3724  2.6617
17404TIP3   OH273702   0.352   3.088   1.801  0.0033  0.2256 -0.0023
17404TIP3    H173703   0.438   3.088   1.843  1.2469 -1.3438 -2.2907
17404TIP3    H273704   0.317   3.001   1.819 -0.4085  0.3171 -0.3653
17405TIP3   OH273705   6.834   5.245   1.581  0.3792 -0.1755 -0.3028
17405TIP3    H173706   6.784   5.308   1.529  0.5407 -0.8267 -1.2709
17405TIP3    H273707   6.877   5.189   1.517  0.5482 -1.0385  0.5370
17406TIP3   OH273708   3.283   0.203  17.030  0.3228 -0.0378 -0.0761
17406TIP3    H173709   3.328   0.124  17.061 -0.6153 -1.2138 -1.5733
17406TIP3    H273710   3.191   0.187  17.049 -0.2236 -0.5302 -2.7010
17407TIP3   OH273711   1.826   2.073   6.336 -0.2186 -0.3171 -0.3833
17407TIP3    H173712   1.906   2.019   6.339 -0.4478 -0.6197  0.6394
17407TIP3    H273713   1.788   2.053   6.250 -0.3917 -1.9524  0.0367
17408TIP3   OH273714   3.236   1.974   2.542 -0.0378  0.2703  0.7041
17408TIP3    H173715   3.269   1.965   2.453  0.1108 -1.9021  0.9235
17408TIP3    H273716   3.313   1.994   2.595 -0.1588  1.7835  0.3552
17409TIP3   OH273717   1.364   5.967  16.127  0.7295 -0.7162  0.4589
17409TIP3    H173718   1.271   5.975  16.103 -0.0333  2.4347  3.6497
17409TIP3    H273719   1.366   5.896  16.191  0.0077  0.7434  2.1578
17410TIP3   OH273720   1.849   0.328   1.600 -0.4261  0.2791  0.3079
17410TIP3    H173721   1.856   0.342   1.506 -0.2374  1.3201  0.4698
17410TIP3    H273722   1.756   0.316   1.617 -0.7211  2.2315  0.2612
17411TIP3   OH273723   4.560   4.705   1.787  0.4314  0.1890 -0.1052
17411TIP3    H173724   4.646   4.736   1.757 -0.3011  1.5822 -0.8910
17411TIP3    H273725   4.545   4.752   1.869 -0.5687  1.8170 -1.1660
17412TIP3   OH273726   5.444   4.024   0.417  0.3312  0.3958 -0.2321
17412TIP3    H173727   5.491   4.105   0.397  2.8148 -0.9220 -0.1341
17412TIP3    H273728   5.468   3.965   0.345  0.3003 -0.9122  0.8049
17413TIP3   OH273729   1.816   0.670  14.902  0.1336 -0.2342 -0.1939
17413TIP3    H173730   1.882   0.624  14.953 -0.9338 -1.3727  0.2252
17413TIP3    H273731   1.842   0.655  14.811  0.8957  0.0281 -0.0270
17414TIP3   OH273732   4.415   2.633  15.101  0.5908  0.0728 -0.5055
17414TIP3    H173733   4.450   2.701  15.043 -0.9091 -0.0457 -1.6462
17414TIP3    H273734   4.322   2.628  15.076 -0.2534  0.3479  2.2876
17415TIP3   OH273735   1.845   4.251   0.722 -0.0319 -0.0951  0.1994
17415TIP3    H173736   1.798   4.328   0.755 -0.0554 -0.2846  0.6100
17415TIP3    H273737   1.798   4.177   0.760  0.8670 -0.2811  0.9796
17416TIP3   OH273738   6.154   4.938  11.631 -0.4445  0.6038 -0.0530
17416TIP3    H173739   6.233   4.892  11.658  0.0019  1.2137 -0.2921
17416TIP3    H273740   6.166   5.027  11.664  0.3286  1.5185 -2.5521
17417TIP3   OH273741   4.816   1.204  15.189  0.5240  0.3838 -0.4921
17417TIP3    H173742   4.885   1.243  15.136 -1.2759  0.8534 -2.6729
17417TIP3    H273743   4.768   1.278  15.225 -0.8020  0.1847 -1.7562
17418TIP3   OH273744   2.354   1.305   4.469 -0.1481  0.2664  0.2497
17418TIP3    H173745   2.314   1.314   4.556 -2.2911  2.9120 -0.8638
17418TIP3    H273746   2.283   1.326   4.408  1.3015 -1.4570 -2.1806
17419TIP3   OH273747   4.474   6.376  12.307  0.2592  0.5980 -1.0128
17419TIP3    H173748   4.449   6.284  12.310 -0.0397  0.6833 -0.7906
17419TIP3    H273749   4.390   6.423  12.306  0.4084  0.8795 -0.6443
17420TIP3   OH273750   2.948   3.570  13.036  0.4086 -0.0776 -0.5464
17420TIP3    H173751   2.932   3.660  13.066  0.7156 -0.3225  0.3789
17420TIP3    H273752   2.908   3.567  12.950  0.0513  0.8403 -0.4308
17421TIP3   OH273753   5.972   5.829  16.725  0.1531  0.2447 -0.5769
17421TIP3    H173754   5.892   5.874  16.751  0.6065  0.6604  0.1293
17421TIP3    H273755   5.967   5.824  16.630 -0.6154  0.4452 -0.5507
17422TIP3   OH273756   3.898   2.811   4.626 -0.4508 -0.0339  0.0182
17422TIP3    H173757   3.962   2.781   4.690  0.0272  0.6168 -0.1499
17422TIP3    H273758   3.830   2.744   4.627  1.2036 -1.8244 -1.3069
17423TIP3   OH273759   3.122   2.564   1.261 -0.1754 -0.3089  0.6327
17423TIP3    H173760   3.101   2.474   1.238 -0.9412  0.0413 -0.1093
17423TIP3    H273761   3.186   2.592   1.196  0.1567 -0.3473  0.9368
17424TIP3   OH273762   2.934   5.371  13.995  0.5498 -0.2040 -0.2257
17424TIP3    H173763   2.968   5.414  14.074  0.9370 -0.0702 -0.4634
17424TIP3    H273764   2.907   5.443  13.938  1.8538 -0.2444 -0.9169
17425TIP3   OH273765   6.318   0.181  13.826  0.2339  0.0782 -0.5275
17425TIP3    H173766   6.249   0.186  13.760 -1.4209  0.6119  1.1426
17425TIP3    H273767   6.298   0.102  13.876  1.6326 -0.4796 -0.7938
17426TIP3   OH273768   6.795   6.498   1.167  0.2735  0.2711 -0.5497
17426TIP3    H173769   6.826   6.587   1.184  1.0678 -0.1924  0.6007
17426TIP3    H273770   6.706   6.496   1.202  0.4231  0.4813 -0.1518
17427TIP3   OH273771   1.485   5.120   1.394 -0.5554  0.1652  0.2737
17427TIP3    H173772   1.482   5.037   1.347  1.0166  0.7896 -1.0133
17427TIP3    H273773   1.447   5.183   1.333 -0.4319  0.6368  0.6792
17428TIP3   OH273774   6.188   1.856  16.164 -0.2499 -0.1065  0.0705
17428TIP3    H173775   6.163   1.941  16.128  1.4618  0.3081 -0.2258
17428TIP3    H273776   6.283   1.861  16.172 -0.1933 -1.7565  0.6900
17429TIP3   OH273777   0.330   6.614  14.550  0.3546 -0.2785  0.2562
17429TIP3    H173778   0.382   6.578  14.478  1.6626 -1.3827  1.6887
17429TIP3    H273779   0.259   6.551  14.561 -1.6775  1.4457 -1.9802
17430TIP3   OH273780   1.897   4.861  12.229 -0.2684 -0.2845 -0.0254
17430TIP3    H173781   1.873   4.848  12.321 -2.2636  2.5885 -0.0048
17430TIP3    H273782   1.848   4.795  12.181  0.0088 -1.1602  0.8684
17431TIP3   OH273783   4.765   3.890  16.827  0.6867 -0.1137  0.2632
17431TIP3    H173784   4.772   3.825  16.897 -0.7057  0.8347  1.3551
17431TIP3    H273785   4.845   3.942  16.836 -0.2695  1.1278  2.4142
17432TIP3   OH273786   2.152   6.802  12.181  0.1360  0.3615  0.3061
17432TIP3    H173787   2.198   6.822  12.100  0.6595 -1.4717  0.1010
17432TIP3    H273788   2.153   6.706  12.187 -2.6556  0.2583  0.8703
17433TIP3   OH273789   3.824   3.781  10.426  0.1792  0.3330  0.0481
17433TIP3    H173790   3.788   3.693  10.426 -1.4457  0.9615 -0.3040
17433TIP3    H273791   3.871   3.789  10.509 -0.7726 -0.4258  0.6662
17434TIP3   OH273792   1.748   5.348  13.616 -0.1404 -0.4017 -0.2048
17434TIP3    H173793   1.699   5.334  13.534 -1.2950 -3.4100  0.8668
17434TIP3    H273794   1.714   5.431  13.650 -0.7071  0.1613 -2.0024
17435TIP3   OH273795   6.536   4.919   4.613  0.0012  0.2712 -0.2158
17435TIP3    H173796   6.533   4.828   4.643 -0.6028  0.6323  0.8657
17435TIP3    H273797   6.529   4.913   4.517 -2.2928 -0.7289 -0.0560
17436TIP3   OH273798   1.648   2.987   0.675 -0.0202 -0.2392  0.4797
17436TIP3    H173799   1.656   2.898   0.642 -1.2467  0.2772 -1.3555
17436TIP3    H273800   1.700   2.988   0.755  0.4970 -2.4279  0.2203
17437TIP3   OH273801   1.560   0.473   1.981  0.1728  0.0924 -0.3802
17437TIP3    H173802   1.489   0.524   2.020  1.9019  2.9391 -0.6739
17437TIP3    H273803   1.569   0.397   2.038 -0.5312  1.6779  1.9645
17438TIP3   OH273804   5.688   6.045   3.214  0.2068  0.6224  0.4908
17438TIP3    H173805   5.741   6.093   3.150 -1.0356  2.5133  0.7916
17438TIP3    H273806   5.728   6.066   3.299 -0.0594  0.7831  0.5810
17439TIP3   OH273807   1.497   2.513   5.134  0.7111 -0.0897 -0.6298
17439TIP3    H173808   1.484   2.562   5.053  1.0114 -0.7409 -1.0834
17439TIP3    H273809   1.516   2.423   5.105  2.6729  0.0310  0.0741
17440TIP3   OH273810   2.089   0.906  11.911 -0.4096  0.0667 -0.0528
17440TIP3    H173811   2.158   0.971  11.899 -0.2766  0.2525  1.4966
17440TIP3    H273812   2.011   0.958  11.931 -1.2355 -0.0973 -2.5447
17441TIP3   OH273813   4.125   6.724  14.850  0.3512 -0.3924  0.1696
17441TIP3    H173814   4.043   6.756  14.889  1.0091  2.2612 -0.3809
17441TIP3    H273815   4.112   6.630  14.841 -2.9893 -0.0036 -0.6515
17442TIP3   OH273816   3.580   5.367   3.873 -0.0137 -0.5189  0.3595
17442TIP3    H173817   3.532   5.367   3.955 -0.3664  0.2989  0.1585
17442TIP3    H273818   3.587   5.459   3.848  0.5663 -0.7144 -0.2483
17443TIP3   OH273819   4.953   2.463   1.951 -0.0673 -1.0649  0.4486
17443TIP3    H173820   4.868   2.507   1.953 -0.0445 -0.9637 -0.5232
17443TIP3    H273821   5.007   2.512   2.013 -0.9108 -1.5547  1.5900
17444TIP3   OH273822   6.208   2.439   3.716  0.7071 -0.0909 -1.2653
17444TIP3    H173823   6.242   2.526   3.696  0.7593  0.0543 -0.5457
17444TIP3    H273824   6.243   2.418   3.802 -1.0103  0.0657 -0.4959
17445TIP3   OH273825   5.130   5.331  15.748 -0.6221  0.4865 -0.4372
17445TIP3    H173826   5.221   5.321  15.777 -0.6208 -2.2759 -1.0977
17445TIP3    H273827   5.082   5.355  15.827  0.5675  1.3066  0.0588
17446TIP3   OH273828   5.477   0.648   5.990  0.1681 -0.1404  0.2244
17446TIP3    H173829   5.547   0.693   6.037 -0.2973 -0.6587  1.4522
17446TIP3    H273830   5.517   0.568   5.957  0.2373 -0.2916  0.6672
17447TIP3   OH273831   5.450   1.877   0.611 -0.3660  0.2246 -0.0469
17447TIP3    H173832   5.477   1.794   0.572  1.7847  0.1312  1.4713
17447TIP3    H273833   5.470   1.943   0.545  3.0618  0.0630  0.6685
17448TIP3   OH273834   4.429   5.132  17.038 -0.1317  0.2955 -0.0745
17448TIP3    H173835   4.443   5.191  16.964 -2.4311 -0.9834 -1.6788
17448TIP3    H273836   4.504   5.073  17.037  1.5753  2.3298  0.8001
17449TIP3   OH273837   5.581   5.531   0.411 -0.0959 -0.2611 -0.2492
17449TIP3    H173838   5.589   5.437   0.396 -0.5613 -0.0804 -1.7749
17449TIP3    H273839   5.487   5.549   0.401  0.1792  0.5932 -1.5696
17450TIP3   OH273840   1.106   5.516   5.440 -0.0678  0.5106 -0.0052
17450TIP3    H173841   1.054   5.588   5.475 -1.1417  0.5471 -1.5663
17450TIP3    H273842   1.127   5.462   5.516 -2.8263  0.2264  0.6479
17451TIP3   OH273843   6.398   5.243  15.431 -0.0481  0.3012 -0.1552
17451TIP3    H173844   6.361   5.156  15.441 -0.6873  0.3618 -1.6992
17451TIP3    H273845   6.346   5.298  15.490 -0.6353 -0.1110 -0.2834
17452TIP3   OH273846   6.800   3.318  12.834  0.1359  0.1292 -0.2741
17452TIP3    H173847   6.756   3.275  12.761  0.0602  0.3866 -0.3805
17452TIP3    H273848   6.850   3.389  12.793 -0.2959  0.5777 -0.0203
17453TIP3   OH273849   5.542   4.482  16.700  0.0932  0.4396  0.0310
17453TIP3    H173850   5.512   4.564  16.660 -1.1224  1.0782  2.0501
17453TIP3    H273851   5.633   4.499  16.724  0.3345  0.6155 -0.9667
17454TIP3   OH273852   4.397   5.980   5.091 -0.0617 -0.0530 -0.3939
17454TIP3    H173853   4.422   6.072   5.098 -2.2950  0.5771  0.1685
17454TIP3    H273854   4.470   5.933   5.131  0.6766  1.5454  0.2561
17455TIP3   OH273855   0.528   1.111   5.313  0.1049  0.2096 -0.0298
17455TIP3    H173856   0.588   1.166   5.264  0.4433 -1.3888 -1.5163
17455TIP3    H273857   0.584   1.056   5.367 -0.1370  0.2671  0.2824
17456TIP3   OH273858   4.349   1.901   5.869 -0.6323  0.1369 -0.3446
17456TIP3    H173859   4.434   1.939   5.891  0.4330 -1.6560 -1.1229
17456TIP3    H273860   4.288   1.973   5.876  1.0803  1.6846 -0.5707
17457TIP3   OH273861   3.333   3.125   4.891  0.2635 -0.0813  0.1077
17457TIP3    H173862   3.313   3.090   4.804 -1.5075 -0.3535  0.5918
17457TIP3    H273863   3.315   3.218   4.884  2.1368  0.3010 -0.3498
17458TIP3   OH273864   1.353   4.199  14.023  0.4236 -1.1695  0.1136
17458TIP3    H173865   1.262   4.192  13.994  0.3269 -0.2953  0.2050
17458TIP3    H273866   1.365   4.123  14.081 -1.0704  0.1653  2.2956
17459TIP3   OH273867   2.442   5.591  15.013  0.3311  0.1294  0.0130
17459TIP3    H173868   2.458   5.521  14.951  0.1460 -0.6104  0.7757
17459TIP3    H273869   2.521   5.593  15.067 -0.1509 -0.3154  0.7541
17460TIP3   OH273870   0.510   0.832   2.299 -0.0373  0.4420 -0.5612
17460TIP3    H173871   0.444   0.836   2.230 -1.2818  1.0465  0.6366
17460TIP3    H273872   0.531   0.739   2.307 -1.1664  0.1749 -0.5727
17461TIP3   OH273873   0.768   1.377  16.072  0.0431 -0.0901 -0.7014
17461TIP3    H173874   0.803   1.322  16.142 -0.3571  1.4695  0.8017
17461TIP3    H273875   0.717   1.317  16.018  3.1438 -2.0505 -1.7566
17462TIP3   OH273876   4.070   4.642  13.547  0.4079  0.0968  0.1231
17462TIP3    H173877   3.994   4.679  13.593 -0.6286 -2.0928  0.3375
17462TIP3    H273878   4.031   4.583  13.483  1.9326 -1.1847  0.3324
17463TIP3   OH273879   0.847   6.254   0.707 -0.3654  0.7953  0.2230
17463TIP3    H173880   0.899   6.198   0.649  0.6000 -0.0076  1.7799
17463TIP3    H273881   0.822   6.197   0.779 -1.7394  1.7019  0.4975
17464TIP3   OH273882   3.330   4.805  11.381  0.5419  0.4068 -0.3928
17464TIP3    H173883   3.365   4.721  11.413  1.7219  0.6526 -1.0270
17464TIP3    H273884   3.236   4.788  11.372  0.9162 -1.2639 -1.7269
17465TIP3   OH273885   4.111   3.531  11.308 -0.0972 -0.3980  0.3767
17465TIP3    H173886   4.201   3.549  11.334  0.7674 -0.0738 -2.5740
17465TIP3    H273887   4.064   3.612  11.329  0.7863  0.2581 -0.1153
17466TIP3   OH273888   1.021   3.429   3.753 -0.1790 -0.0227  0.2988
17466TIP3    H173889   0.990   3.504   3.702  0.3344 -0.2903 -0.4195
17466TIP3    H273890   0.983   3.442   3.840 -0.2728  0.9620  0.1242
17467TIP3   OH273891   2.576   3.299   5.570  0.4476 -0.1504  0.0428
17467TIP3    H173892   2.663   3.261   5.573  0.0853 -0.9419  1.3942
17467TIP3    H273893   2.520   3.234   5.612 -1.0719 -0.3332 -2.1077
17468TIP3   OH273894   3.360   2.923   4.182 -0.2065 -0.1395 -0.0276
17468TIP3    H173895   3.329   2.892   4.268 -2.7923  1.1728 -0.3853
17468TIP3    H273896   3.446   2.959   4.200 -0.5922 -0.0636  2.0074
17469TIP3   OH273897   1.789   3.227  14.468 -0.1514  0.6043  0.2884
17469TIP3    H173898   1.762   3.297  14.408  0.3789  1.1876  0.7196
17469TIP3    H273899   1.708   3.182  14.491 -0.5420  1.2785  0.2511
17470TIP3   OH273900   6.321   3.066  12.462 -0.2570  0.5697  0.0936
17470TIP3    H173901   6.385   3.075  12.391  0.5679  1.1619  0.8791
17470TIP3    H273902   6.360   3.002  12.522  0.3727  2.0709  1.3540
17471TIP3   OH273903   0.186   3.717  14.494 -0.1087  0.1121  0.1695
17471TIP3    H173904   0.221   3.691  14.580 -1.2690 -0.8499  0.3693
17471TIP3    H273905   0.218   3.650  14.434 -1.3867 -0.6740  0.3220
17472TIP3   OH273906   0.572   2.106  10.767  0.3139  0.6868  0.0956
17472TIP3    H173907   0.523   2.171  10.816  0.2615  1.9165 -1.4859
17472TIP3    H273908   0.663   2.137  10.771  0.6146 -0.2914  1.0582
17473TIP3   OH273909   2.694   3.541  15.722  0.3219 -0.2898  0.1200
17473TIP3    H173910   2.634   3.543  15.648 -2.6056 -0.7449  2.2937
17473TIP3    H273911   2.735   3.455  15.718 -0.3418 -0.5858 -0.5764
17474TIP3   OH273912   0.673   3.068   6.382 -0.0043 -0.4365 -0.0176
17474TIP3    H173913   0.654   3.142   6.325 -2.4188 -0.3737  0.7817
17474TIP3    H273914   0.650   2.991   6.329 -0.5469 -0.4683  0.2704
17475TIP3   OH273915   5.738   4.677  11.315 -0.0441  0.1513  0.4749
17475TIP3    H173916   5.713   4.680  11.407 -0.4998  1.9032  0.3330
17475TIP3    H273917   5.823   4.721  11.312  0.3762 -0.6663  0.1618
17476TIP3   OH273918   3.056   3.347   0.105  0.4654  0.3693  0.0686
17476TIP3    H173919   3.103   3.420   0.144  1.5867  0.4077 -1.2313
17476TIP3    H273920   3.110   3.323   0.029 -1.1391 -0.2437 -0.9170
17477TIP3   OH273921   0.906   4.734   4.260  0.4265 -0.0328  0.7275
17477TIP3    H173922   0.873   4.644   4.266  2.1401 -0.9161 -1.4141
17477TIP3    H273923   0.830   4.787   4.238 -0.1939 -1.4533 -0.7654
17478TIP3   OH273924   0.028   3.536  12.694 -0.4840  0.5432  0.1555
17478TIP3    H173925   0.118   3.557  12.669 -0.0548  1.3478  2.1216
17478TIP3    H273926  -0.026   3.596  12.643  0.1864  0.9307 -0.1112
17479TIP3   OH273927   4.422   3.769   3.287 -0.1617 -0.2438 -0.1937
17479TIP3    H173928   4.328   3.776   3.298 -0.0963 -2.0356  2.2125
17479TIP3    H273929   4.438   3.675   3.273  1.3400 -0.1437  0.6247
17480TIP3   OH273930   0.639   1.588  14.055 -0.3002  0.5833  0.4884
17480TIP3    H173931   0.715   1.561  14.004  0.7399  1.0952  1.7103
17480TIP3    H273932   0.567   1.533  14.023  0.9373 -1.0560  0.4537
17481TIP3   OH273933   2.356   1.807  14.298 -0.2010  0.1858  0.0595
17481TIP3    H173934   2.374   1.891  14.340 -0.7550  1.3593 -1.8962
17481TIP3    H273935   2.339   1.747  14.370 -0.0665  1.8110  1.5150
17482TIP3   OH273936   1.312   0.389  11.582 -0.3551  0.3711  0.2815
17482TIP3    H173937   1.283   0.299  11.564 -2.4881  0.8441  0.9606
17482TIP3    H273938   1.344   0.386  11.672 -0.2552  0.2510  0.2421
17483TIP3   OH273939   6.471   1.557   5.002  0.2122 -0.2005 -0.4700
17483TIP3    H173940   6.420   1.631   5.034 -0.0339 -0.7389  0.4076
17483TIP3    H273941   6.550   1.556   5.057  0.5525 -0.1644 -0.9483
17484TIP3   OH273942   2.847   5.652   2.476  0.3061  0.9195  0.0990
17484TIP3    H173943   2.856   5.665   2.571  1.4743 -2.0634  0.5228
17484TIP3    H273944   2.789   5.576   2.469  1.8474 -0.1728 -1.4531
17485TIP3   OH273945   4.172   4.016  16.992  0.1228 -0.3852 -0.1903
17485TIP3    H173946   4.196   4.003  16.900  0.7037  0.6053 -0.1928
17485TIP3    H273947   4.088   3.970  17.001 -0.0089 -0.3904 -1.2487
17486TIP3   OH273948   6.425   2.088  12.187  0.5825  0.0603  0.0068
17486TIP3    H173949   6.450   1.996  12.178 -0.8884 -0.4604  0.8199
17486TIP3    H273950   6.476   2.119  12.261  0.9431 -0.1549 -0.1481
17487TIP3   OH273951   6.235   1.923  12.347 -0.4838 -0.1145 -0.6921
17487TIP3    H173952   6.301   1.992  12.352 -0.3710 -0.2808  0.5316
17487TIP3    H273953   6.206   1.911  12.438  0.2285 -2.3616 -0.6791
17488TIP3   OH273954   4.390   6.865  15.291  0.4011  0.0861 -0.0170
17488TIP3    H173955   4.378   6.891  15.382  1.5313 -2.2841  0.8930
17488TIP3    H273956   4.384   6.947  15.241  0.1155  1.4847  2.2001
17489TIP3   OH273957   5.402   2.860  17.053  0.2439 -0.7420 -0.5142
17489TIP3    H173958   5.432   2.769  17.050 -1.1945 -1.2366 -0.7998
17489TIP3    H273959   5.351   2.866  17.133  0.0654 -0.2709 -0.6609
17490TIP3   OH273960   1.158   3.579  14.807  0.6358  0.7253  0.4683
17490TIP3    H173961   1.076   3.573  14.856 -0.0024 -0.3492 -0.6748
17490TIP3    H273962   1.227   3.564  14.872 -0.2314 -1.9863  0.8816
17491TIP3   OH273963   6.625   4.881   5.413  0.0470  0.3228 -0.2206
17491TIP3    H173964   6.651   4.789   5.418 -0.5138  0.1363 -0.6984
17491TIP3    H273965   6.660   4.920   5.494  0.0587 -0.3653  0.1111
17492TIP3   OH273966   4.981   2.230   0.952 -0.0217 -0.0504  0.4011
17492TIP3    H173967   5.046   2.252   1.019  0.3341  1.5528 -0.4237
17492TIP3    H273968   4.974   2.135   0.956  1.1961 -0.1252  1.5986
17493TIP3   OH273969   6.707   4.644   2.858  0.3426  0.8509  0.5422
17493TIP3    H173970   6.611   4.638   2.856  0.4264 -1.7017  0.7417
17493TIP3    H273971   6.733   4.647   2.766  0.1134 -1.0480  0.3733
17494TIP3   OH273972   0.963   1.440  12.458 -0.9553 -0.4705  0.4624
17494TIP3    H173973   1.056   1.424  12.440 -0.4632  0.2937  2.1540
17494TIP3    H273974   0.920   1.358  12.434  0.2457 -1.0681  0.2691
17495TIP3   OH273975   0.991   4.994   1.358  0.0578  0.7493  0.0758
17495TIP3    H173976   1.042   5.035   1.287 -1.5270  0.8169 -1.0734
17495TIP3    H273977   0.914   5.050   1.368 -2.1912 -1.7998 -1.5350
17496TIP3   OH273978   6.628   0.335  15.772 -0.5125 -0.2264  0.3322
17496TIP3    H173979   6.634   0.310  15.864  2.3682 -0.2346  0.2278
17496TIP3    H273980   6.653   0.257  15.723  1.1412  0.6589 -0.2987
17497TIP3   OH273981   3.795   2.628  13.066  0.0285  0.3741 -0.1053
17497TIP3    H173982   3.830   2.668  13.146  0.3460  0.2069 -0.1588
17497TIP3    H273983   3.795   2.534  13.084 -1.5288  0.4278  0.3471
17498TIP3   OH273984   3.762   6.593  15.073 -0.2000 -0.0634  0.2579
17498TIP3    H173985   3.821   6.530  15.115 -0.2134 -1.7103 -2.0279
17498TIP3    H273986   3.820   6.663  15.044  0.1873 -0.2234  0.6297
17499TIP3   OH273987   2.216   1.005  11.583  0.1694 -0.2491 -0.4651
17499TIP3    H173988   2.124   1.018  11.605  0.4380  1.0146  0.0000
17499TIP3    H273989   2.236   1.074  11.521  1.0590  0.1398  0.2295
17500TIP3   OH273990   5.919   6.083   4.736  1.2330 -0.2569  0.1403
17500TIP3    H173991   5.984   6.145   4.769  1.2235 -0.9251  1.4742
17500TIP3    H273992   5.905   6.022   4.808 -0.5872 -0.3705 -0.2484
17501TIP3   OH273993   6.045   2.238   4.640 -0.3424  0.1482 -0.2057
17501TIP3    H173994   6.132   2.251   4.679 -0.2765 -0.8013 -0.0147
17501TIP3    H273995   5.985   2.259   4.711 -0.2149 -2.8197  0.9238
17502TIP3   OH273996   3.425   5.543  11.241 -0.0425 -0.0620  0.1161
17502TIP3    H173997   3.400   5.470  11.297  0.1901 -1.1416 -1.1554
17502TIP3    H273998   3.521   5.537  11.235 -0.1280 -0.4492 -1.0273
17503TIP3   OH273999   0.364   5.428   5.583 -0.5205 -0.1299 -0.0955
17503TIP3    H174000   0.389   5.361   5.519 -1.4482 -0.8443  0.2689
17503TIP3    H274001   0.394   5.510   5.544 -1.8306 -0.4370 -1.8804
17504TIP3   OH274002   5.403   1.899   3.476 -0.3163 -0.1877 -0.1547
17504TIP3    H174003   5.416   1.849   3.556 -0.7452 -0.9213 -0.5422
17504TIP3    H274004   5.431   1.988   3.499 -1.0263 -0.2474  0.9865
17505TIP3   OH274005   6.667   4.975  16.174 -0.4960 -0.2129  0.5422
17505TIP3    H174006   6.753   4.997  16.138 -0.4017  0.0445  0.9121
17505TIP3    H274007   6.610   5.047  16.145 -0.3654  0.1229  1.0917
17506TIP3   OH274008   5.554   1.441   4.391  0.8026 -0.5939 -0.4528
17506TIP3    H174009   5.460   1.459   4.388  1.0160  1.2184  1.2349
17506TIP3    H274010   5.592   1.507   4.332  1.0972 -0.4632 -0.1186
17507TIP3   OH274011   4.708   2.611   2.815  0.3680 -0.1061 -0.1115
17507TIP3    H174012   4.735   2.672   2.884  0.8649 -0.8210  0.3433
17507TIP3    H274013   4.768   2.536   2.825 -2.7113 -2.5631  2.0228
17508TIP3   OH274014   1.784   1.367   1.665  0.4271  0.0546  0.2463
17508TIP3    H174015   1.853   1.331   1.610 -0.6825 -0.5787 -0.7660
17508TIP3    H274016   1.716   1.300   1.666  0.1184  0.3311  1.8630
17509TIP3   OH274017   0.450   4.117   4.652 -0.3516  0.1301  0.3839
17509TIP3    H174018   0.401   4.192   4.685 -0.3711  0.0820  0.4658
17509TIP3    H274019   0.489   4.079   4.731 -0.1737  0.1757  0.3182
17510TIP3   OH274020   1.075   1.022  14.136  0.5440  0.1456 -0.3622
17510TIP3    H174021   1.028   1.084  14.080  0.5852  1.4163  0.9160
17510TIP3    H274022   1.084   1.069  14.219  0.7832 -1.5260  0.5944
17511TIP3   OH274023   5.952   0.805  13.190  0.6651 -0.1119 -0.2528
17511TIP3    H174024   5.916   0.860  13.260 -0.3198  2.5501 -2.6706
17511TIP3    H274025   6.032   0.849  13.163  2.1789 -2.2643  0.4898
17512TIP3   OH274026   2.871   0.543  12.739 -0.0597  0.2029 -0.3898
17512TIP3    H174027   2.826   0.538  12.655 -1.1117  0.3156  0.1513
17512TIP3    H274028   2.937   0.612  12.726  0.5251 -0.5292 -1.4388
17513TIP3   OH274029   5.556   3.388  12.486  0.2403 -0.2033 -0.1217
17513TIP3    H174030   5.585   3.475  12.457 -1.0096  0.4246  0.4425
17513TIP3    H274031   5.637   3.337  12.492  0.9634  0.8164 -0.7765
17514TIP3   OH274032   0.246   5.681   0.944 -0.3044 -0.0367 -0.4067
17514TIP3    H174033   0.335   5.716   0.944  0.9232 -2.8326  1.4756
17514TIP3    H274034   0.229   5.658   0.852  1.0177  0.2980 -0.7498
17515TIP3   OH274035   0.686   6.134  16.922 -0.1774  0.1020 -0.2512
17515TIP3    H174036   0.746   6.195  16.881 -0.3672  1.2577  1.1221
17515TIP3    H274037   0.741   6.060  16.949  0.6695  1.1576  1.0256
17516TIP3   OH274038   1.844   5.278   3.899  0.5630 -0.6472 -0.1461
17516TIP3    H174039   1.784   5.245   3.832  0.0425  0.4089 -0.2341
17516TIP3    H274040   1.842   5.373   3.887  1.9680 -0.5652  0.1051
17517TIP3   OH274041   2.204   3.446  11.987  0.1831 -0.8848  0.1187
17517TIP3    H174042   2.243   3.483  12.066  0.4354 -0.3290 -0.2592
17517TIP3    H274043   2.159   3.520  11.946 -2.3116 -1.7296  1.1468
17518TIP3   OH274044   0.309   5.593  16.674 -0.0578 -0.2090  0.1554
17518TIP3    H174045   0.268   5.537  16.740 -1.1063 -0.0944 -0.3831
17518TIP3    H274046   0.363   5.534  16.622  2.2485 -0.0543  2.1610
17519TIP3   OH274047   5.914   0.149   2.083  0.1781 -0.1708 -0.2400
17519TIP3    H174048   5.843   0.171   2.142  0.4946  1.1843 -0.3259
17519TIP3    H274049   5.871   0.119   2.003 -0.2693 -0.6543  0.1784
17520TIP3   OH274050   2.130   3.697  15.219  0.1094 -0.3622  0.0432
17520TIP3    H174051   2.207   3.682  15.164 -0.5742 -0.2114 -0.9802
17520TIP3    H274052   2.072   3.624  15.198  0.1382 -0.7212  1.1437
17521TIP3   OH274053   3.889   3.342  14.022 -0.1270  0.0586  0.5809
17521TIP3    H174054   3.950   3.402  13.978 -1.7822  1.3761 -0.0086
17521TIP3    H274055   3.857   3.285  13.951 -0.5176  0.1991  0.6426
17522TIP3   OH274056   0.317   6.110   0.574  0.5760 -0.8494  0.1623
17522TIP3    H174057   0.302   6.122   0.481 -0.2192  0.9306  0.4688
17522TIP3    H274058   0.408   6.082   0.581  1.5611  1.7880 -1.0242
17523TIP3   OH274059   1.910   2.240  14.979  0.2236  0.1699  0.2059
17523TIP3    H174060   1.873   2.158  14.946  0.2589  0.1299  0.2673
17523TIP3    H274061   1.908   2.231  15.074  1.4575 -0.2982  0.2038
17524TIP3   OH274062   0.515   3.607  13.868 -0.0501  0.0669  0.0283
17524TIP3    H174063   0.459   3.549  13.920  0.6409 -0.1461  0.5397
17524TIP3    H274064   0.453   3.658  13.816 -0.7200 -0.2949  0.4467
17525TIP3   OH274065   2.975   6.702  11.172  0.4751  0.6455  0.5963
17525TIP3    H174066   2.932   6.636  11.226 -0.1178  0.4800 -0.0578
17525TIP3    H274067   2.907   6.768  11.157  0.6780  0.7600  0.1785
17526TIP3   OH274068   5.084   2.043   5.530  0.6292  0.1456  0.1360
17526TIP3    H174069   5.027   2.016   5.602  0.1152  1.7240  0.3622
17526TIP3    H274070   5.160   2.083   5.572  1.5320 -1.1665 -0.1823
17527TIP3   OH274071   1.215   4.579   1.629 -0.4832  0.1978 -0.2715
17527TIP3    H174072   1.200   4.591   1.536  0.6221 -0.9575 -0.6286
17527TIP3    H274073   1.202   4.485   1.644 -2.3044  0.6066  1.0818
17528TIP3   OH274074   1.767   0.110  14.964  1.0019  0.1245  0.5250
17528TIP3    H174075   1.779   0.164  15.042  1.0309 -0.2292  0.7672
17528TIP3    H274076   1.825   0.149  14.899 -0.3126  1.5014  0.1183
17529TIP3   OH274077   1.851   1.961  14.485  0.5414 -0.6605 -0.2503
17529TIP3    H174078   1.831   1.902  14.412  1.1032 -0.1646 -0.8174
17529TIP3    H274079   1.785   1.939  14.552 -0.6228 -0.4427 -1.2855
17530TIP3   OH274080   3.627   0.456  11.075  0.5359 -0.5554  0.5753
17530TIP3    H174081   3.584   0.440  10.991 -0.5276 -0.7175  1.1308
17530TIP3    H274082   3.694   0.522  11.056 -1.5151  1.5334  0.0647
17531TIP3   OH274083   3.383   1.747   3.030 -0.2174 -0.3580 -0.1992
17531TIP3    H174084   3.391   1.805   3.105 -1.2091 -0.3425 -0.0898
17531TIP3    H274085   3.289   1.744   3.011 -0.4390 -3.1547  0.7879
17532TIP3   OH274086   6.181   3.869  12.605  0.5679 -0.1685  0.3753
17532TIP3    H174087   6.198   3.803  12.672 -1.1578  1.6296  2.7647
17532TIP3    H274088   6.113   3.925  12.643 -0.4846  1.0185 -2.8868
17533TIP3   OH274089   6.594   6.094  12.375 -0.1486 -0.1284 -0.7108
17533TIP3    H174090   6.546   6.155  12.430  2.0817  0.3624  0.8078
17533TIP3    H274091   6.570   6.118  12.285 -0.1597  2.2697 -0.1135
17534TIP3   OH274092   5.981   0.460   7.073  0.2884  0.0667 -0.2855
17534TIP3    H174093   5.948   0.372   7.091 -0.7194  0.4849 -0.0115
17534TIP3    H274094   5.906   0.506   7.034  1.3497  0.2555 -2.2562
17535TIP3   OH274095   3.918   5.746   1.996  0.5608 -0.8333 -0.5348
17535TIP3    H174096   3.970   5.665   1.999  0.7710 -0.6528  1.3254
17535TIP3    H274097   3.975   5.809   1.952  0.5454 -1.5600 -1.6495
17536TIP3   OH274098   3.430   0.783   1.710 -0.5234  0.4021 -0.4061
17536TIP3    H174099   3.515   0.822   1.694 -1.0607  1.8420  0.1306
17536TIP3    H274100   3.438   0.742   1.796 -0.0042 -0.6108 -0.9113
17537TIP3   OH274101   0.077   5.858   2.779  0.0195  0.7011 -0.0146
17537TIP3    H174102   0.087   5.797   2.852 -0.6270  0.2998 -0.2475
17537TIP3    H274103   0.138   5.929   2.798  0.4985  0.1706  0.4616
17538TIP3   OH274104   4.110   0.633   5.981 -0.6822  0.0035  0.4696
17538TIP3    H174105   4.191   0.632   6.032 -0.5833  1.2105  0.3698
17538TIP3    H274106   4.105   0.546   5.942 -0.2658 -0.6327  1.7610
17539TIP3   OH274107   5.259   5.073  11.491  0.1808  0.7671  0.2480
17539TIP3    H174108   5.179   5.124  11.480 -0.2145  0.1417  0.1604
17539TIP3    H274109   5.317   5.104  11.420 -0.2941  0.6377 -0.2023
17540TIP3   OH274110   1.823   3.205  15.417  0.0479 -0.2626  0.8512
17540TIP3    H174111   1.731   3.199  15.389  0.4119 -4.1602 -0.1455
17540TIP3    H274112   1.868   3.246  15.343 -0.6278 -0.2300  0.4461
17541TIP3   OH274113   1.840   4.040   1.321 -0.0303 -0.1806 -0.4129
17541TIP3    H174114   1.931   4.053   1.348 -0.4065 -0.4815  1.1498
17541TIP3    H274115   1.843   3.967   1.260  0.6409 -1.2203  0.8072
17542TIP3   OH274116   1.186   5.824   2.823  0.1840 -0.2734  0.2563
17542TIP3    H174117   1.141   5.857   2.900  1.1902  3.2133 -0.4698
17542TIP3    H274118   1.277   5.851   2.835  0.5167 -0.3058 -1.7786
17543TIP3   OH274119   1.213   4.109   3.120 -0.1572 -0.8895  0.2673
17543TIP3    H174120   1.215   4.031   3.176 -0.1938 -1.3535 -0.3574
17543TIP3    H274121   1.183   4.180   3.177 -0.9787 -1.5148  0.6367
17544TIP3   OH274122   0.044   3.638   2.070  0.2467  0.1497 -0.2919
17544TIP3    H174123  -0.008   3.718   2.069 -1.7626 -1.0623  0.7731
17544TIP3    H274124   0.089   3.637   1.986 -0.2109  2.0474 -0.5890
17545TIP3   OH274125   3.168   4.899   3.057 -0.1161  0.1721 -0.0285
17545TIP3    H174126   3.098   4.963   3.045 -0.5678 -0.7145 -2.8972
17545TIP3    H274127   3.129   4.816   3.028  1.5557 -0.6837  0.0808
17546TIP3   OH274128   1.765   0.835  12.171 -0.0465 -0.6078 -0.2607
17546TIP3    H174129   1.732   0.820  12.082  0.0134 -0.5465 -0.2926
17546TIP3    H274130   1.708   0.903  12.206 -0.0612 -0.6220 -0.2562
17547TIP3   OH274131   3.746   4.691  13.662  0.4261 -0.1483 -0.1359
17547TIP3    H174132   3.752   4.635  13.740  2.3407 -0.3783 -0.3822
17547TIP3    H274133   3.720   4.777  13.696  0.1435 -0.5272  0.6146
17548TIP3   OH274134   3.045   3.867   4.090  0.3375 -0.6991 -0.0440
17548TIP3    H174135   3.035   3.932   4.021  1.0564 -1.1280 -0.5724
17548TIP3    H274136   2.979   3.890   4.156 -0.6686 -0.5598 -1.0822
17549TIP3   OH274137   2.875   0.424  15.307  0.1816  1.0690 -0.2620
17549TIP3    H174138   2.935   0.446  15.235 -0.3685  1.7974 -0.5084
17549TIP3    H274139   2.811   0.365  15.268 -0.6768  2.2068 -0.6452
17550TIP3   OH274140   6.066   0.557   5.409  0.4024  0.0318  0.0076
17550TIP3    H174141   6.105   0.582   5.325 -0.3941  1.3988  0.0247
17550TIP3    H274142   6.128   0.588   5.475  0.6103 -0.2681 -0.0452
17551TIP3   OH274143   6.232   5.710   4.764 -0.1759  0.2175 -0.3532
17551TIP3    H174144   6.167   5.647   4.793 -1.3468  2.1967  1.5501
17551TIP3    H274145   6.187   5.763   4.698  0.7561 -0.7197 -1.8289
17552TIP3   OH274146   5.912   6.208  10.669 -0.4086  0.3478  0.4804
17552TIP3    H174147   5.934   6.204  10.576 -0.1426  3.0223  0.3697
17552TIP3    H274148   5.836   6.266  10.673  0.7540  1.8792  2.0536
17553TIP3   OH274149   3.408   3.202   2.566  0.2014 -0.1130  0.0255
17553TIP3    H174150   3.346   3.257   2.615 -0.6781  0.1417 -1.3294
17553TIP3    H274151   3.376   3.113   2.580 -1.3086  0.0987 -1.7151
17554TIP3   OH274152   3.386   3.735  13.844 -0.4477  0.2755 -0.7439
17554TIP3    H174153   3.409   3.645  13.869 -1.6782 -0.0633 -0.7445
17554TIP3    H274154   3.324   3.724  13.771 -0.8225  1.1104 -0.5619
17555TIP3   OH274155   2.478   2.546   4.048 -0.4747  0.1662  0.3811
17555TIP3    H174156   2.451   2.560   3.958 -1.3049 -1.8241  0.2809
17555TIP3    H274157   2.561   2.499   4.042 -0.3520  0.3388  0.6641
17556TIP3   OH274158   5.107   5.275  16.037 -0.2175 -0.1247 -0.0132
17556TIP3    H174159   5.169   5.343  16.062 -0.7578  1.1372 -1.8952
17556TIP3    H274160   5.162   5.200  16.014  0.5698  0.6143 -0.6144
17557TIP3   OH274161   3.964   5.324   3.295 -0.0533 -0.0200  0.5954
17557TIP3    H174162   4.053   5.353   3.275 -1.0251  1.9642 -1.2769
17557TIP3    H274163   3.932   5.287   3.213 -1.2613  0.1625  0.9705
17558TIP3   OH274164   4.455   1.853   6.362 -0.0771 -0.1087 -0.1013
17558TIP3    H174165   4.363   1.838   6.384  0.2227 -1.7406  0.1233
17558TIP3    H274166   4.485   1.917   6.427 -0.6402 -0.7599  0.8211
17559TIP3   OH274167   4.405   1.760  16.925 -0.4559 -0.1474 -0.4692
17559TIP3    H174168   4.476   1.697  16.916  0.2987  0.2394  2.0032
17559TIP3    H274169   4.332   1.710  16.961  0.0543  0.2525  1.2284
17560TIP3   OH274170   0.199   3.023  16.724  0.4398  1.1968  0.0949
17560TIP3    H174171   0.283   3.065  16.741  1.7840 -1.4501  0.5346
17560TIP3    H274172   0.158   3.017  16.811  1.0837  0.0428  0.3441
17561TIP3   OH274173   4.953   4.058   3.495 -0.5483 -0.0040  0.0049
17561TIP3    H174174   5.029   4.000   3.488 -1.4647 -1.2890  0.3106
17561TIP3    H274175   4.990   4.146   3.493  0.9051 -0.5907 -0.3142
17562TIP3   OH274176   6.372   4.790   5.407 -0.1480  0.3491 -0.4094
17562TIP3    H174177   6.350   4.807   5.316 -0.3043  0.2634 -0.3880
17562TIP3    H274178   6.455   4.836   5.421 -1.1712  2.1460 -0.0078
17563TIP3   OH274179   0.828   3.091  13.149 -0.7430 -0.1041  0.2056
17563TIP3    H174180   0.741   3.120  13.175 -0.0999  2.3140 -0.0809
17563TIP3    H274181   0.885   3.119  13.221 -0.0908 -0.8753  0.0010
17564TIP3   OH274182   6.482   1.984   4.650 -0.0475 -0.2401  0.7814
17564TIP3    H174183   6.571   1.967   4.682  0.9112  0.8172 -1.1216
17564TIP3    H274184   6.490   1.983   4.555 -2.3028 -1.0755  0.5360
17565TIP3   OH274185   0.342   6.011   2.830 -0.0181  0.3547  0.1254
17565TIP3    H174186   0.379   6.016   2.918 -0.7867  0.1815  0.4666
17565TIP3    H274187   0.391   5.941   2.787  0.8145  0.8882  0.1848
17566TIP3   OH274188   0.523   5.147   1.392  0.1879  0.0710  0.0035
17566TIP3    H174189   0.614   5.172   1.381 -0.2438  1.2033 -1.2237
17566TIP3    H274190   0.486   5.216   1.447 -0.5367  1.1170 -1.7268
17567TIP3   OH274191   3.542   0.613   0.066  0.2108  0.2848 -0.4757
17567TIP3    H174192   3.474   0.549   0.048 -0.4341  1.0436 -0.8313
17567TIP3    H274193   3.548   0.617   0.161 -0.5831  0.5487 -0.4315
17568TIP3   OH274194   6.243   0.471  12.265 -0.7140  0.1467  0.1241
17568TIP3    H174195   6.318   0.513  12.222 -0.3222 -0.1398  0.5217
17568TIP3    H274196   6.172   0.535  12.255 -0.2815  0.6515  0.1969
17569TIP3   OH274197   1.702   4.566  11.761 -0.3890  0.5598  0.5576
17569TIP3    H174198   1.670   4.539  11.675 -2.5417 -0.4041  1.5719
17569TIP3    H274199   1.700   4.662  11.758  0.4435  0.5544 -0.7400
17570TIP3   OH274200   2.801   3.378   4.281  0.1775 -0.5182 -0.0625
17570TIP3    H174201   2.820   3.435   4.356 -0.5182  0.3404 -0.5190
17570TIP3    H274202   2.876   3.389   4.223  0.6158 -1.0157  0.4101
17571TIP3   OH274203   0.735   3.661  13.718 -0.2655  0.2217 -0.2424
17571TIP3    H174204   0.659   3.660  13.775  0.0462 -1.2218  0.1855
17571TIP3    H274205   0.810   3.652  13.777  0.2996  2.0231 -0.6165
17572TIP3   OH274206   4.007   1.794  11.159  0.0051 -0.2558  0.3999
17572TIP3    H174207   3.980   1.731  11.092 -0.1817  0.1542  0.0877
17572TIP3    H274208   4.057   1.860  11.112 -0.0113 -0.0352  0.6869
17573TIP3   OH274209   4.256   1.981   3.979  0.3064  0.0532 -0.3258
17573TIP3    H174210   4.207   1.960   3.900  0.1634  0.1003 -0.2507
17573TIP3    H274211   4.220   1.924   4.047 -0.5334  0.9691  0.0338
17574TIP3   OH274212   4.263   4.520   2.270 -0.0664  0.5943 -0.4049
17574TIP3    H174213   4.209   4.550   2.343  0.1891 -0.9250  0.4443
17574TIP3    H274214   4.353   4.528   2.301  0.2034  2.4244 -1.5483
17575TIP3   OH274215   1.425   0.226   0.561  0.0541  0.0266  0.5724
17575TIP3    H174216   1.448   0.235   0.654 -0.6510 -0.5593  0.8173
17575TIP3    H274217   1.446   0.311   0.523  0.3279  0.2842  1.2751
17576TIP3   OH274218   1.018   4.933   2.591  0.2360 -0.1827  0.3029
17576TIP3    H174219   1.067   5.015   2.599  1.6268 -0.9245 -0.2611
17576TIP3    H274220   0.956   4.935   2.663 -0.5797  1.8956 -0.3883
17577TIP3   OH274221   5.298   3.001   4.948 -0.1358  0.6103  0.0712
17577TIP3    H174222   5.208   3.031   4.951  0.0053  0.9533  1.0449
17577TIP3    H274223   5.336   3.046   4.872 -0.0371  2.6333  1.2634
17578TIP3   OH274224   4.656   3.198  16.671 -0.1640  0.1110  0.0678
17578TIP3    H174225   4.662   3.286  16.634  0.6927  0.6022  1.3037
17578TIP3    H274226   4.734   3.153  16.640  0.0607  0.2127  0.4779
17579TIP3   OH274227   0.467   2.357  11.563  0.1879  0.3914 -0.3707
17579TIP3    H174228   0.497   2.429  11.618 -0.4762 -0.0617  0.6018
17579TIP3    H274229   0.520   2.281  11.590 -1.7852 -0.4284  1.4046
17580TIP3   OH274230   1.450   1.600   1.061  0.1105 -0.6281 -0.6257
17580TIP3    H174231   1.540   1.620   1.033  0.2861  0.0480  0.3745
17580TIP3    H274232   1.395   1.659   1.010  0.4359  0.6595  0.4494
17581TIP3   OH274233   3.656   0.856  12.563  0.3425 -0.1555 -0.2148
17581TIP3    H174234   3.586   0.835  12.502  0.3895  1.7660 -0.9809
17581TIP3    H274235   3.722   0.901  12.510  1.4498 -0.5052  0.8009
17582TIP3   OH274236   6.453   3.967   4.534  0.5881 -0.3429 -0.2452
17582TIP3    H174237   6.541   3.935   4.551  0.8019 -0.3267 -1.2595
17582TIP3    H274238   6.453   4.057   4.565  1.1787 -0.0844 -0.9713
17583TIP3   OH274239   4.885   5.531  13.161  0.3460 -0.2370 -0.1591
17583TIP3    H174240   4.924   5.524  13.074  0.0072  2.2269 -0.5760
17583TIP3    H274241   4.796   5.499  13.150  0.0603  0.7693 -0.9427
17584TIP3   OH274242   6.244   6.511  10.858 -0.0794 -0.1110 -0.1000
17584TIP3    H174243   6.155   6.486  10.834 -0.4614  0.1128  1.0335
17584TIP3    H274244   6.233   6.590  10.911  0.7822 -0.2054  0.2284
17585TIP3   OH274245   4.734   1.166   5.066  0.3225 -0.0649  0.2494
17585TIP3    H174246   4.706   1.169   5.158  0.3493  0.2923  0.2484
17585TIP3    H274247   4.758   1.074   5.051  1.3885  0.0853  0.9229
17586TIP3   OH274248   3.054   1.474   3.972 -0.3563 -0.4837  0.0936
17586TIP3    H174249   3.037   1.391   3.926 -1.4191 -0.7022  0.8673
17586TIP3    H274250   3.139   1.503   3.936 -1.4138 -0.2989 -2.5161
17587TIP3   OH274251   4.847   3.945   3.196  0.0626  0.1451  0.7026
17587TIP3    H174252   4.785   3.980   3.132  0.5857 -1.6858 -0.9054
17587TIP3    H274253   4.932   3.981   3.170  0.3867 -1.1517 -0.1166
17588TIP3   OH274254   5.968   2.003   4.093  0.1399 -0.9334  0.2922
17588TIP3    H174255   6.055   2.041   4.106  0.2347 -1.5609  1.6543
17588TIP3    H274256   5.908   2.078   4.101  0.5603 -0.4246 -1.0885
17589TIP3   OH274257   4.868   4.457   0.530 -0.0817 -0.5992  0.1937
17589TIP3    H174258   4.924   4.483   0.457 -0.4793  0.3246  0.2031
17589TIP3    H274259   4.822   4.380   0.497  0.9681 -1.1922  0.0833
17590TIP3   OH274260   4.668   3.572   0.582  0.2086 -0.1200  0.5429
17590TIP3    H174261   4.712   3.605   0.660  1.3826  1.0262 -0.5553
17590TIP3    H274262   4.697   3.481   0.575  0.1662 -0.2015  1.3891
17591TIP3   OH274263   5.287   4.776  12.685  0.1762  0.7505 -0.4202
17591TIP3    H174264   5.293   4.760  12.779 -0.4908  1.7002 -0.2071
17591TIP3    H274265   5.362   4.833  12.666  0.3181  0.5483 -0.4725
17592TIP3   OH274266   6.238   1.240  11.757 -0.2556  0.3479  0.2640
17592TIP3    H174267   6.192   1.238  11.841 -1.6365 -0.8799 -0.4617
17592TIP3    H274268   6.213   1.324  11.719  0.7502  1.1187  1.2446
17593TIP3   OH274269   3.445   0.654   3.866  0.3158 -0.1045  0.7152
17593TIP3    H174270   3.427   0.605   3.786 -0.7680  0.2782  0.7029
17593TIP3    H274271   3.514   0.716   3.842 -1.5572  1.6178 -0.6303
17594TIP3   OH274272   0.478   4.678   4.135  0.0844 -0.8250 -0.4855
17594TIP3    H174273   0.547   4.640   4.081  0.6216  0.8619 -1.0473
17594TIP3    H274274   0.409   4.703   4.073 -0.4632 -1.2884 -0.0762
17595TIP3   OH274275   0.207   6.171   1.983  0.2068  0.0394 -0.0244
17595TIP3    H174276   0.188   6.086   2.022 -0.2438 -0.0916 -0.5185
17595TIP3    H274277   0.197   6.157   1.888 -1.7635  1.0867 -0.0181
17596TIP3   OH274278   2.460   3.231   3.619  0.0828 -1.0180  0.2127
17596TIP3    H174279   2.545   3.248   3.660 -0.8298  1.2467  1.3443
17596TIP3    H274280   2.397   3.231   3.691 -1.4968  2.5016 -0.9366
17597TIP3   OH274281   1.458   6.688   3.738  0.3337 -0.4920 -0.0206
17597TIP3    H174282   1.429   6.666   3.650 -1.7923  0.5827  0.3673
17597TIP3    H274283   1.550   6.714   3.727 -0.1123  0.3925 -2.0286
17598TIP3   OH274284   2.251   2.254   3.919  0.3359 -0.1109 -0.0566
17598TIP3    H174285   2.230   2.321   3.854 -0.3219 -0.0488  0.2137
17598TIP3    H274286   2.168   2.207   3.934  0.7933 -1.0265 -0.2851
17599TIP3   OH274287   6.708   2.044   4.014  0.3179 -0.6117 -0.3860
17599TIP3    H174288   6.646   1.974   3.993  0.8454 -1.0796 -0.4041
17599TIP3    H274289   6.745   2.070   3.929 -0.4803  0.2733 -0.4813
17600TIP3   OH274290   2.496   3.646   3.958 -0.2363 -0.1175 -0.6466
17600TIP3    H174291   2.449   3.729   3.954  1.0127  0.6525 -0.0515
17600TIP3    H274292   2.585   3.668   3.931 -0.0193 -1.3940 -1.0586
17601TIP3   OH274293   3.062   6.528  13.377  0.2633 -0.7124 -0.3244
17601TIP3    H174294   2.974   6.549  13.348  0.1678 -1.2237 -0.4110
17601TIP3    H274295   3.104   6.490  13.300 -0.0325 -2.1959  0.2164
17602TIP3   OH274296   2.990   0.488   2.107  0.3699  0.5416 -0.4076
17602TIP3    H174297   2.987   0.421   2.176 -0.3421  0.2447 -0.7057
17602TIP3    H274298   2.901   0.487   2.071  0.3604  1.6432 -0.4293
17603TIP3   OH274299   3.008   5.963  15.682  0.6686 -0.2525 -0.1114
17603TIP3    H174300   2.923   5.965  15.727  1.0057 -2.9265  0.8575
17603TIP3    H274301   2.996   5.900  15.611  1.5767  0.0884 -0.5802
17604TIP3   OH274302   5.512   6.511  11.655 -0.4219 -1.1940  0.6314
17604TIP3    H174303   5.534   6.522  11.562  2.0647 -1.5776  1.1146
17604TIP3    H274304   5.547   6.425  11.678 -0.3063 -0.7823  2.1088
17605TIP3   OH274305   3.512   2.529  15.326  0.0340 -0.5080  0.0619
17605TIP3    H174306   3.555   2.446  15.345 -1.0296 -1.3932 -1.2662
17605TIP3    H274307   3.431   2.505  15.282 -1.3928  1.1414  1.6161
17606TIP3   OH274308   6.634   3.883  12.678  0.1901  0.5495 -0.8200
17606TIP3    H174309   6.623   3.861  12.586 -4.0929  1.3117 -0.6858
17606TIP3    H274310   6.611   3.803  12.725 -0.0718  0.8551 -0.4213
17607TIP3   OH274311   4.869   2.324   0.237 -0.0133 -1.0034 -0.4038
17607TIP3    H174312   4.774   2.338   0.232  0.0407 -0.5713 -0.2107
17607TIP3    H274313   4.884   2.244   0.186 -0.3570 -0.5575 -1.2033
17608TIP3   OH274314   4.993   1.985  15.639 -0.0136 -0.4734 -0.4929
17608TIP3    H174315   5.056   1.918  15.613  2.8168  1.6895  0.2545
17608TIP3    H274316   4.946   1.946  15.712  1.0199 -1.9386 -0.5608
17609TIP3   OH274317   5.472   6.483   5.837 -0.1147 -0.1160  0.0411
17609TIP3    H174318   5.434   6.405   5.878 -0.8235 -0.6673 -1.5631
17609TIP3    H274319   5.463   6.552   5.902 -2.0894 -0.7111  0.4494
17610TIP3   OH274320   3.815   4.571   2.503 -0.1438 -0.3429  0.4546
17610TIP3    H174321   3.815   4.517   2.582 -0.2884  0.2676  0.8825
17610TIP3    H274322   3.824   4.661   2.536 -0.0642 -0.0947 -0.2317
17611TIP3   OH274323   0.398   1.692   2.980 -0.1104  0.1828  0.1500
17611TIP3    H174324   0.415   1.759   2.914 -0.5222  0.8983  0.7443
17611TIP3    H274325   0.484   1.669   3.014  0.1759 -0.7253 -1.1234
17612TIP3   OH274326   0.022   5.271  10.442  0.6266  0.4943 -0.1347
17612TIP3    H174327   0.007   5.334  10.512 -0.1733  1.7935 -1.4204
17612TIP3    H274328  -0.066   5.245  10.414  0.9436 -0.7444 -0.0350
17613TIP3   OH274329   3.361   5.344  12.060 -0.4343  0.1513 -1.0212
17613TIP3    H174330   3.403   5.288  12.125  0.6878  0.5063 -1.4311
17613TIP3    H274331   3.299   5.397  12.111 -0.4991 -0.4684 -0.4358
17614TIP3   OH274332   1.668   4.259  12.732  0.6573 -1.0228 -0.1854
17614TIP3    H174333   1.620   4.181  12.705  2.2716 -2.0844 -0.1287
17614TIP3    H274334   1.692   4.242  12.823 -0.6297  0.4301  0.4869
17615TIP3   OH274335   4.260   3.202   1.138 -0.1113  0.2075  0.1371
17615TIP3    H174336   4.196   3.239   1.076  1.5441  0.7281 -1.3545
17615TIP3    H274337   4.298   3.128   1.091  0.4439 -0.0291  0.9525
17616TIP3   OH274338   2.857   3.905   0.926 -0.0044  0.3268  0.0939
17616TIP3    H174339   2.772   3.928   0.889  0.4479 -0.5969 -1.6636
17616TIP3    H274340   2.860   3.809   0.921  1.4220  0.3791 -0.6515
17617TIP3   OH274341   2.712   5.089  13.071  0.6096  0.4783  0.2270
17617TIP3    H174342   2.717   5.117  13.163 -0.1701  0.1580  0.3779
17617TIP3    H274343   2.795   5.042  13.056  0.7039  0.4508  0.7976
17618TIP3   OH274344   6.449   1.620  11.228  0.3355 -0.4132  0.3797
17618TIP3    H174345   6.395   1.646  11.153 -1.7700  2.1979  2.6107
17618TIP3    H274346   6.539   1.623  11.195 -0.4701  1.0739 -1.9123
17619TIP3   OH274347   2.509   2.303  16.392  0.1651 -0.6302  0.0720
17619TIP3    H174348   2.495   2.283  16.299  0.7426  0.1874 -0.2009
17619TIP3    H274349   2.603   2.287  16.405  0.3098  0.3301  0.2395
17620TIP3   OH274350   3.318   3.526   2.484  0.7852  0.5247 -0.3714
17620TIP3    H174351   3.324   3.454   2.546 -0.3498 -0.0680 -0.9195
17620TIP3    H274352   3.301   3.484   2.399  1.0664  1.3857 -0.8710
17621TIP3   OH274353   4.135   4.277  15.888  0.7477  0.4112  0.3157
17621TIP3    H174354   4.088   4.360  15.885 -1.3038 -0.7253 -0.7859
17621TIP3    H274355   4.105   4.235  15.968  0.6607  0.0969  0.1178
17622TIP3   OH274356   0.106   2.298   3.010  0.0086  0.2081 -0.7364
17622TIP3    H174357   0.154   2.233   3.062 -1.4258 -0.5498 -0.2893
17622TIP3    H274358   0.134   2.382   3.044  1.9318 -0.1406 -1.3402
17623TIP3   OH274359   4.068   0.961  15.887  0.4215  0.2964  0.8366
17623TIP3    H174360   4.160   0.959  15.911  0.3500 -0.3740  1.0678
17623TIP3    H274361   4.028   1.024  15.947  0.7519  0.7017  0.6356
17624TIP3   OH274362   4.605   3.083   3.041  0.2675  0.2542  0.2551
17624TIP3    H174363   4.640   3.006   3.085 -0.4076  0.6493  1.5205
17624TIP3    H274364   4.652   3.086   2.958 -0.9327 -2.5468 -0.6643
17625TIP3   OH274365   1.265   5.349   6.108  0.2566  0.3692 -0.7250
17625TIP3    H174366   1.270   5.279   6.173  2.4316  0.9979 -0.1135
17625TIP3    H274367   1.172   5.360   6.091 -0.2534 -1.1481  0.8311
17626TIP3   OH274368   0.509   3.756   3.871  0.1954  0.2948  0.1222
17626TIP3    H174369   0.473   3.845   3.871 -0.4612  0.0463 -0.8067
17626TIP3    H274370   0.600   3.767   3.897  0.0200  1.1943  0.3939
17627TIP3   OH274371   5.520   2.733  14.620 -0.3358 -0.1150 -0.1576
17627TIP3    H174372   5.587   2.691  14.565 -0.9562 -0.3619 -0.7394
17627TIP3    H274373   5.496   2.666  14.684 -0.8373 -0.4279 -0.6627
17628TIP3   OH274374   0.438   4.661  13.760  0.1230 -0.7666 -0.6881
17628TIP3    H174375   0.412   4.637  13.849  0.1689 -0.8227 -0.6904
17628TIP3    H274376   0.467   4.752  13.767 -0.7983 -0.4441 -0.8234
17629TIP3   OH274377   1.779   6.016  16.359 -0.8027 -0.1366  0.0613
17629TIP3    H174378   1.705   5.955  16.358 -1.8081  1.0249 -0.4356
17629TIP3    H274379   1.810   6.018  16.268 -0.4369 -0.3058  0.1815
17630TIP3   OH274380   6.236   3.512  14.097 -0.1494  0.1140 -0.5521
17630TIP3    H174381   6.163   3.450  14.088 -0.0475  0.3159 -3.4631
17630TIP3    H274382   6.310   3.458  14.124 -0.5436 -0.7165 -1.0941
17631TIP3   OH274383   5.652   2.862  13.647  0.5696 -0.5055  0.1734
17631TIP3    H174384   5.699   2.944  13.661 -0.4059  0.2717 -0.9716
17631TIP3    H274385   5.699   2.798  13.702  2.2212  0.4859 -0.0119
17632TIP3   OH274386   2.987   0.238   4.658  0.5903  0.0834  0.4345
17632TIP3    H174387   2.923   0.175   4.690  1.8515 -1.2472  0.4320
17632TIP3    H274388   3.023   0.278   4.736 -0.2492  0.8649  0.4348
17633TIP3   OH274389   0.367   3.138  12.678 -0.7382 -0.0259 -0.5193
17633TIP3    H174390   0.400   3.206  12.736 -0.3174  0.4538 -1.3128
17633TIP3    H274391   0.289   3.176  12.637 -1.6674 -0.7523  0.5129
17634TIP3   OH274392   5.796   2.629  17.032  0.8714 -0.7262 -0.0133
17634TIP3    H174393   5.709   2.620  17.070  0.3353  1.2041 -0.6673
17634TIP3    H274394   5.825   2.717  17.059  0.4678  0.7930 -3.8560
17635TIP3   OH274395   4.000   3.539   0.259 -0.4910  0.4069 -0.4098
17635TIP3    H174396   4.061   3.607   0.231 -0.3850  0.1400 -0.8525
17635TIP3    H274397   4.046   3.493   0.329  0.0785 -0.1661 -1.1341
17636TIP3   OH274398   3.816   1.216  14.804  0.0510 -0.3163  0.2756
17636TIP3    H174399   3.800   1.143  14.863 -1.5692 -0.6823 -0.5425
17636TIP3    H274400   3.835   1.175  14.720 -2.3056  0.1267 -0.5443
17637TIP3   OH274401   3.079   5.173   0.003 -0.1015 -0.1740 -0.6240
17637TIP3    H174402   3.035   5.131  -0.071  1.2965 -0.3519 -1.3775
17637TIP3    H274403   3.031   5.142   0.080 -0.8166 -0.9501 -1.3661
17638TIP3   OH274404   4.314   6.419  16.444  0.6553  0.7886 -0.0349
17638TIP3    H174405   4.353   6.332  16.451 -1.1680 -0.1179 -0.5200
17638TIP3    H274406   4.318   6.455  16.533 -1.1279 -0.9974  0.8519
17639TIP3   OH274407   6.121   2.780   0.798  0.4777 -0.9203  0.3958
17639TIP3    H174408   6.056   2.790   0.728 -0.2766 -1.4881  0.9949
17639TIP3    H274409   6.130   2.685   0.809  3.1658 -0.9618 -1.2569
17640TIP3   OH274410   1.896   4.135  11.993 -0.5661 -0.6467  0.3429
17640TIP3    H174411   1.938   4.220  12.003 -0.7024 -0.4382 -0.7047
17640TIP3    H274412   1.868   4.111  12.081 -0.3163  0.2841  0.6863
17641TIP3   OH274413   6.723   5.563  11.664 -0.3860 -0.0289 -0.0355
17641TIP3    H174414   6.783   5.600  11.727 -0.8942  0.0519  0.4076
17641TIP3    H274415   6.651   5.626  11.659 -0.9288 -0.6172  0.2182
17642TIP3   OH274416   3.861   0.849  13.103  0.0811 -0.4087  0.0833
17642TIP3    H174417   3.825   0.786  13.041  0.9731 -0.7482 -0.1041
17642TIP3    H274418   3.952   0.822  13.116  0.6884  1.2056 -0.5003
17643TIP3   OH274419   1.535   2.509  14.602 -0.5112  0.1594 -0.0119
17643TIP3    H174420   1.455   2.484  14.555 -0.6374  0.7529 -0.1204
17643TIP3    H274421   1.580   2.569  14.542 -1.3729  2.1029  1.1658
17644TIP3   OH274422   4.952   4.272   6.149  0.3778  0.7453 -0.6346
17644TIP3    H174423   4.995   4.351   6.184  0.1011 -0.0602  1.6801
17644TIP3    H274424   4.860   4.283   6.174  0.6388 -1.1112  1.4398
17645TIP3   OH274425   5.897   2.357   2.499 -0.3168 -0.1627 -0.1371
17645TIP3    H174426   5.947   2.390   2.424  0.1845  1.9899  1.0673
17645TIP3    H274427   5.961   2.349   2.569 -0.9684 -1.1734  0.3679
17646TIP3   OH274428   1.516   4.874   4.383  0.7795  0.5059  0.2695
17646TIP3    H174429   1.486   4.916   4.303  2.3982 -1.0220 -1.2034
17646TIP3    H274430   1.500   4.939   4.452 -0.4698  1.9211 -1.2968
17647TIP3   OH274431   4.649   4.793   5.277  0.0835  0.7864 -0.3610
17647TIP3    H174432   4.718   4.851   5.309 -1.0213  1.0981  1.6481
17647TIP3    H274433   4.572   4.850   5.268 -0.4737  0.0356 -0.4492
17648TIP3   OH274434   2.130   6.284   3.401 -0.3245  0.6254  0.8805
17648TIP3    H174435   2.136   6.221   3.329 -1.4501  4.0010 -2.4722
17648TIP3    H274436   2.068   6.244   3.462 -1.0206 -1.4956 -1.0784
17649TIP3   OH274437   6.721   3.857   5.389  0.0514  0.6910  0.1300
17649TIP3    H174438   6.700   3.940   5.346 -0.4575  0.6950  0.3757
17649TIP3    H274439   6.762   3.804   5.321 -2.6254 -0.0897 -1.0108
17650TIP3   OH274440   0.401   5.774  12.292  0.2844 -1.0525  0.4516
17650TIP3    H174441   0.318   5.732  12.273 -0.2524  0.4248 -0.6720
17650TIP3    H274442   0.381   5.868  12.295  1.5466 -0.7702  2.1622
17651TIP3   OH274443   1.207   3.630   3.905  0.1498  0.4820  0.0785
17651TIP3    H174444   1.214   3.539   3.876 -2.3984  0.1286  0.3678
17651TIP3    H274445   1.254   3.632   3.989  1.9540 -0.0304 -0.8611
17652TIP3   OH274446   1.220   1.117   3.473 -0.1673  0.0242 -0.2873
17652TIP3    H174447   1.296   1.086   3.424  2.2937 -2.2097  4.2405
17652TIP3    H274448   1.252   1.194   3.521 -1.1070 -0.2655  0.8461
17653TIP3   OH274449   0.314   3.214   0.880 -0.3104  0.4130 -0.4247
17653TIP3    H174450   0.287   3.153   0.812  0.1134  1.8910 -1.9862
17653TIP3    H274451   0.409   3.210   0.879 -0.3053  0.1362  0.4044
17654TIP3   OH274452   3.940   6.847  13.918 -0.0815 -0.6764 -0.4084
17654TIP3    H174453   3.944   6.787  13.992 -1.7442 -0.2123  0.0961
17654TIP3    H274454   3.939   6.934  13.958 -0.2583 -0.3982 -1.0109
17655TIP3   OH274455   2.324   2.392   5.020  0.3260 -0.0672 -0.3514
17655TIP3    H174456   2.392   2.401   5.087 -0.1275  1.7362 -0.0724
17655TIP3    H274457   2.351   2.452   4.951 -0.1295 -0.5834 -0.9851
17656TIP3   OH274458   4.039   6.244  11.053 -0.3315  0.3701  0.2712
17656TIP3    H174459   4.020   6.151  11.069 -0.4110  0.5844  1.5782
17656TIP3    H274460   3.987   6.290  11.119  0.7872  1.2577  0.5609
17657TIP3   OH274461   0.935   3.282  14.104  0.2696 -0.3367 -0.1788
17657TIP3    H174462   0.961   3.193  14.080  0.7794  0.2000 -1.7134
17657TIP3    H274463   0.882   3.312  14.031 -2.0323 -0.2257  1.4561
17658TIP3   OH274464   2.347   6.116  11.408  0.2773 -0.2796 -0.0921
17658TIP3    H174465   2.407   6.062  11.460  1.2388  1.1132  0.2941
17658TIP3    H274466   2.392   6.200  11.399 -2.4521  1.5651  1.9434
17659TIP3   OH274467   6.526   4.478   0.932 -0.4308 -0.3274 -0.2288
17659TIP3    H174468   6.483   4.393   0.928 -0.3319 -0.3641 -0.6194
17659TIP3    H274469   6.617   4.460   0.907 -0.3327 -0.1568 -0.0019
17660TIP3   OH274470   0.516   1.814  10.731  0.4617  0.0155 -0.1638
17660TIP3    H174471   0.544   1.905  10.721 -1.8978  0.8174 -0.1771
17660TIP3    H274472   0.574   1.777  10.797  1.2955  1.6205  0.0397
17661TIP3   OH274473   1.648   5.400   0.359  0.0982 -0.0943 -0.0392
17661TIP3    H174474   1.626   5.439   0.444  0.4838 -0.6347  0.3243
17661TIP3    H274475   1.608   5.457   0.294  1.1981  1.2818  0.4378
17662TIP3   OH274476   6.572   0.424  10.988 -0.0805  0.2918 -0.0239
17662TIP3    H174477   6.514   0.499  10.998 -2.6722 -1.7258  1.1771
17662TIP3    H274478   6.578   0.387  11.076  1.3649 -0.7811 -0.5392
17663TIP3   OH274479   5.778   4.736   5.469 -0.9113 -0.2633  0.2854
17663TIP3    H174480   5.805   4.818   5.426 -0.1223  0.1503  1.5159
17663TIP3    H274481   5.845   4.721   5.536 -2.3028 -0.6697  1.6348
17664TIP3   OH274482   1.918   2.928  16.936 -0.0120  0.0701 -0.3745
17664TIP3    H174483   1.969   2.873  16.876 -1.5607  0.5480 -2.2324
17664TIP3    H274484   1.946   3.017  16.916 -0.5688  0.2360 -0.4343
17665TIP3   OH274485   3.868   0.798  17.044 -0.1580 -0.6048  0.6044
17665TIP3    H174486   3.909   0.866  16.991  1.7014 -1.5882  0.6788
17665TIP3    H274487   3.844   0.842  17.126  0.6756  0.0576  0.5089
17666TIP3   OH274488   3.682   5.153  13.306 -0.6439  0.2681 -1.1004
17666TIP3    H174489   3.680   5.061  13.279  0.1599  0.3074 -1.3165
17666TIP3    H274490   3.744   5.194  13.246  2.5311  0.0379  1.7444
17667TIP3   OH274491   2.536   0.957   6.295 -0.4771  0.0143  0.2823
17667TIP3    H174492   2.575   1.029   6.246 -1.7637  0.3689 -0.2358
17667TIP3    H274493   2.449   0.946   6.258 -0.0246 -2.3981 -0.2770
17668TIP3   OH274494   6.193   3.613  15.289 -0.0401  0.1983 -0.4768
17668TIP3    H174495   6.134   3.654  15.353 -0.9769 -0.3670 -0.9666
17668TIP3    H274496   6.268   3.586  15.342 -0.3368  0.6651  0.2122
17669TIP3   OH274497   1.339   2.093  11.368 -0.4057 -0.0339  0.0360
17669TIP3    H174498   1.258   2.115  11.321 -0.1597 -0.3249 -0.5335
17669TIP3    H274499   1.409   2.119  11.308  0.0017  2.3063  1.4001
17670TIP3   OH274500   1.257   0.643   1.608  0.0272 -0.4599 -0.3222
17670TIP3    H174501   1.188   0.597   1.560 -0.0115  1.1803 -1.9428
17670TIP3    H274502   1.228   0.641   1.699 -1.7935 -0.4547 -0.8614
17671TIP3   OH274503   6.453   0.959  16.201 -0.3524 -0.1537  0.8355
17671TIP3    H174504   6.455   0.876  16.153  0.4579  1.2435 -1.7111
17671TIP3    H274505   6.360   0.974  16.218 -0.8778  0.0354 -1.7902
17672TIP3   OH274506   4.733   3.140  11.721 -0.0359 -0.2273  0.3857
17672TIP3    H174507   4.738   3.174  11.631  0.5217 -0.0453  0.4853
17672TIP3    H274508   4.649   3.093  11.723 -1.3729  2.0103  0.5456
17673TIP3   OH274509   4.384   1.027   3.643 -1.0276  0.1043 -0.4118
17673TIP3    H174510   4.410   0.945   3.603 -0.9708 -0.0358 -0.0923
17673TIP3    H274511   4.302   1.051   3.599 -2.2231 -1.2240  0.9493
17674TIP3   OH274512   2.451   3.000  12.858  0.4385  0.4866  0.0514
17674TIP3    H174513   2.519   3.040  12.804  0.3851  0.2511 -0.1968
17674TIP3    H274514   2.478   2.909  12.866  0.3270  0.4692  0.2335
17675TIP3   OH274515   6.430   3.505   2.762  0.4001  0.8377 -0.1621
17675TIP3    H174516   6.515   3.505   2.806  0.1122  1.2688  0.4028
17675TIP3    H274517   6.449   3.538   2.674  1.2174 -1.4309 -0.8942
17676TIP3   OH274518   0.323   1.940   5.214  0.1774  0.0867 -0.1756
17676TIP3    H174519   0.340   1.966   5.304 -0.1214  0.7630 -0.3110
17676TIP3    H274520   0.230   1.957   5.201  0.1515 -0.2866 -0.5234
17677TIP3   OH274521   5.701   0.010   1.030  0.4939 -0.1884 -0.2115
17677TIP3    H174522   5.691   0.100   0.998 -1.0961 -0.5309 -0.7615
17677TIP3    H274523   5.776   0.014   1.090  0.3693  1.5260 -0.1236
17678TIP3   OH274524   2.788   4.002  10.953 -0.4444 -0.2349  0.5797
17678TIP3    H174525   2.771   4.096  10.941 -1.0052 -0.0722  2.3635
17678TIP3    H274526   2.817   3.972  10.867 -1.0589  1.4013 -0.2454
17679TIP3   OH274527   0.710   2.175   3.239 -0.3759  0.3700  0.6215
17679TIP3    H174528   0.682   2.209   3.154  0.9414 -0.5466 -0.2067
17679TIP3    H274529   0.791   2.221   3.259  0.8003 -1.3704  0.0407
17680TIP3   OH274530   6.189   4.986   0.725  0.0859  0.2726 -0.6214
17680TIP3    H174531   6.281   4.973   0.701 -0.2260 -0.1948 -1.6118
17680TIP3    H274532   6.174   4.924   0.797  0.3820 -0.0925 -0.8739
17681TIP3   OH274533   2.870   2.017  14.442 -0.1358 -0.0089  0.0141
17681TIP3    H174534   2.852   2.105  14.409 -0.6005 -0.7098 -1.7150
17681TIP3    H274535   2.792   1.994  14.492  1.5363  2.0024  3.9392
17682TIP3   OH274536   0.897   2.211  11.754 -0.0335 -0.3766  0.7361
17682TIP3    H174537   0.964   2.180  11.814  0.0305 -0.5489  0.5787
17682TIP3    H274538   0.858   2.286  11.798  0.6298  0.0604  0.5895
17683TIP3   OH274539   0.802   6.512   4.454 -0.6207 -0.0582  0.2385
17683TIP3    H174540   0.737   6.546   4.393  1.5747 -0.8945 -2.8316
17683TIP3    H274541   0.868   6.581   4.459  0.6905 -1.1738 -0.8449
17684TIP3   OH274542   0.992   6.633   1.327 -0.1955  0.6219 -0.0080
17684TIP3    H174543   0.908   6.672   1.348  0.1442  3.2854 -2.8000
17684TIP3    H274544   1.003   6.648   1.233  3.1685 -0.0358  0.1227
17685TIP3   OH274545   1.036   0.389   5.699  0.6304 -0.2170 -0.2366
17685TIP3    H174546   1.039   0.446   5.622  1.7938  0.2399  0.1199
17685TIP3    H274547   1.113   0.333   5.689  0.1927 -0.8685  0.0602
17686TIP3   OH274548   6.534   0.904  15.691  0.3471 -0.5762  0.3199
17686TIP3    H174549   6.545   0.997  15.712 -0.0562 -0.1394 -1.2497
17686TIP3    H274550   6.441   0.895  15.672  0.4587 -1.2042  0.0614
17687TIP3   OH274551   0.647   5.966   4.722  0.1034 -0.0052 -0.4272
17687TIP3    H174552   0.719   5.918   4.763 -0.8820 -1.5200 -0.3953
17687TIP3    H274553   0.568   5.923   4.754 -0.9487  2.6622  0.8912
17688TIP3   OH274554   5.302   2.408  15.822  0.0079 -0.2984  0.3426
17688TIP3    H174555   5.229   2.351  15.799  0.4130 -0.9239  0.5807
17688TIP3    H274556   5.280   2.492  15.781 -0.1606 -0.8637 -0.7787
17689TIP3   OH274557   5.348   0.177  16.943  0.3683  0.0947 -0.6216
17689TIP3    H174558   5.270   0.192  16.890  0.9851  2.3944 -0.9850
17689TIP3    H274559   5.334   0.230  17.021  0.4295 -1.5745  0.5803
17690TIP3   OH274560   6.699   1.673  15.506 -0.0722 -0.0298  0.2521
17690TIP3    H174561   6.734   1.711  15.586  0.6589  1.9478 -0.9320
17690TIP3    H274562   6.646   1.599  15.535 -2.0498  2.1902  2.7788
17691TIP3   OH274563   3.291   0.272   2.320 -0.0848 -0.3069  0.2064
17691TIP3    H174564   3.294   0.367   2.328 -0.0749 -0.0898 -1.7866
17691TIP3    H274565   3.234   0.244   2.391 -1.2916  1.3464 -0.0395
17692TIP3   OH274566   0.649   3.930   1.907 -0.5528 -0.2678  0.2208
17692TIP3    H174567   0.619   4.009   1.952 -0.2962 -0.5389  0.8735
17692TIP3    H274568   0.719   3.961   1.848 -1.1287  0.1397 -0.2575
17693TIP3   OH274569   2.183   4.878   5.643 -0.0840  0.0822 -0.1556
17693TIP3    H174570   2.216   4.824   5.715 -0.4937 -0.8567 -0.6452
17693TIP3    H274571   2.194   4.823   5.565 -0.4403  0.7457 -0.6837
17694TIP3   OH274572   3.332   5.440  16.150 -0.7497 -0.4257  0.4529
17694TIP3    H174573   3.388   5.461  16.075 -0.2279  1.8707  1.4022
17694TIP3    H274574   3.261   5.503  16.146 -1.2242 -0.8822  1.3707
17695TIP3   OH274575   6.312   4.607  12.805 -0.5996 -0.1773 -0.1738
17695TIP3    H174576   6.382   4.562  12.757  0.8339  0.3236  1.3115
17695TIP3    H274577   6.303   4.692  12.761 -1.6451 -0.9671 -1.5352
17696TIP3   OH274578   3.384   2.604  15.746  0.1008  0.7377 -0.3851
17696TIP3    H174579   3.332   2.664  15.801  2.0388  0.8321  1.4588
17696TIP3    H274580   3.343   2.518  15.760 -0.2717  0.9889  0.1319
17697TIP3   OH274581   3.251   6.492   3.664 -0.3339 -0.1918  0.0789
17697TIP3    H174582   3.336   6.449   3.655 -0.1733  0.1295  0.0582
17697TIP3    H274583   3.214   6.493   3.576 -0.8134 -1.2569  0.2532
17698TIP3   OH274584   2.325   2.776  11.896  0.5130  0.0323 -0.6040
17698TIP3    H174585   2.235   2.808  11.905  0.6486  0.7869 -1.6753
17698TIP3    H274586   2.349   2.796  11.806  2.0050  0.5133 -0.1499
17699TIP3   OH274587   5.667   0.666   5.338  0.1794  0.2992 -0.4161
17699TIP3    H174588   5.713   0.618   5.407  1.0339  0.4792 -0.8459
17699TIP3    H274589   5.705   0.754   5.341  0.2319  0.3025 -1.1216
17700TIP3   OH274590   3.129   3.804   5.162  0.1353  0.1225 -0.2210
17700TIP3    H174591   3.202   3.822   5.222  0.5865 -0.9789 -0.4236
17700TIP3    H274592   3.143   3.714   5.134 -2.2850 -0.7624  1.0920
17701TIP3   OH274593   4.068   6.267   1.260  0.5064  0.1218  0.7541
17701TIP3    H174594   3.977   6.249   1.239  0.5426 -1.2140  1.5883
17701TIP3    H274595   4.116   6.190   1.230  1.2833  0.5723  0.7996
17702TIP3   OH274596   0.172   1.409   5.910 -0.4412  0.4661  0.5492
17702TIP3    H174597   0.182   1.402   6.005  1.8024  0.2662  0.3521
17702TIP3    H274598   0.253   1.372   5.874 -0.6140  1.8041 -1.4051
17703TIP3   OH274599   1.900   6.406  13.853  0.1209  0.1797  0.0446
17703TIP3    H174600   1.984   6.418  13.898  0.2090  0.9640 -0.3203
17703TIP3    H274601   1.862   6.494  13.848 -0.7738 -0.1752  0.2889
17704TIP3   OH274602   3.255   3.632   6.067  0.2570 -0.5129  0.1964
17704TIP3    H174603   3.256   3.727   6.078  1.1384 -0.1781 -2.1064
17704TIP3    H274604   3.169   3.614   6.030 -0.9274 -1.0220  2.9788
17705TIP3   OH274605   6.771   5.097   2.192 -0.3497  0.2483 -0.2620
17705TIP3    H174606   6.845   5.045   2.161 -0.4241 -0.4649  0.7134
17705TIP3    H274607   6.712   5.034   2.233 -0.3074  1.1129  1.1957
17706TIP3   OH274608   0.673   2.899  15.845 -0.4881  0.1716 -0.0588
17706TIP3    H174609   0.678   2.988  15.811 -2.4452  0.4261  0.1791
17706TIP3    H274610   0.617   2.853  15.783  1.5284 -1.2853 -0.8707
17707TIP3   OH274611   5.757   3.699   4.050  1.0185 -0.0758  0.1003
17707TIP3    H174612   5.665   3.724   4.063  0.3023 -1.1852 -2.2508
17707TIP3    H274613   5.769   3.623   4.106  0.3345 -0.2637  0.0018
17708TIP3   OH274614   5.145   2.441  12.931 -0.1099 -0.4173  0.0482
17708TIP3    H174615   5.123   2.355  12.896 -0.8405 -0.2492  0.0790
17708TIP3    H274616   5.116   2.438  13.022  2.1596 -1.0015  0.8079
17709TIP3   OH274617   3.707   5.635  12.381  0.2881 -0.0827  0.0709
17709TIP3    H174618   3.750   5.714  12.413 -1.8301  0.6068  1.3969
17709TIP3    H274619   3.653   5.665  12.308 -0.2110 -0.3681  0.3163
17710TIP3   OH274620   5.130   5.139  16.276 -0.5295 -0.3575  0.1800
17710TIP3    H174621   5.111   5.175  16.189 -3.7086 -2.1729 -0.0286
17710TIP3    H274622   5.207   5.188  16.306  0.1369  0.9714 -3.2404
17711TIP3   OH274623   2.497   3.930  14.085 -0.8178 -0.9324 -0.1132
17711TIP3    H174624   2.507   3.841  14.052  0.2659 -1.4609  1.5221
17711TIP3    H274625   2.551   3.933  14.164 -1.8626  0.7889  0.6017
17712TIP3   OH274626   1.883   6.577   1.808 -0.1068 -0.0849 -0.5761
17712TIP3    H174627   1.815   6.523   1.848  0.6109  1.1709  2.5735
17712TIP3    H274628   1.957   6.518   1.795 -0.5204 -0.6227 -0.5111
17713TIP3   OH274629   5.587   3.772  16.682 -0.2653 -0.1458 -0.3305
17713TIP3    H174630   5.550   3.686  16.699  1.7962 -1.5329 -2.2535
17713TIP3    H274631   5.527   3.811  16.618 -1.1014 -0.2090  0.3983
17714TIP3   OH274632   3.122   5.518  10.616  0.2641  0.6231  0.5947
17714TIP3    H174633   3.175   5.462  10.560 -0.3633  0.2918  0.3260
17714TIP3    H274634   3.088   5.586  10.558 -0.8329 -0.0345  0.4455
17715TIP3   OH274635   5.757   6.670  12.807 -0.1078 -0.4998 -0.0591
17715TIP3    H174636   5.832   6.726  12.827 -0.2246 -0.0740 -0.7731
17715TIP3    H274637   5.780   6.629  12.724 -1.0874  0.4090 -0.8050
17716TIP3   OH274638   3.005   5.803  16.607 -0.6639 -0.1840  0.0365
17716TIP3    H174639   3.065   5.828  16.676  2.3381  0.7516 -2.6485
17716TIP3    H274640   2.918   5.815  16.644  0.7572  2.1473  2.9502
17717TIP3   OH274641   1.821   5.330  13.868 -0.7383  0.0754 -0.2236
17717TIP3    H174642   1.792   5.334  13.777  1.1248  1.0669 -0.8210
17717TIP3    H274643   1.915   5.311  13.863 -0.0428  2.6206  1.3532
17718TIP3   OH274644   3.554   6.840  13.957  0.1366  0.2809  0.1794
17718TIP3    H174645   3.463   6.869  13.957  0.1011  0.1736  0.2913
17718TIP3    H274646   3.604   6.919  13.976 -0.0435  0.0515  1.8134
17719TIP3   OH274647   2.686   0.989   3.890 -0.1369  0.5799  0.3058
17719TIP3    H174648   2.642   1.066   3.925  1.0759  0.9959  0.9906
17719TIP3    H274649   2.632   0.915   3.919 -0.0147  1.0231  1.7583
17720TIP3   OH274650   6.162   0.174   6.913  0.2392 -0.0291  0.3367
17720TIP3    H174651   6.090   0.155   6.852 -0.0600 -0.9557  0.9547
17720TIP3    H274652   6.154   0.268   6.930 -1.4849 -0.2839  1.1867
17721TIP3   OH274653   3.031   1.846  15.195 -0.3502  0.3777 -0.5612
17721TIP3    H174654   3.001   1.782  15.130  1.0259  0.4988 -1.3573
17721TIP3    H274655   3.017   1.802  15.279 -0.4868 -0.5149 -1.0283
17722TIP3   OH274656   1.572   1.374  15.493 -0.2739  0.3786 -0.3182
17722TIP3    H174657   1.616   1.423  15.563 -1.1129  2.6132 -1.2745
17722TIP3    H274658   1.633   1.376  15.420 -0.5194  0.4496 -0.5239
17723TIP3   OH274659   0.869   5.192  13.943 -0.1130 -0.2965 -0.5969
17723TIP3    H174660   0.941   5.239  13.984  1.5148 -0.5466 -2.9858
17723TIP3    H274661   0.808   5.261  13.915 -1.6383 -0.1411  2.6082
17724TIP3   OH274662   4.689   3.337  13.567  0.2785  0.6416  0.2295
17724TIP3    H174663   4.712   3.330  13.474 -1.7781 -0.3911 -0.2544
17724TIP3    H274664   4.594   3.330  13.569  0.1454  2.1339  2.3204
17725TIP3   OH274665   0.445   1.329   5.840  0.0761 -1.0208 -0.2854
17725TIP3    H174666   0.531   1.364   5.862 -1.5185  1.8959  2.0938
17725TIP3    H274667   0.424   1.368   5.755  0.0397  0.6796  0.4460
17726TIP3   OH274668   2.409   2.739  13.855  0.1889  0.7497  0.4799
17726TIP3    H174669   2.450   2.822  13.830  1.1158  1.0589  2.7845
17726TIP3    H274670   2.482   2.679  13.866 -0.4567 -0.3124 -0.8362
17727TIP3   OH274671   6.051   3.471  15.665 -0.3302 -0.1251  0.3482
17727TIP3    H174672   5.991   3.514  15.604  1.6186  1.0102 -0.8721
17727TIP3    H274673   6.083   3.542  15.721 -1.9009 -1.1020  2.6559
17728TIP3   OH274674   4.546   0.010  13.882  0.5158  0.5496 -0.1339
17728TIP3    H174675   4.631   0.001  13.925  1.5845  0.3969 -2.1413
17728TIP3    H274676   4.565   0.055  13.800 -1.2683  0.1214 -0.8407
17729TIP3   OH274677   6.321   2.256  11.766  0.0110 -0.2557 -0.1097
17729TIP3    H174678   6.254   2.267  11.833 -0.5873 -1.5327 -0.4662
17729TIP3    H274679   6.384   2.195  11.803  0.7147  0.5208  0.0134
17730TIP3   OH274680   0.290   4.885  15.375 -0.3832 -0.4783 -0.1269
17730TIP3    H174681   0.265   4.930  15.294 -0.8151  0.3583  0.4574
17730TIP3    H274682   0.386   4.883  15.372 -0.3374  0.7870 -0.0208
17731TIP3   OH274683   4.136   2.418   2.736 -0.0189  0.0840 -0.5247
17731TIP3    H174684   4.171   2.432   2.647 -0.9860 -0.6712 -1.0421
17731TIP3    H274685   4.208   2.377   2.783  1.4549  2.8203 -0.1464
17732TIP3   OH274686   5.340   1.067   1.384  0.6579 -0.1184  0.4278
17732TIP3    H174687   5.257   1.115   1.386  0.6164 -0.2047  1.8972
17732TIP3    H274688   5.396   1.118   1.325  0.0365  0.7425  0.5677
17733TIP3   OH274689   1.613   0.908   4.531 -0.2679  0.0967 -0.2642
17733TIP3    H174690   1.578   0.852   4.462 -0.3349  0.8359 -0.8443
17733TIP3    H274691   1.548   0.903   4.601 -0.5489 -0.1066 -0.5361
17734TIP3   OH274692   6.079   1.306   2.205 -0.1437 -0.1552  0.2024
17734TIP3    H174693   6.033   1.335   2.284 -0.4783 -1.7346  0.6161
17734TIP3    H274694   6.154   1.256   2.238  0.1821 -0.1370 -0.4942
17735TIP3   OH274695   2.855   0.885   4.260 -0.2892  0.2193  0.4110
17735TIP3    H174696   2.781   0.945   4.256  0.3392  0.9420 -1.0735
17735TIP3    H274697   2.928   0.939   4.289  0.1551  0.0610 -0.3750
17736TIP3   OH274698   0.246   4.789  13.438 -0.4581 -0.2849 -0.3218
17736TIP3    H174699   0.187   4.812  13.510 -0.2655  0.3900 -0.3668
17736TIP3    H274700   0.293   4.713  13.470 -2.2995 -1.7036 -0.8220
17737TIP3   OH274701   5.434   2.439  13.648  0.7528  0.3215 -0.1454
17737TIP3    H174702   5.507   2.488  13.609  0.9634  0.8832  0.9045
17737TIP3    H274703   5.412   2.489  13.727 -1.2187  0.5313 -0.7791
17738TIP3   OH274704   5.658   2.261   3.437  0.0429  0.1301  0.3405
17738TIP3    H174705   5.598   2.222   3.500  1.0009  1.7798  2.3949
17738TIP3    H274706   5.703   2.186   3.397 -0.9203 -0.9762  1.2502
17739TIP3   OH274707   1.861   6.575   5.394 -0.2803  0.0505  0.3061
17739TIP3    H174708   1.797   6.506   5.378 -0.1358 -0.1843  0.7076
17739TIP3    H274709   1.868   6.579   5.490 -0.9380  1.2174  0.3230
17740TIP3   OH274710   6.621   3.622  15.544 -0.5345  0.4560 -0.6852
17740TIP3    H174711   6.709   3.635  15.507  0.6677  0.6025  2.0198
17740TIP3    H274712   6.577   3.565  15.481  0.8009  1.8636 -3.0695
17741TIP3   OH274713   4.564   1.444   5.144  0.4534  0.1146  0.2252
17741TIP3    H174714   4.482   1.494   5.143 -1.0062 -2.0648 -1.9581
17741TIP3    H274715   4.625   1.497   5.093 -0.2768  0.7687  0.0050
17742TIP3   OH274716   6.045   0.638  15.789  0.6266 -0.0261  0.8061
17742TIP3    H174717   5.993   0.614  15.712 -0.6491  1.4878  1.1548
17742TIP3    H274718   6.000   0.594  15.862 -0.7764  1.9720  1.2284
17743TIP3   OH274719   3.976   5.004   5.461 -0.0934 -0.4957  0.7234
17743TIP3    H174720   3.887   5.003   5.425  0.1525  0.5876  0.0424
17743TIP3    H274721   4.025   4.942   5.406  0.2220  0.9724 -0.7565
17744TIP3   OH274722   5.370   0.904  15.701  0.3975  0.8463  0.1790
17744TIP3    H174723   5.392   0.882  15.611 -1.2533 -1.8276  0.3034
17744TIP3    H274724   5.452   0.891  15.749  0.0938 -3.9381 -0.1051
17745TIP3   OH274725   6.482   1.471   2.066 -0.8202  0.2084  0.2975
17745TIP3    H174726   6.449   1.552   2.028 -0.8049  0.4369  0.7629
17745TIP3    H274727   6.483   1.487   2.161 -1.9272 -0.7385  0.5024
17746TIP3   OH274728   4.399   3.420   1.967  0.2905 -0.1090  0.0353
17746TIP3    H174729   4.409   3.398   1.874 -1.9558  0.3505 -0.3613
17746TIP3    H274730   4.343   3.351   2.002 -0.6890  0.9058  0.5267
17747TIP3   OH274731   2.548   0.965  13.774 -0.5073 -0.3804  0.0469
17747TIP3    H174732   2.518   0.942  13.686  1.3557 -0.8631 -0.4994
17747TIP3    H274733   2.600   0.890  13.802  2.9780  1.6164 -0.4578
17748TIP3   OH274734   0.454   5.145  16.054 -0.7926  0.0229  0.1272
17748TIP3    H174735   0.523   5.107  16.001 -0.6331  1.1649 -0.5063
17748TIP3    H274736   0.486   5.139  16.144 -1.5962 -3.0579  0.3112
17749TIP3   OH274737   4.028   1.928   5.237  0.2832  0.3688  0.2219
17749TIP3    H174738   4.106   1.872   5.236  0.6192  0.7645  1.6455
17749TIP3    H274739   3.961   1.873   5.278 -0.4234 -0.2259 -1.6494
17750TIP3   OH274740   0.471   4.251  13.184 -0.4217 -0.0310 -0.2324
17750TIP3    H174741   0.512   4.320  13.131  2.5027 -2.0832 -0.8923
17750TIP3    H274742   0.516   4.257  13.269  0.2933 -1.3895 -0.4826
17751TIP3   OH274743   6.830   1.660   6.264  0.1074 -0.8999  0.0281
17751TIP3    H174744   6.784   1.586   6.226 -0.1588  0.5198 -2.6172
17751TIP3    H274745   6.923   1.638   6.256  0.1460 -0.0678 -2.9763
17752TIP3   OH274746   2.175   0.571   3.304 -0.2791 -0.6340 -0.1774
17752TIP3    H174747   2.163   0.492   3.357  1.8557 -0.0618  1.2552
17752TIP3    H274748   2.231   0.542   3.232 -1.0858 -0.8322 -0.7392
17753TIP3   OH274749   5.888   6.286  12.476  0.2174  0.3446  0.0308
17753TIP3    H174750   5.817   6.235  12.514  0.0550  0.7504  0.2765
17753TIP3    H274751   5.953   6.293  12.546  0.0954  0.7508  0.1051
17754TIP3   OH274752   2.581   4.876  13.360 -0.0426 -0.2768  0.2546
17754TIP3    H174753   2.524   4.874  13.283  0.1794 -0.6217  0.0950
17754TIP3    H274754   2.523   4.894  13.433 -0.2294  0.2677 -0.0209
17755TIP3   OH274755   4.460   0.371   5.098 -0.0452 -0.0192  0.0182
17755TIP3    H174756   4.421   0.289   5.068 -0.7694  0.2635  0.1733
17755TIP3    H274757   4.549   0.347   5.124 -0.4067 -0.8603  0.5270
17756TIP3   OH274758   4.212   1.171  15.296 -0.4337 -0.2651  0.7947
17756TIP3    H174759   4.142   1.205  15.351  0.3411  0.4402  1.3893
17756TIP3    H274760   4.280   1.239  15.300 -0.3990 -0.1180 -1.1456
17757TIP3   OH274761   4.485   3.302  15.388  0.0703  0.8156 -0.1701
17757TIP3    H174762   4.479   3.354  15.468  0.5182  0.5403  0.0490
17757TIP3    H274763   4.525   3.360  15.323 -0.5938  1.1425 -0.2879
17758TIP3   OH274764   6.260   5.994  12.127  0.2981 -0.1033 -0.1733
17758TIP3    H174765   6.254   6.084  12.097 -0.9322 -0.2110 -0.2737
17758TIP3    H274766   6.338   5.959  12.083  0.2482  0.6333 -0.8545
17759TIP3   OH274767   2.893   4.737  12.383 -0.5361  0.2275  0.3768
17759TIP3    H174768   2.960   4.803  12.396 -1.0915  0.7806  0.4592
17759TIP3    H274769   2.823   4.782  12.336 -0.2438 -0.7161 -1.0329
17760TIP3   OH274770   2.010   4.105  13.679  0.1731  0.0956  0.3477
17760TIP3    H174771   2.015   4.193  13.717  0.9097 -0.1795  0.9031
17760TIP3    H274772   2.049   4.048  13.744  2.4658 -0.2583 -1.2133
17761TIP3   OH274773   6.512   5.773  10.743 -0.0881  0.0884  0.1578
17761TIP3    H174774   6.468   5.793  10.826  0.6512 -3.1240  1.4833
17761TIP3    H274775   6.587   5.833  10.741 -1.0493  1.3576  0.9629
17762TIP3   OH274776   1.365   4.075  16.766 -0.2123  0.6577 -0.0048
17762TIP3    H174777   1.418   3.995  16.760 -0.6283  0.3325  0.5941
17762TIP3    H274778   1.399   4.120  16.843 -1.2448  0.1034  0.8110
17763TIP3   OH274779   5.910   3.119  15.578  0.2410 -0.4041 -0.2676
17763TIP3    H174780   5.982   3.062  15.602 -1.6559 -2.8222  0.0595
17763TIP3    H274781   5.912   3.121  15.482  0.5933 -0.6430 -0.2664
17764TIP3   OH274782   1.609   2.132  12.834  0.2022 -0.2141  0.0858
17764TIP3    H174783   1.679   2.129  12.769  1.0621 -0.0222  0.9758
17764TIP3    H274784   1.542   2.189  12.795  0.4756 -0.5081 -0.8353
17765TIP3   OH274785   0.518   2.027   0.880  0.3974 -0.5295 -0.3295
17765TIP3    H174786   0.602   2.006   0.842 -0.0145  1.3940 -2.5077
17765TIP3    H274787   0.463   1.951   0.861  1.0480 -0.8954 -0.7853
17766TIP3   OH274788   1.463   0.959   5.315  0.3576  0.3384  0.3034
17766TIP3    H174789   1.543   0.989   5.272  0.9987 -0.0484  1.1957
17766TIP3    H274790   1.438   0.880   5.266  0.8657  0.1127  0.4028
17767TIP3   OH274791   6.757   1.803   5.161  0.1902  0.0434 -0.3331
17767TIP3    H174792   6.720   1.720   5.189 -0.1579  0.2814 -0.0800
17767TIP3    H274793   6.790   1.843   5.241  0.8931 -0.1116 -0.5388
17768TIP3   OH274794   5.187   1.704  10.302 -0.4758  0.0377 -0.0909
17768TIP3    H174795   5.234   1.668  10.378 -0.8566  0.2297  0.2447
17768TIP3    H274796   5.251   1.762  10.261  0.3086 -1.3646 -0.9263
17769TIP3   OH274797   4.993   1.540   0.861  0.1275 -0.6087 -0.2545
17769TIP3    H174798   5.003   1.472   0.794  2.5009 -1.6192  1.0051
17769TIP3    H274799   5.083   1.563   0.886 -0.4775  3.7159 -1.2057
17770TIP3   OH274800   6.786   3.323  12.255  0.4316  0.1682  0.2192
17770TIP3    H174801   6.711   3.379  12.276  0.7304  0.2120  1.1946
17770TIP3    H274802   6.859   3.384  12.244  0.4121  0.0954 -0.3947
17771TIP3   OH274803   5.387   5.954  11.299 -0.1817 -0.1657 -0.1418
17771TIP3    H174804   5.334   5.911  11.232 -1.4779  1.1451 -0.0027
17771TIP3    H274805   5.478   5.941  11.270 -0.5887 -1.8138 -0.7697
17772TIP3   OH274806   0.525   0.520   1.225 -0.3613 -0.4183 -0.5650
17772TIP3    H174807   0.471   0.521   1.304  0.4960  0.4697  0.0372
17772TIP3    H274808   0.464   0.537   1.154 -0.8194  1.1290  0.1540
17773TIP3   OH274809   1.069   5.652  13.320 -0.6536 -0.3601  0.2074
17773TIP3    H174810   1.036   5.700  13.244 -1.4049 -0.4520  0.4563
17773TIP3    H274811   1.078   5.719  13.388  1.8510  0.0755 -0.4677
17774TIP3   OH274812   0.414   6.216  10.916 -0.2115  0.2793 -0.2784
17774TIP3    H174813   0.475   6.271  10.867  0.5617 -0.4277 -0.1363
17774TIP3    H274814   0.458   6.131  10.922 -2.0156 -0.8268 -1.7867
17775TIP3   OH274815   4.346   6.606   1.662 -0.2297  0.0609  0.0407
17775TIP3    H174816   4.388   6.525   1.633  0.8623  0.0780  1.4684
17775TIP3    H274817   4.283   6.626   1.593  1.7425 -0.2345 -1.9873
17776TIP3   OH274818   1.649   2.847   5.901 -0.4939  0.7445  0.3016
17776TIP3    H174819   1.639   2.787   5.975  0.3205 -0.0311 -0.1918
17776TIP3    H274820   1.633   2.934   5.938 -0.3299  0.3451  1.3407
17777TIP3   OH274821   5.804   5.741   5.662 -0.2661  0.3801 -0.0918
17777TIP3    H174822   5.874   5.741   5.727 -0.7286 -0.0121  0.4189
17777TIP3    H274823   5.848   5.721   5.579  0.0912 -0.9053  0.3856
17778TIP3   OH274824   6.224   6.147   4.558 -0.4012  0.5498  0.9272
17778TIP3    H174825   6.302   6.160   4.505 -0.5754  2.7618  1.1311
17778TIP3    H274826   6.152   6.179   4.504 -1.1156 -0.7887  1.0299
17779TIP3   OH274827   5.168   6.532   2.384 -0.0085 -0.4915 -0.5678
17779TIP3    H174828   5.077   6.553   2.363  0.2370  0.7369 -0.4899
17779TIP3    H274829   5.210   6.617   2.398  0.8471 -1.0849  0.6760
17780TIP3   OH274830   4.803   1.340   3.744  0.0811  0.4623 -0.1618
17780TIP3    H174831   4.885   1.386   3.722 -0.0850  0.5699 -0.5588
17780TIP3    H274832   4.734   1.404   3.726 -0.2787 -0.4342 -2.2314
17781TIP3   OH274833   0.343   4.615  15.821 -0.1225 -0.1331 -0.5853
17781TIP3    H174834   0.337   4.572  15.906 -1.2150 -0.3811 -0.7782
17781TIP3    H274835   0.288   4.562  15.763 -0.0084  0.4753 -1.2641
17782TIP3   OH274836   1.345   0.293   6.083 -0.0151  0.0276 -0.5390
17782TIP3    H174837   1.378   0.313   6.171 -1.2391 -0.8089  0.1405
17782TIP3    H274838   1.343   0.378   6.039 -0.2096  0.6130  0.5525
17783TIP3   OH274839   4.620   4.511   3.208 -0.4668  0.3412 -0.1198
17783TIP3    H174840   4.579   4.597   3.222 -2.7122 -0.7609  0.3889
17783TIP3    H274841   4.565   4.450   3.256  0.7787 -1.4919 -0.9334
17784TIP3   OH274842   4.684   6.619   2.395 -0.0099  0.3584  0.2351
17784TIP3    H174843   4.636   6.682   2.449 -1.2373 -0.0460 -0.3764
17784TIP3    H274844   4.760   6.669   2.364 -0.2872  1.1583  0.7952
17785TIP3   OH274845   3.196   1.158  13.248 -0.6618 -0.6219  0.0201
17785TIP3    H174846   3.200   1.072  13.205  0.1637 -0.4406 -0.2793
17785TIP3    H274847   3.287   1.177  13.271 -0.8456  0.1613  0.1106
17786TIP3   OH274848   0.793   4.058  14.917  0.1123 -0.1127 -0.3846
17786TIP3    H174849   0.863   4.079  14.978  0.2677  0.5155 -0.7601
17786TIP3    H274850   0.713   4.087  14.961  0.3761  1.8836 -1.1193
17787TIP3   OH274851   1.009   4.805  10.819  0.6032  0.5732  0.4055
17787TIP3    H174852   0.957   4.844  10.749 -1.9777 -0.0452  1.8152
17787TIP3    H274853   1.060   4.878  10.854 -0.4985  1.6243 -0.0744
17788TIP3   OH274854   6.679   1.017   2.498 -0.0799 -0.5065 -0.0776
17788TIP3    H174855   6.689   0.997   2.405 -1.6600  0.2664 -0.4390
17788TIP3    H274856   6.732   1.096   2.512  0.4900 -0.8568 -0.2068
17789TIP3   OH274857   2.166   5.078   3.208 -0.1032 -0.2752  0.9017
17789TIP3    H174858   2.184   4.984   3.201 -0.9779 -0.5917  2.3882
17789TIP3    H274859   2.180   5.112   3.120  3.4906 -1.1644  0.9715
17790TIP3   OH274860   1.249   5.839  11.535  0.0459  0.1758 -0.8302
17790TIP3    H174861   1.259   5.750  11.499 -0.4983 -0.1549 -0.1833
17790TIP3    H274862   1.162   5.866  11.507 -0.1191  0.1737 -0.3312
17791TIP3   OH274863   1.190   0.586  16.779  0.1210 -0.4229 -0.5422
17791TIP3    H174864   1.204   0.633  16.861  0.5252  0.5954 -1.1752
17791TIP3    H274865   1.256   0.516  16.779  1.5690  0.8874 -0.9461
17792TIP3   OH274866   0.031   0.481   5.265  0.3544 -0.3369  0.4425
17792TIP3    H174867   0.004   0.493   5.174  0.1936 -1.1641  0.3712
17792TIP3    H274868  -0.044   0.441   5.307  0.6375 -0.4928  0.8044
17793TIP3   OH274869   1.626   4.599   5.683 -0.2710 -0.0936  0.7786
17793TIP3    H174870   1.631   4.507   5.660 -0.8679  0.1656 -0.4746
17793TIP3    H274871   1.701   4.614   5.742  0.0729 -1.2668  0.6508
17794TIP3   OH274872   1.217   1.147   0.097  0.2212  0.2427 -0.5463
17794TIP3    H174873   1.232   1.236   0.130  0.5469 -0.0995  0.2516
17794TIP3    H274874   1.132   1.122   0.132 -0.1736  0.4759 -1.3141
17795TIP3   OH274875   1.106   5.031   4.819 -0.0516  0.0179 -0.2466
17795TIP3    H174876   1.155   4.950   4.829  0.9646  0.7053  0.6071
17795TIP3    H274877   1.014   5.005   4.823  0.2421 -1.1360 -0.5213
17796TIP3   OH274878   4.317   4.905   4.101 -0.5190  0.1866 -0.5480
17796TIP3    H174879   4.250   4.866   4.157  0.0237  0.9694  0.6857
17796TIP3    H274880   4.364   4.831   4.064 -1.0960 -0.3494 -0.2194
17797TIP3   OH274881   2.277   3.676  13.733  0.5298  0.2336 -0.0745
17797TIP3    H174882   2.225   3.710  13.660  0.2956 -0.6561 -0.3303
17797TIP3    H274883   2.329   3.751  13.762 -1.3537  1.3416  0.6231
17798TIP3   OH274884   1.063   3.774  12.462 -0.7140  0.7058  0.0916
17798TIP3    H174885   1.091   3.852  12.508 -2.1433  1.8469 -0.8668
17798TIP3    H274886   0.978   3.798  12.424 -0.5814 -0.8761 -1.3168
17799TIP3   OH274887   4.900   4.733   0.286 -0.6549  0.3252 -0.4341
17799TIP3    H174888   4.854   4.801   0.236 -1.1699 -0.4949 -1.1053
17799TIP3    H274889   4.853   4.652   0.265 -0.2042 -0.2070  0.5452
17800TIP3   OH274890   0.849   0.453   3.560 -0.2639 -0.0404  0.2241
17800TIP3    H174891   0.816   0.457   3.650  0.2101 -0.7238  0.4429
17800TIP3    H274892   0.807   0.375   3.523 -1.0783  0.6863 -0.4168
17801TIP3   OH274893   3.127   0.577  11.123 -0.1575  0.1337 -0.0066
17801TIP3    H174894   3.068   0.585  11.048 -0.1633  1.6266  0.1166
17801TIP3    H274895   3.097   0.645  11.184  1.7573  1.0209  0.0003
17802TIP3   OH274896   1.835   1.605   4.076  0.3502 -0.2413  0.1047
17802TIP3    H174897   1.857   1.592   3.984 -0.9651  2.4821 -0.7053
17802TIP3    H274898   1.754   1.554   4.089  1.0077 -1.3336  0.0333
17803TIP3   OH274899   1.298   3.662   3.396 -0.1262  0.7143  0.8139
17803TIP3    H174900   1.393   3.657   3.396 -0.1671 -2.0630  1.1571
17803TIP3    H274901   1.271   3.603   3.325 -1.6257  3.5153 -1.1035
17804TIP3   OH274902   2.317   0.774   1.067  0.1374  0.3406 -0.2623
17804TIP3    H174903   2.359   0.843   1.119  0.4040  0.5249 -0.7213
17804TIP3    H274904   2.382   0.751   1.001  0.0660 -0.3840 -0.0817
17805TIP3   OH274905   6.069   1.514   4.089  0.4532  0.5275 -0.0177
17805TIP3    H174906   6.027   1.489   4.007 -1.7254  0.6124  1.0021
17805TIP3    H274907   6.161   1.528   4.066  0.3774 -1.6733 -1.9545
17806TIP3   OH274908   0.519   0.116  14.063 -0.0311 -0.5512 -0.2835
17806TIP3    H174909   0.445   0.057  14.052 -0.6660 -0.0099  0.9670
17806TIP3    H274910   0.482   0.204  14.056 -0.1158 -0.1628  3.1112
17807TIP3   OH274911   2.263   3.245  15.557  0.8230 -0.0242 -0.4352
17807TIP3    H174912   2.221   3.164  15.587  1.7497 -0.7771 -1.1336
17807TIP3    H274913   2.190   3.299  15.526  0.2635 -0.9012 -0.6857
17808TIP3   OH274914   4.857   0.413  14.949 -0.2009 -0.0906  0.3937
17808TIP3    H174915   4.808   0.408  15.031  0.3094 -0.2870  0.6954
17808TIP3    H274916   4.844   0.502  14.918 -0.7018 -0.1242  0.4945
17809TIP3   OH274917   2.784   4.529  13.280  0.3456 -0.5519  0.3743
17809TIP3    H174918   2.861   4.544  13.225 -0.5964  0.7453 -0.6523
17809TIP3    H274919   2.800   4.582  13.358 -0.5995  1.8456 -0.9600
17810TIP3   OH274920   3.223   5.045  13.881 -0.2441 -0.0109 -0.7493
17810TIP3    H174921   3.271   5.104  13.939  2.0552 -0.2174 -2.2902
17810TIP3    H274922   3.179   5.102  13.818  2.2403  0.2171 -2.4390
17811TIP3   OH274923   1.169   0.369   0.693 -0.2840 -0.2425 -0.4166
17811TIP3    H174924   1.083   0.334   0.713 -1.6355  0.9728 -3.4903
17811TIP3    H274925   1.201   0.316   0.620 -0.1420  1.6106 -1.7795
17812TIP3   OH274926   6.236   3.168   2.732 -0.3790  0.1435  0.3849
17812TIP3    H174927   6.237   3.101   2.663  0.6552  0.4004  0.1275
17812TIP3    H274928   6.154   3.154   2.778 -1.5678  0.5400 -1.4873
17813TIP3   OH274929   4.839   1.648  16.169  0.6828  0.0178 -0.0040
17813TIP3    H174930   4.833   1.733  16.213 -0.8064  0.2676 -0.6362
17813TIP3    H274931   4.751   1.633  16.134  1.3420 -1.0492 -1.2734
17814TIP3   OH274932   6.027   3.391  12.116  0.7140  0.0279 -0.0026
17814TIP3    H174933   6.087   3.445  12.065  0.1071  1.5435  0.8095
17814TIP3    H274934   5.951   3.380  12.059  0.4336  0.9033  0.1838
17815TIP3   OH274935   1.503   3.565   3.116  0.1402 -0.5486 -0.4448
17815TIP3    H174936   1.552   3.600   3.191 -0.5302 -0.6047  0.0293
17815TIP3    H274937   1.547   3.602   3.039 -0.2902  1.0045  0.0235
17816TIP3   OH274938   1.518   5.728   3.475  0.7985  0.3196  0.5745
17816TIP3    H174939   1.493   5.803   3.529  3.3697  0.6587  1.4666
17816TIP3    H274940   1.552   5.664   3.538  1.1637 -0.4702 -0.4056
17817TIP3   OH274941   1.221   2.705   2.156 -0.5608  0.0509  0.3406
17817TIP3    H174942   1.290   2.643   2.180  1.1261  0.1396 -3.5595
17817TIP3    H274943   1.262   2.791   2.162 -0.2216  0.1070 -2.0323
17818TIP3   OH274944   1.257   3.841  13.858  0.0786 -0.1558  0.1684
17818TIP3    H174945   1.199   3.880  13.923  2.2206  0.5625  1.7711
17818TIP3    H274946   1.286   3.759  13.898  0.4843 -0.3103 -0.4278
17819TIP3   OH274947   3.707   5.173   2.383  0.5031  0.0589  0.5101
17819TIP3    H174948   3.722   5.108   2.452  0.0156  1.1787  1.7275
17819TIP3    H274949   3.612   5.181   2.378  0.5616  1.0393  0.7549
17820TIP3   OH274950   4.020   0.569  11.883 -0.8860  0.3301  0.2014
17820TIP3    H174951   4.101   0.520  11.868 -0.8280  0.5421 -0.2024
17820TIP3    H274952   3.967   0.552  11.804 -1.1765  0.3016  0.4009
17821TIP3   OH274953   4.352   6.205  11.921  0.3253  0.1164 -0.1203
17821TIP3    H174954   4.419   6.272  11.935 -0.5372  1.0803 -0.4969
17821TIP3    H274955   4.401   6.127  11.896  1.4030  0.3918  1.0249
17822TIP3   OH274956   6.603   6.670  13.169 -0.1698 -0.1553 -0.3149
17822TIP3    H174957   6.698   6.667  13.156 -0.1658  0.2192 -0.3882
17822TIP3    H274958   6.573   6.581  13.150 -0.2305  0.4312 -3.5049
17823TIP3   OH274959   6.160   5.716   6.096 -0.4460  0.7192 -0.5364
17823TIP3    H174960   6.157   5.812   6.096  1.2662  0.7982 -0.4437
17823TIP3    H274961   6.239   5.694   6.144 -0.9352 -0.7693 -0.3556
17824TIP3   OH274962   4.282   6.341  11.268  0.5571 -0.6111  0.1787
17824TIP3    H174963   4.340   6.268  11.288  2.1406  0.6062  0.1556
17824TIP3    H274964   4.266   6.335  11.174  2.0219  0.0030 -0.1241
17825TIP3   OH274965   0.815   1.585  13.104  0.1659  0.4180 -0.1040
17825TIP3    H174966   0.882   1.517  13.104  0.0392  0.1113 -3.4252
17825TIP3    H274967   0.860   1.663  13.135  1.7180 -0.0817 -0.9944
17826TIP3   OH274968   5.207   3.769   0.483 -0.2894  0.4668 -0.2824
17826TIP3    H174969   5.247   3.712   0.549 -0.5078  0.8095  0.1469
17826TIP3    H274970   5.265   3.761   0.407  0.7973  1.2371  0.4497
17827TIP3   OH274971   5.611   0.937  15.224  0.4033 -0.2507  0.2711
17827TIP3    H174972   5.613   0.845  15.198  0.3006 -0.5815  1.3784
17827TIP3    H274973   5.548   0.940  15.296  1.4884  0.4188  1.2268
17828TIP3   OH274974   2.106   5.420  14.495  0.0245 -0.1770  0.1980
17828TIP3    H174975   2.011   5.407  14.500 -0.0175  0.2719  0.7351
17828TIP3    H274976   2.142   5.357  14.557  0.1016 -0.5801 -0.2543
17829TIP3   OH274977   4.042   3.264   5.216  0.9736  0.3720  0.4693
17829TIP3    H174978   3.957   3.250   5.174  0.5365 -2.0745  1.9815
17829TIP3    H274979   4.021   3.284   5.307  1.9987  1.5617  0.4659
17830TIP3   OH274980   6.377   0.506  13.638 -0.1495 -0.4727 -0.0245
17830TIP3    H174981   6.388   0.542  13.550 -0.2012 -2.8900 -1.0954
17830TIP3    H274982   6.308   0.559  13.677  1.4758  2.1885 -0.4903
17831TIP3   OH274983   3.076   5.477   4.330  0.1919  0.1946  0.5440
17831TIP3    H174984   3.074   5.559   4.282 -0.4537 -1.0020 -1.6250
17831TIP3    H274985   2.985   5.446   4.329 -0.0775  0.6015  3.5520
17832TIP3   OH274986   0.604   4.483   2.984 -0.0801  0.1537  0.0979
17832TIP3    H174987   0.627   4.390   2.979 -1.0868 -0.1139  0.1690
17832TIP3    H274988   0.509   4.483   2.998 -0.0866  1.1947  0.1034
17833TIP3   OH274989   3.864   5.318  10.898  0.1686  0.5820 -0.3554
17833TIP3    H174990   3.941   5.285  10.946  1.0173  1.1968 -1.2587
17833TIP3    H274991   3.881   5.294  10.807 -0.2480  1.5616 -0.7009
17834TIP3   OH274992   2.587   4.125  12.761 -0.2264  0.0959 -0.6860
17834TIP3    H174993   2.573   4.048  12.705 -0.9743  1.1171 -1.9675
17834TIP3    H274994   2.500   4.145  12.796 -0.0826  0.4999 -0.5520
17835TIP3   OH274995   0.738   4.166  16.371 -0.2778 -0.0394 -0.0667
17835TIP3    H174996   0.822   4.197  16.337 -0.8884  0.1545 -1.5127
17835TIP3    H274997   0.742   4.180  16.465  1.4942 -0.4976 -0.0505
17836TIP3   OH274998   6.357   4.703   3.951 -0.0080  0.3297 -0.4395
17836TIP3    H174999   6.279   4.686   3.899  1.2700  1.7972 -3.0631
17836TIP3    H275000   6.399   4.777   3.907  2.4894  0.0476  1.2755
17837TIP3   OH275001   3.177   1.033   4.003 -0.5927 -0.5338  0.0987
17837TIP3    H175002   3.256   0.993   4.040  0.8437  1.0750 -1.0799
17837TIP3    H275003   3.128   1.063   4.079 -0.2505 -1.8396  0.8671
17838TIP3   OH275004   0.146   6.016   3.625  0.5159 -0.2869 -0.1592
17838TIP3    H175005   0.142   5.977   3.538 -0.0429 -0.0108 -0.2617
17838TIP3    H275006   0.126   6.108   3.611  0.8811 -0.1508  0.2052
17839TIP3   OH275007   6.041   3.767   5.622  0.0048  0.4748 -0.0531
17839TIP3    H175008   6.071   3.752   5.533 -0.1012 -4.8923  0.5195
17839TIP3    H275009   5.951   3.799   5.612 -0.5762 -1.5307 -2.0024
17840TIP3   OH275010   6.321   0.216   0.604 -0.2090 -0.2092 -0.7507
17840TIP3    H175011   6.414   0.221   0.626 -0.6219  3.1019  0.7842
17840TIP3    H275012   6.287   0.146   0.659  1.0819 -0.3657 -0.1119
17841TIP3   OH275013   5.296   3.414   2.838  0.1736 -0.6352 -0.2169
17841TIP3    H175014   5.323   3.493   2.791  0.5617 -0.4636  0.2841
17841TIP3    H275015   5.201   3.412   2.831  0.2826 -1.3833 -2.2551
17842TIP3   OH275016   0.058   5.688   6.058  0.1367  0.1875 -0.1099
17842TIP3    H175017   0.080   5.597   6.039  0.4508 -0.0255  1.2195
17842TIP3    H275018   0.130   5.720   6.111  0.3176  1.4087 -1.0402
17843TIP3   OH275019   0.437   5.856  16.703  0.2765  0.1312 -0.1350
17843TIP3    H175020   0.513   5.860  16.760 -1.5504 -0.2696  2.4848
17843TIP3    H275021   0.430   5.763  16.679  0.6996  0.2052 -0.5707
17844TIP3   OH275022   2.059   2.073   3.923 -0.2618 -0.0816  0.0859
17844TIP3    H175023   2.026   2.009   3.861 -0.4582 -1.3052  1.3971
17844TIP3    H275024   1.984   2.093   3.979  0.5378 -1.0337  1.5665
17845TIP3   OH275025   2.211   6.423  13.895 -0.5628  0.4258  0.1527
17845TIP3    H175026   2.298   6.463  13.886  0.8051 -2.3954 -0.4193
17845TIP3    H275027   2.200   6.411  13.989  0.5979 -0.9139  0.1568
17846TIP3   OH275028   3.440   1.163   4.032  0.1125 -0.1703  0.6459
17846TIP3    H175029   3.395   1.106   4.095  0.2966 -0.3468  0.6168
17846TIP3    H275030   3.452   1.246   4.078  1.6782 -0.7915  1.4107
17847TIP3   OH275031   0.271   1.586   4.012  0.0625  0.7377 -0.6203
17847TIP3    H175032   0.276   1.641   4.090  0.6034  0.0800 -0.1799
17847TIP3    H275033   0.178   1.573   3.998 -0.0313 -0.2995  0.7599
17848TIP3   OH275034   2.843   5.208   4.526  0.3648  0.1948  0.0406
17848TIP3    H175035   2.858   5.255   4.444  0.9542 -0.3405 -0.1680
17848TIP3    H275036   2.798   5.271   4.582  0.4340  0.7405 -0.5053
17849TIP3   OH275037   0.485   1.167  12.942  0.3023  0.1393 -0.1051
17849TIP3    H175038   0.498   1.254  12.981  1.8867 -0.7955  1.5972
17849TIP3    H275039   0.537   1.169  12.862 -0.2087  0.9520 -0.4332
17850TIP3   OH275040   5.373   6.673  12.127  0.0214  0.2396  0.2303
17850TIP3    H175041   5.300   6.727  12.095 -0.5210 -0.6065 -0.0081
17850TIP3    H275042   5.378   6.601  12.064  1.3255  0.4852  0.0274
17851TIP3   OH275043   4.397   6.223   3.293  0.8097  0.0353 -0.1654
17851TIP3    H175044   4.430   6.256   3.209 -2.7639  0.2320 -1.6600
17851TIP3    H275045   4.361   6.300   3.337  0.1205 -0.5215  0.2563
17852TIP3   OH275046   2.140   6.029  14.645 -0.3024 -0.0551  0.1581
17852TIP3    H175047   2.210   6.082  14.683  0.6241 -0.6430 -0.6819
17852TIP3    H275048   2.102   6.084  14.576  1.7201 -0.9754 -1.8215
17853TIP3   OH275049   5.122   6.624   5.003  0.3542 -0.7780  0.1496
17853TIP3    H175050   5.061   6.688   5.041  1.5748 -0.0513  0.9753
17853TIP3    H275051   5.188   6.612   5.071  1.7645 -0.6477 -1.1615
17854TIP3   OH275052   5.572   4.462   5.681  0.1121  0.0706 -0.2787
17854TIP3    H175053   5.573   4.423   5.769  0.7331 -0.3530 -0.4693
17854TIP3    H275054   5.612   4.396   5.625 -0.8969  0.0702 -1.0084
17855TIP3   OH275055   1.885   1.449   2.340  0.0474 -0.6895  0.5315
17855TIP3    H175056   1.957   1.470   2.399 -0.6553 -1.0883  1.5734
17855TIP3    H275057   1.927   1.418   2.260  1.2115  4.2797 -1.1422
17856TIP3   OH275058   3.502   3.937  11.770  0.5604 -0.0418 -0.8562
17856TIP3    H175059   3.498   3.977  11.683  0.6171  1.4790 -0.1907
17856TIP3    H275060   3.447   3.994  11.824  0.2652 -1.1621  0.0401
17857TIP3   OH275061   2.282   6.418  15.704  0.2691  0.2653  0.2710
17857TIP3    H175062   2.323   6.362  15.638 -3.3745 -2.4492 -0.0619
17857TIP3    H275063   2.343   6.490  15.717  4.3236 -2.6114 -0.9664
17858TIP3   OH275064   2.151   4.942  14.363  0.4087 -0.6882  0.0550
17858TIP3    H175065   2.183   4.894  14.286  0.6406  1.3135 -1.1830
17858TIP3    H275066   2.060   4.915  14.372  0.6464 -1.6457 -0.3534
17859TIP3   OH275067   2.031   6.320  15.103 -0.1857  0.2233 -0.1756
17859TIP3    H175068   1.963   6.302  15.038 -0.4680 -0.5157  0.3101
17859TIP3    H275069   1.987   6.373  15.170 -0.4054 -0.5725  0.3298
17860TIP3   OH275070   2.885   1.308  12.603  0.1273  0.7217  0.0828
17860TIP3    H175071   2.802   1.352  12.621 -0.2541  0.3811 -0.7755
17860TIP3    H275072   2.937   1.374  12.557  1.1984  1.6789  2.4812
17861TIP3   OH275073   6.753   3.055  14.799 -0.1201  0.1348  0.4596
17861TIP3    H175074   6.688   2.993  14.831  0.4560 -0.9615 -0.4417
17861TIP3    H275075   6.821   3.057  14.867 -1.1806  1.4999  1.5405
17862TIP3   OH275076   6.554   0.121  12.179 -0.0861  0.2691 -0.2381
17862TIP3    H175077   6.613   0.074  12.238  0.1833  2.3367  1.2507
17862TIP3    H275078   6.480   0.147  12.234 -0.2616  1.4934 -1.0099
17863TIP3   OH275079   1.037   3.552   5.225  0.4312 -0.3731  1.0508
17863TIP3    H175080   0.974   3.585   5.161 -0.9890 -3.8607  0.4137
17863TIP3    H275081   0.995   3.565   5.310  0.1204 -0.1079  0.8542
17864TIP3   OH275082   4.824   0.945  12.418 -0.3415  0.1143 -0.2925
17864TIP3    H175083   4.782   0.913  12.338 -2.2875 -1.0682  1.1134
17864TIP3    H275084   4.832   0.868  12.474  1.2489  0.8631  0.5774
17865TIP3   OH275085   0.620   2.703  15.402  0.4591 -0.0462  0.1810
17865TIP3    H175086   0.532   2.665  15.406  0.5195 -0.1069  1.3634
17865TIP3    H275087   0.662   2.672  15.482  2.1619 -1.4426 -1.1886
17866TIP3   OH275088   1.426   2.098  10.797  0.2402  0.0504  0.0711
17866TIP3    H175089   1.339   2.111  10.760  0.0256  0.0098  0.5603
17866TIP3    H275090   1.441   2.004  10.790  0.7231  0.1910 -1.0650
17867TIP3   OH275091   1.370   5.702   3.955  0.0373  0.3797  0.3336
17867TIP3    H175092   1.391   5.670   4.043  1.4008 -1.0632 -0.4535
17867TIP3    H275093   1.361   5.622   3.903 -0.7733  1.2146 -0.8418
17868TIP3   OH275094   3.493   0.751   4.872 -0.2842 -0.3505  0.4094
17868TIP3    H175095   3.583   0.750   4.906 -0.3005  0.7983  0.5191
17868TIP3    H275096   3.438   0.764   4.948 -0.4740 -0.0120  0.2157
17869TIP3   OH275097   1.822   3.314  15.114 -0.0400  0.3806 -0.3094
17869TIP3    H175098   1.760   3.254  15.156  0.2128  1.1695  1.2712
17869TIP3    H275099   1.849   3.269  15.034 -0.7820 -1.0643  0.2225
17870TIP3   OH275100   3.237   5.964   4.960 -0.1551 -0.1743 -0.5508
17870TIP3    H175101   3.292   5.905   4.909  0.5329 -0.5271  0.5643
17870TIP3    H275102   3.282   5.972   5.045 -0.3936  1.6899 -0.5543
17871TIP3   OH275103   0.042   4.449   3.493  0.5078 -0.0326  0.2176
17871TIP3    H175104  -0.037   4.419   3.539  0.3569 -1.4046 -0.8651
17871TIP3    H275105   0.093   4.369   3.480 -0.3813 -0.1352 -3.7641
17872TIP3   OH275106   4.043   0.381   1.823  0.3678 -0.1456  0.1298
17872TIP3    H175107   3.998   0.382   1.908 -0.0874 -0.4017 -0.0996
17872TIP3    H275108   3.996   0.314   1.773 -1.0727  1.7588 -1.2296
17873TIP3   OH275109   1.456   4.992  16.712  0.2234 -0.0413  0.3237
17873TIP3    H175110   1.480   4.944  16.791  0.4254  0.7671  0.7586
17873TIP3    H275111   1.498   4.943  16.641  0.0417 -0.7705  0.7040
17874TIP3   OH275112   1.415   1.947  13.856 -0.1419 -0.4661  0.0168
17874TIP3    H175113   1.506   1.945  13.827  0.2032  2.7080  0.4701
17874TIP3    H275114   1.369   1.994  13.787 -1.3150 -1.3511  0.1556
17875TIP3   OH275115   2.398   5.846  12.644 -0.0383 -0.0631 -0.1272
17875TIP3    H175116   2.427   5.835  12.554  0.7273  0.3200  0.0659
17875TIP3    H275117   2.342   5.923  12.642  0.2207  0.1249 -0.2271
17876TIP3   OH275118   2.241   2.997   1.410  0.4463 -0.4859 -0.3835
17876TIP3    H175119   2.303   3.021   1.478 -1.6095  1.3962  0.9722
17876TIP3    H275120   2.213   3.081   1.372 -0.4498 -1.3362 -1.7172
17877TIP3   OH275121   2.634   2.216  11.250 -0.0882  0.1348  0.8388
17877TIP3    H175122   2.599   2.302  11.228 -1.3812 -0.3361  0.9912
17877TIP3    H275123   2.569   2.154  11.217  0.3576 -0.7543  1.5824
17878TIP3   OH275124   6.746   0.711  14.552  0.2791  0.0885  0.3757
17878TIP3    H175125   6.780   0.799  14.536  2.9663 -0.3909  2.5802
17878TIP3    H275126   6.797   0.655  14.493  1.3140 -0.3203  1.6037
17879TIP3   OH275127   5.888   6.688   1.112  0.2752 -0.0026  0.0887
17879TIP3    H175128   5.946   6.613   1.125  1.0041  0.7901  1.7373
17879TIP3    H275129   5.850   6.704   1.199 -1.1071  0.5626 -0.5877
17880TIP3   OH275130   1.874   2.776  14.007 -0.3671 -0.4108  0.1709
17880TIP3    H175131   1.827   2.693  14.006 -0.3553 -0.4456  1.1753
17880TIP3    H275132   1.962   2.754  14.037 -0.1155 -0.1545 -0.3727
17881TIP3   OH275133   3.891   5.237   2.186  0.2101  0.1307 -0.4291
17881TIP3    H175134   3.927   5.154   2.154 -0.9370  0.2490 -2.1383
17881TIP3    H275135   3.812   5.211   2.233 -0.0503  0.2523 -0.8059
17882TIP3   OH275136   2.438   2.251  14.470 -0.2368 -1.1392  0.1121
17882TIP3    H175137   2.344   2.248  14.452 -0.0264 -1.4572 -0.9622
17882TIP3    H275138   2.459   2.344  14.466 -0.8494 -0.8452  2.3134
17883TIP3   OH275139   2.715   3.242  13.793 -0.1105 -0.3909  0.3385
17883TIP3    H175140   2.715   3.269  13.701  1.7249 -0.5886  0.2401
17883TIP3    H275141   2.804   3.262  13.824 -0.6967 -0.2877  2.0867
17884TIP3   OH275142   5.100   4.114   4.861  0.3264 -0.3333  0.6726
17884TIP3    H175143   5.005   4.126   4.859  0.2936 -0.2852  1.6602
17884TIP3    H275144   5.117   4.043   4.799 -0.2216  0.3785 -0.3053
17885TIP3   OH275145   0.081   0.551  12.543  0.2896  0.5155  0.7369
17885TIP3    H175146   0.115   0.506  12.620  0.8735  0.6468  0.5574
17885TIP3    H275147   0.088   0.644  12.564  0.7203  0.5589  0.4143
17886TIP3   OH275148   5.165   4.586  14.749  0.4521 -0.1870 -0.0683
17886TIP3    H175149   5.160   4.673  14.789  0.8270  0.0704 -0.5766
17886TIP3    H275150   5.241   4.590  14.691 -0.5907 -0.2657 -1.4921
17887TIP3   OH275151   2.476   1.410   1.201 -0.2813  0.0503 -0.0947
17887TIP3    H175152   2.387   1.378   1.187  0.5180 -0.8693 -4.9660
17887TIP3    H275153   2.470   1.505   1.189 -0.8336  0.3538  2.0969
17888TIP3   OH275154   1.820   5.625  12.452  0.1448  0.3137  0.0004
17888TIP3    H175155   1.871   5.583  12.521 -1.8362 -2.7959 -0.2581
17888TIP3    H275156   1.748   5.668  12.499  0.0084  0.0712  0.0134
17889TIP3   OH275157   6.462   4.744  12.181  0.4222 -0.3314  0.1204
17889TIP3    H175158   6.492   4.656  12.157  0.4300  0.1067 -1.6726
17889TIP3    H275159   6.418   4.776  12.102  0.9774  1.5206  0.5143
17890TIP3   OH275160   1.392   2.878  15.256 -0.1376 -0.7990  0.0945
17890TIP3    H175161   1.386   2.962  15.302 -0.4996 -1.1391  0.6962
17890TIP3    H275162   1.444   2.896  15.178 -0.4180  0.0378  0.0895
17891TIP3   OH275163   3.093   1.358   5.133 -0.4407 -0.2395  0.6599
17891TIP3    H175164   3.051   1.322   5.055 -1.3828  1.4160  0.3460
17891TIP3    H275165   3.073   1.452   5.129  0.3729  0.0358  2.3561
17892TIP3   OH275166   1.467   0.448   0.413  0.0281 -0.2219 -0.2425
17892TIP3    H175167   1.430   0.518   0.468  1.0988 -1.0939  1.6744
17892TIP3    H275168   1.551   0.483   0.383 -0.9709  0.6325 -2.2202
17893TIP3   OH275169   0.264   4.302  13.617  0.7406 -0.2754 -0.2663
17893TIP3    H175170   0.235   4.211  13.625  1.1798 -0.4022 -0.1212
17893TIP3    H275171   0.183   4.353  13.623  0.5091 -0.6445 -0.1964
17894TIP3   OH275172   4.549   4.725  11.684 -0.0834  0.0903 -0.6183
17894TIP3    H175173   4.560   4.763  11.771  2.1110  0.1692 -0.8656
17894TIP3    H275174   4.637   4.728  11.646  0.0842 -4.2789 -1.0350
17895TIP3   OH275175   5.703   2.483   0.866  0.3354 -0.2380 -0.2005
17895TIP3    H175176   5.678   2.427   0.940  0.6601 -0.5093 -0.2917
17895TIP3    H275177   5.715   2.422   0.793  1.2660 -0.1194 -0.1575
17896TIP3   OH275178   6.351   6.625   3.480  0.3238  0.0787  0.5961
17896TIP3    H175179   6.378   6.707   3.521  0.2761  0.1098  0.5650
17896TIP3    H275180   6.402   6.558   3.525 -1.1634 -0.1098  2.0920
17897TIP3   OH275181   0.227   2.798   3.070  0.0106 -0.1561  0.4184
17897TIP3    H175182   0.306   2.848   3.047 -0.1618  0.1749  0.5368
17897TIP3    H275183   0.159   2.834   3.013  0.3741 -1.8150 -1.1327
17898TIP3   OH275184   1.594   4.307   5.674 -0.1100  0.6163 -0.0796
17898TIP3    H175185   1.641   4.237   5.719  2.2906  2.1954  0.0953
17898TIP3    H275186   1.519   4.326   5.730  1.1950  0.5795  1.7867
17899TIP3   OH275187   5.047   0.106  12.783 -0.1151  0.2617  0.1605
17899TIP3    H175188   5.054   0.178  12.846  1.1109 -0.0511  0.4003
17899TIP3    H275189   4.966   0.061  12.808 -1.2285  1.8748 -0.3665
17900TIP3   OH275190   5.169   6.318  13.384 -0.0522  0.4024 -0.5143
17900TIP3    H175191   5.197   6.409  13.376 -1.6983  0.9962 -0.0231
17900TIP3    H275192   5.140   6.310  13.475 -0.4825 -0.4386 -0.7218
17901TIP3   OH275193   5.898   5.036  13.815  0.1347  0.4845 -0.3792
17901TIP3    H175194   5.989   5.042  13.844 -0.2765  1.4248  0.7801
17901TIP3    H275195   5.885   4.943  13.797  1.7353  0.5281 -2.0332
17902TIP3   OH275196   3.751   1.864  12.335 -0.1784 -0.0956  0.1818
17902TIP3    H175197   3.771   1.953  12.363 -1.1749  0.1769  0.0630
17902TIP3    H275198   3.805   1.808  12.391 -1.6350  0.4507  2.2447
17903TIP3   OH275199   6.291   6.645   4.221 -0.3320 -0.2877 -0.2388
17903TIP3    H175200   6.329   6.616   4.138  0.0957 -0.5067  0.0253
17903TIP3    H275201   6.366   6.671   4.274 -0.6609  0.5774 -0.1890
17904TIP3   OH275202   5.853   6.136   3.028 -0.4771  0.3582  0.4636
17904TIP3    H175203   5.918   6.087   3.079 -1.5938 -1.5951  0.0914
17904TIP3    H275204   5.903   6.171   2.954  0.4413  0.1733  0.9754
17905TIP3   OH275205   2.398   1.652   4.533 -0.1734  0.4656 -0.2745
17905TIP3    H175206   2.424   1.622   4.620  1.0872 -2.6582 -1.5607
17905TIP3    H275207   2.310   1.618   4.521  0.2113 -0.4287 -0.7048
17906TIP3   OH275208   4.782   4.337  16.518  0.4875  0.0616  0.8334
17906TIP3    H175209   4.803   4.274  16.587 -0.5437 -0.3106  0.8238
17906TIP3    H275210   4.746   4.413  16.565  0.1999 -0.0133  0.7342
17907TIP3   OH275211   2.274   0.979   4.361 -0.1432 -0.1443  0.0880
17907TIP3    H175212   2.356   0.947   4.324  0.4541 -0.0448  1.2804
17907TIP3    H275213   2.214   0.905   4.354  0.1351 -0.3161 -0.5244
17908TIP3   OH275214   2.800   1.410   2.710 -0.1268 -0.3029 -0.0626
17908TIP3    H175215   2.765   1.479   2.766  1.6351  0.0724  0.6105
17908TIP3    H275216   2.727   1.348   2.700 -1.4922  1.2410 -0.0603
17909TIP3   OH275217   0.558   1.736   5.189  0.5319  0.0124  0.0248
17909TIP3    H175218   0.631   1.772   5.240 -0.9091  0.5165  1.8411
17909TIP3    H275219   0.492   1.806   5.189  0.6493  0.2670 -3.0843
17910TIP3   OH275220   0.165   0.856   3.269  0.0948 -0.0652  0.2786
17910TIP3    H175221   0.111   0.933   3.287 -0.0995  0.3533 -1.8306
17910TIP3    H275222   0.251   0.879   3.304  0.2864  1.5361 -1.0832
17911TIP3   OH275223   2.472   4.815   3.275 -0.3444 -0.5099 -0.8268
17911TIP3    H175224   2.432   4.865   3.204 -0.8368  1.6752  0.8730
17911TIP3    H275225   2.397   4.782   3.325 -0.0015 -2.0367 -1.2587
17912TIP3   OH275226   4.329   3.261   1.432 -0.2764 -0.1884  0.1688
17912TIP3    H175227   4.418   3.225   1.433 -0.0968  0.2486  0.1731
17912TIP3    H275228   4.272   3.184   1.436  0.0997 -0.4188  1.3440
17913TIP3   OH275229   2.679   0.934  15.511 -0.1089  0.4741  0.2402
17913TIP3    H175230   2.748   0.958  15.572 -1.7472 -1.1190  2.9159
17913TIP3    H275231   2.725   0.913  15.430  2.5238 -0.3173  1.8290
17914TIP3   OH275232   5.351   5.635   4.572  0.0713  0.1353  0.5184
17914TIP3    H175233   5.370   5.632   4.666 -0.9475 -0.5560  0.7124
17914TIP3    H275234   5.276   5.695   4.565  0.1456  0.1871  0.1460
17915TIP3   OH275235   0.313   2.042  12.998  0.1087 -0.2354 -0.6495
17915TIP3    H175236   0.230   2.054  12.951 -0.9070  0.6012  1.2380
17915TIP3    H275237   0.374   2.101  12.953 -0.9183  0.8249 -0.7311
17916TIP3   OH275238   3.608   1.670   2.151 -0.2990 -0.6256  0.8645
17916TIP3    H175239   3.598   1.694   2.059  1.1106  0.6023  0.9907
17916TIP3    H275240   3.566   1.742   2.199 -3.2954 -2.4426  1.2394
17917TIP3   OH275241   3.588   0.065  13.624  0.5248 -0.5319  0.1675
17917TIP3    H175242   3.497   0.038  13.607  1.2794 -2.3302 -1.3877
17917TIP3    H275243   3.626  -0.010  13.670  2.2078 -1.5377 -2.6469
17918TIP3   OH275244   1.404   5.620  15.986 -0.3665 -0.8968  0.2198
17918TIP3    H175245   1.485   5.659  16.017 -0.7393  1.0418 -1.0580
17918TIP3    H275246   1.366   5.687  15.929 -1.9822 -2.4505 -0.6156
17919TIP3   OH275247   4.114   3.576  15.231 -0.4826  0.0399 -0.1569
17919TIP3    H175248   4.123   3.550  15.323  0.2241  0.6049 -0.0557
17919TIP3    H275249   4.080   3.665  15.235 -1.2812 -0.2465 -0.4678
17920TIP3   OH275250   5.528   5.158  10.526  0.5643  0.0627  0.0711
17920TIP3    H175251   5.609   5.166  10.577  0.5521 -0.9440  0.2724
17920TIP3    H275252   5.488   5.077  10.557 -0.6951  0.7034  0.1904
17921TIP3   OH275253   5.170   1.075  15.222 -0.3320 -0.1213 -0.6442
17921TIP3    H175254   5.139   1.064  15.312  1.9906 -4.2906 -0.1144
17921TIP3    H275255   5.098   1.046  15.167 -1.2309  1.0493 -0.1271
17922TIP3   OH275256   4.543   4.729   2.892 -0.0515  0.6237  0.1339
17922TIP3    H175257   4.600   4.803   2.912  0.8717  0.4530 -1.6767
17922TIP3    H275258   4.603   4.654   2.883 -0.4819  0.4635 -1.9262
17923TIP3   OH275259   1.525   4.995  13.915  0.2122 -0.2313 -0.1956
17923TIP3    H175260   1.569   5.075  13.943 -0.0569  0.0750 -0.6525
17923TIP3    H275261   1.501   4.951  13.997 -1.0895  0.9387  0.0854
17924TIP3   OH275262   1.770   6.568  11.196  0.2262 -0.3959  0.0782
17924TIP3    H175263   1.822   6.514  11.136 -0.6932 -0.7853 -0.3854
17924TIP3    H275264   1.687   6.521  11.205 -0.1874  0.3979  0.5166
17925TIP3   OH275265   3.824   3.382  16.964 -0.2347  0.2595 -0.1863
17925TIP3    H175266   3.762   3.455  16.960  1.4632  1.7587 -0.6919
17925TIP3    H275267   3.865   3.381  16.877 -0.1851 -1.3069 -0.1773
17926TIP3   OH275268   1.307   5.238  13.367  0.1097 -0.0487 -0.5892
17926TIP3    H175269   1.382   5.231  13.426 -0.7695 -0.6504  0.4957
17926TIP3    H275270   1.316   5.162  13.309 -0.3853 -0.9176  0.4305
17927TIP3   OH275271   3.779   1.539  15.588 -0.1499  0.1604  0.3799
17927TIP3    H175272   3.699   1.555  15.538 -0.3367 -0.6052  0.4116
17927TIP3    H275273   3.763   1.580  15.673 -0.2865  0.4805  0.2013
17928TIP3   OH275274   0.838   3.586  11.513  0.8006 -0.4383  0.2866
17928TIP3    H175275   0.802   3.645  11.579  0.4065 -0.5607  0.1877
17928TIP3    H275276   0.832   3.499  11.552  0.6511 -0.5007  0.1262
17929TIP3   OH275277   3.970   1.079   2.897  0.1443  0.8712  0.3229
17929TIP3    H175278   3.984   0.984   2.897  1.1049  0.9863 -0.9383
17929TIP3    H275279   4.022   1.111   2.823 -2.4952  2.0346 -1.1935
17930TIP3   OH275280   2.586   6.821   2.358  0.4092 -0.3820  0.3400
17930TIP3    H175281   2.646   6.756   2.321  0.3013 -0.6610  0.6499
17930TIP3    H275282   2.528   6.771   2.414  0.7693  0.0697  1.1386
17931TIP3   OH275283   0.751   3.614  14.617 -0.5751 -0.7032 -0.1192
17931TIP3    H175284   0.794   3.550  14.561 -1.0929 -0.0682 -1.2851
17931TIP3    H275285   0.794   3.697  14.596  0.1821 -0.6706  1.4664
17932TIP3   OH275286   5.505   1.320  12.384 -0.3150  0.1075  0.7052
17932TIP3    H175287   5.420   1.339  12.345 -0.4345 -1.0359  0.3676
17932TIP3    H275288   5.489   1.318  12.478 -0.4484  0.8917  0.7016
17933TIP3   OH275289   2.898   3.874   0.562  0.1374  0.1181 -0.2219
17933TIP3    H175290   2.942   3.877   0.477 -0.4832  2.0189 -0.5202
17933TIP3    H275291   2.916   3.959   0.602 -1.8103  0.3010  0.3875
17934TIP3   OH275292   0.719   6.167   1.522  0.1828  0.4793 -0.8530
17934TIP3    H175293   0.760   6.101   1.466  0.7666 -0.1049  0.2220
17934TIP3    H275294   0.722   6.247   1.470  0.9966  0.0267 -1.5442
17935TIP3   OH275295   6.271   6.436  13.748 -0.2865 -0.3237  0.7005
17935TIP3    H175296   6.262   6.400  13.659  0.6446 -1.2774  0.9692
17935TIP3    H275297   6.201   6.394  13.798 -1.3155  0.8123  0.2633
17936TIP3   OH275298   1.576   3.080   1.652  0.1332 -0.0989  0.2611
17936TIP3    H175299   1.664   3.074   1.613  0.2461  1.7770  0.1473
17936TIP3    H275300   1.517   3.085   1.576 -0.0833 -1.2510  0.3383
17937TIP3   OH275301   0.686   4.576  15.068  0.2418  0.3631  0.6470
17937TIP3    H175302   0.594   4.560  15.087  0.1332  0.9434  0.6404
17937TIP3    H275303   0.722   4.490  15.045 -0.9616  0.5323 -2.2632
17938TIP3   OH275304   5.763   2.654   5.689 -0.2907 -0.7299 -0.1890
17938TIP3    H175305   5.668   2.643   5.687 -0.2106 -1.4244 -2.0436
17938TIP3    H275306   5.785   2.655   5.782 -1.7965 -3.6077  0.3200
17939TIP3   OH275307   2.986   3.611   1.795 -0.0842 -0.6231  0.0862
17939TIP3    H175308   3.077   3.614   1.826 -0.2413  1.0132  0.4711
17939TIP3    H275309   2.972   3.695   1.753 -1.3104 -1.0200 -0.3418
17940TIP3   OH275310   4.222   2.897  16.160  0.1361  0.1702  0.0174
17940TIP3    H175311   4.208   2.942  16.077  0.4987  0.0761 -0.0979
17940TIP3    H275312   4.299   2.940  16.198  1.9641 -1.8463 -1.1822
17941TIP3   OH275313   4.288   1.844  12.189  0.5346  0.4937  0.0030
17941TIP3    H175314   4.201   1.859  12.227 -0.3914 -0.8633 -1.4532
17941TIP3    H275315   4.271   1.798  12.107  2.5419  1.7652 -1.2257
17942TIP3   OH275316   0.829   4.016   3.126  0.2692 -0.0011  0.3776
17942TIP3    H175317   0.872   3.992   3.044 -2.0018 -0.8982 -0.6371
17942TIP3    H275318   0.853   4.108   3.140 -0.1623  0.5252 -1.9089
17943TIP3   OH275319   1.150   0.404   2.663  0.2323  0.4216  0.2279
17943TIP3    H175320   1.132   0.427   2.572 -1.6465 -0.5497  0.2949
17943TIP3    H275321   1.171   0.311   2.661 -0.8748  0.1339  0.8688
17944TIP3   OH275322   1.124   5.658  12.533 -0.0837 -0.6169  0.0983
17944TIP3    H175323   1.153   5.573  12.501 -0.4746 -1.0724  0.9278
17944TIP3    H275324   1.187   5.680  12.602  1.4939  0.9191 -1.6911
17945TIP3   OH275325   0.702   5.206   4.282  0.2168 -0.6025 -0.0791
17945TIP3    H175326   0.663   5.175   4.200 -0.4956  0.9452 -0.3526
17945TIP3    H275327   0.691   5.301   4.280 -0.1187 -0.5514  1.9699
17946TIP3   OH275328   1.777   5.602   4.035 -0.0118  0.2676  0.1339
17946TIP3    H175329   1.813   5.674   3.984  0.8791  0.4443  0.9764
17946TIP3    H275330   1.844   5.584   4.101 -1.3012  0.3468  1.5117
17947TIP3   OH275331   3.530   6.388   2.178  0.8571  0.1756 -0.2307
17947TIP3    H175332   3.597   6.438   2.225  0.5481 -0.1829  0.6220
17947TIP3    H275333   3.500   6.446   2.108  1.7231  0.5156 -0.3362
17948TIP3   OH275334   4.918   4.638  13.234  0.0285  0.2268  0.0583
17948TIP3    H175335   4.898   4.601  13.149 -0.5547 -1.7569  1.0025
17948TIP3    H275336   5.012   4.625  13.245 -0.0423 -0.2817  0.0606
17949TIP3   OH275337   4.634   4.510  12.987 -0.0095 -0.3337 -0.0026
17949TIP3    H175338   4.724   4.479  12.977  0.3112  1.0475 -1.8596
17949TIP3    H275339   4.587   4.474  12.911 -0.3010  1.2750 -0.6240
17950TIP3   OH275340   5.414   0.318   6.512  0.3620 -0.1312 -0.5564
17950TIP3    H175341   5.470   0.390   6.485  1.3596 -1.1953 -1.4192
17950TIP3    H275342   5.346   0.359   6.566  1.6696  1.2647  0.1008
17951TIP3   OH275343   1.138   6.130   2.138 -0.2074 -0.4444 -0.2519
17951TIP3    H175344   1.184   6.051   2.109 -1.2190 -0.5680 -1.5844
17951TIP3    H275345   1.137   6.187   2.062 -1.3577 -0.0235  0.0568
17952TIP3   OH275346   1.431   2.344   4.471  0.1679 -0.1144  0.5282
17952TIP3    H175347   1.435   2.278   4.540  0.7441  1.0777  1.6639
17952TIP3    H275348   1.405   2.295   4.393  0.4467 -1.6561  1.3651
17953TIP3   OH275349   2.523   3.785   3.548  0.4047  0.1153  0.3012
17953TIP3    H175350   2.513   3.825   3.634 -0.7196 -0.2539  0.3547
17953TIP3    H275351   2.551   3.695   3.567  0.5689  0.1596  0.2675
17954TIP3   OH275352   4.342   2.239  16.929  0.5726  0.1955 -0.1325
17954TIP3    H175353   4.322   2.298  16.856 -2.4519 -0.0523  0.3598
17954TIP3    H275354   4.335   2.151  16.892  0.5003  0.0889  0.1296
17955TIP3   OH275355   6.315   6.786   0.072  0.0575 -0.2497 -0.2702
17955TIP3    H175356   6.359   6.841   0.007  2.4260 -0.0133  1.3896
17955TIP3    H275357   6.255   6.845   0.117 -0.0939  0.0661 -0.8703
17956TIP3   OH275358   4.923   4.645  13.719 -0.2968  0.2744 -0.4589
17956TIP3    H175359   4.984   4.575  13.695 -0.9756 -0.2537 -0.6692
17956TIP3    H275360   4.907   4.693  13.638  1.2061  1.5217 -0.0530
17957TIP3   OH275361   3.140   4.861   2.716  0.2445  0.2016  0.5048
17957TIP3    H175362   3.226   4.897   2.697  0.4901  1.1482  3.0591
17957TIP3    H275363   3.080   4.936   2.710 -0.3500 -0.3518 -0.7781
17958TIP3   OH275364   0.415   0.581  11.578  0.1011  0.0234 -0.2514
17958TIP3    H175365   0.510   0.573  11.589  0.2160 -1.0762 -1.8202
17958TIP3    H275366   0.397   0.673  11.599  1.1746 -0.2354  2.1381
17959TIP3   OH275367   2.391   1.398   6.073  0.5939 -0.0976  0.7053
17959TIP3    H175368   2.462   1.457   6.101  0.3968 -0.4733  2.0711
17959TIP3    H275369   2.311   1.448   6.090  0.4812  1.1665 -2.7732
17960TIP3   OH275370   6.771   4.566   2.574 -0.1122  0.2469  0.0642
17960TIP3    H175371   6.778   4.596   2.483  2.2154 -2.2205 -0.6987
17960TIP3    H275372   6.677   4.554   2.588 -0.4858 -0.2540 -2.4089
17961TIP3   OH275373   1.954   1.929  13.590 -0.4886 -0.5402 -0.0552
17961TIP3    H175374   1.859   1.919  13.602 -0.4441 -1.4772 -0.4080
17961TIP3    H275375   1.989   1.932  13.679 -0.8793  0.2120  0.0820
17962TIP3   OH275376   0.597   0.801   1.076  0.2459  0.4645 -0.1319
17962TIP3    H175377   0.573   0.892   1.061 -0.5395  0.1795 -0.6903
17962TIP3    H275378   0.518   0.761   1.112  0.9736  0.2794  1.3648
17963TIP3   OH275379   1.088   5.825  13.530 -0.0466 -0.0922 -0.0613
17963TIP3    H175380   1.158   5.884  13.500  2.2611 -2.0860  1.0494
17963TIP3    H275381   1.018   5.883  13.557  1.4939  2.0838 -0.4705
17964TIP3   OH275382   4.748   3.942   6.339 -0.2995 -0.3035 -0.3747
17964TIP3    H175383   4.772   4.025   6.381  0.7615  0.9378 -3.2404
17964TIP3    H275384   4.819   3.882   6.364  0.1508  0.3107 -0.1387
17965TIP3   OH275385   2.577   6.021   0.253  0.2742 -0.4737  0.5215
17965TIP3    H175386   2.603   6.079   0.181  0.4212 -2.2211 -0.8802
17965TIP3    H275387   2.482   6.021   0.251  0.2532  0.2328  0.9841
17966TIP3   OH275388   5.456   4.823   2.178 -0.3950 -0.2412 -0.3431
17966TIP3    H175389   5.522   4.755   2.189  0.2956  0.4065 -0.3786
17966TIP3    H275390   5.383   4.779   2.134  0.1184 -0.9035 -0.5495
17967TIP3   OH275391   5.638   5.974   2.825  0.1390 -0.1638  0.0172
17967TIP3    H175392   5.573   5.921   2.870 -0.0177 -1.5216 -1.7014
17967TIP3    H275393   5.657   6.045   2.886 -1.4999 -0.8032  1.3572
17968TIP3   OH275394   0.789   2.724   1.409 -0.5599  0.3784 -0.4388
17968TIP3    H175395   0.858   2.762   1.463 -0.0580 -0.4021 -0.5333
17968TIP3    H275396   0.714   2.715   1.469  0.1171 -0.8705  0.2567
17969TIP3   OH275397   5.396   6.795   3.666  0.4284  0.5482  0.5085
17969TIP3    H175398   5.322   6.827   3.615 -1.0905  1.1251  2.9558
17969TIP3    H275399   5.464   6.861   3.655  0.1622  0.6403 -0.7382
17970TIP3   OH275400   0.686   6.375   1.014  0.2132  0.9951  0.0169
17970TIP3    H175401   0.656   6.312   0.949  1.9441  1.9050 -1.7607
17970TIP3    H275402   0.608   6.427   1.036 -0.8645 -0.6794  0.3255
17971TIP3   OH275403   3.728   6.054  11.955 -0.2460  0.3192 -0.2736
17971TIP3    H175404   3.650   6.023  12.001  0.2559  0.7789  0.9212
17971TIP3    H275405   3.732   6.148  11.975  2.1972 -0.1926  2.1576
17972TIP3   OH275406   6.330   0.057   6.720 -0.0056  0.0485 -0.5865
17972TIP3    H175407   6.407   0.017   6.760 -0.0876  1.0166  0.6095
17972TIP3    H275408   6.289   0.106   6.791 -1.1328  0.4218 -1.4639
17973TIP3   OH275409   4.175   3.754  13.361 -0.4162  0.7778  0.5174
17973TIP3    H175410   4.196   3.734  13.452  1.1637  1.6901  0.3961
17973TIP3    H275411   4.191   3.848  13.353 -3.3672  1.3236 -0.0024
17974TIP3   OH275412   2.683   6.355   2.219  0.3202  0.1621  0.1460
17974TIP3    H175413   2.679   6.300   2.141 -0.2973 -0.1143  0.3648
17974TIP3    H275414   2.621   6.315   2.280 -1.1826  1.8623 -0.1855
17975TIP3   OH275415   6.067   6.506  14.279 -0.0747  0.0323 -0.4096
17975TIP3    H175416   6.153   6.484  14.314  0.1846  0.8390 -0.5073
17975TIP3    H275417   6.032   6.424  14.247  0.8856 -0.2095 -0.8674
17976TIP3   OH275418   4.814   4.048   2.748 -0.0892  0.2078  0.2746
17976TIP3    H175419   4.757   4.004   2.684 -1.7190 -1.6624  2.8095
17976TIP3    H275420   4.792   4.140   2.740 -0.4468  0.0072 -1.6212
17977TIP3   OH275421   0.645   5.033  15.880  0.3806  0.0503 -0.3343
17977TIP3    H175422   0.727   5.034  15.929  0.5978 -1.3323 -0.6150
17977TIP3    H275423   0.645   4.948  15.836 -1.4683 -0.2382  0.1254
17978TIP3   OH275424   4.870   3.467  11.600  0.2780 -0.3209  0.3885
17978TIP3    H175425   4.861   3.446  11.507 -0.9769  0.3872  0.3146
17978TIP3    H275426   4.964   3.474  11.614  0.4722  0.3362 -1.0211
17979TIP3   OH275427   1.144   0.144   5.977  0.0989  0.1402  0.7724
17979TIP3    H175428   1.220   0.181   6.023  0.1609 -0.8415  1.4861
17979TIP3    H275429   1.098   0.092   6.043 -1.5879  1.2504  0.5176
17980TIP3   OH275430   6.135   3.194  16.843  0.9698 -0.2736 -0.3854
17980TIP3    H175431   6.147   3.288  16.849  1.3147 -0.3720  0.6813
17980TIP3    H275432   6.157   3.161  16.930 -1.8117 -1.0561  0.1259
17981TIP3   OH275433   0.012   0.001   0.352 -0.1410  0.0749  0.3063
17981TIP3    H175434  -0.069   0.050   0.340 -0.7196 -1.3101 -1.9084
17981TIP3    H275435  -0.016  -0.090   0.363  1.0993 -0.5081 -1.0602
17982TIP3   OH275436   5.539   0.879   1.369 -1.1549 -0.3894  0.2269
17982TIP3    H175437   5.462   0.937   1.367 -1.1086 -0.1850  2.5710
17982TIP3    H275438   5.525   0.823   1.445  2.4543  1.8027  2.8403
17983TIP3   OH275439   3.902   6.370  12.761  0.3372 -0.0498 -0.5797
17983TIP3    H175440   3.936   6.411  12.840 -1.2090  0.0830  0.0604
17983TIP3    H275441   3.814   6.340  12.786 -0.2046  0.0506 -2.2612
17984TIP3   OH275442   2.499   2.390   1.013  0.3817 -0.4977  0.3536
17984TIP3    H175443   2.425   2.355   0.964 -0.7597  0.4429  1.3253
17984TIP3    H275444   2.513   2.477   0.977  1.5377 -0.9501 -0.3356
17985TIP3   OH275445   1.679   2.150   4.279 -0.1086  0.1181 -0.7195
17985TIP3    H175446   1.731   2.228   4.257 -0.7335  0.5014 -0.8497
17985TIP3    H275447   1.597   2.184   4.313 -0.5745 -0.4882 -1.2145
17986TIP3   OH275448   2.266   5.835   2.212  0.0157  0.2250  0.1182
17986TIP3    H175449   2.347   5.883   2.191 -0.9503  1.6737 -0.4648
17986TIP3    H275450   2.296   5.755   2.255  1.8065  0.2424 -0.9958
17987TIP3   OH275451   5.822   3.191   3.415 -0.5281  0.2855  0.1059
17987TIP3    H175452   5.881   3.205   3.490  0.1363  3.2602 -0.8308
17987TIP3    H275453   5.756   3.259   3.424 -0.4221  0.7121 -1.9859
17988TIP3   OH275454   2.471   5.429  15.740  0.5218  0.6795  0.2875
17988TIP3    H175455   2.523   5.424  15.659  0.7750  2.2288  0.3303
17988TIP3    H275456   2.471   5.521  15.763  0.7130  0.2408  2.2467
17989TIP3   OH275457   6.238   6.184   3.128  0.7887  0.0206 -0.0812
17989TIP3    H175458   6.297   6.184   3.052 -0.2508  0.8474 -0.9376
17989TIP3    H275459   6.228   6.277   3.150  1.0465 -0.2130  1.0567
17990TIP3   OH275460   1.465   5.205  15.191 -0.0466 -0.3163  0.1388
17990TIP3    H175461   1.497   5.116  15.182 -0.8956 -0.5447 -0.8782
17990TIP3    H275462   1.531   5.259  15.147  1.0920 -0.2687  1.8111
17991TIP3   OH275463   0.133   4.171  13.979  0.7251  0.6934  0.3579
17991TIP3    H175464   0.084   4.252  13.995  0.7888  0.7677  0.1860
17991TIP3    H275465   0.092   4.106  14.035 -0.3431  0.4694 -0.6401
17992TIP3   OH275466   2.110   6.341   5.048 -0.1636 -0.8348 -0.2018
17992TIP3    H175467   2.097   6.287   4.969 -3.2063 -1.1407  0.3681
17992TIP3    H275468   2.104   6.431   5.016 -0.8986 -0.9519 -0.4311
17993TIP3   OH275469   3.328   1.297   4.586 -0.2400 -0.1379 -0.0104
17993TIP3    H175470   3.301   1.246   4.663  0.0900  1.8064  1.4724
17993TIP3    H275471   3.249   1.344   4.559  0.4480  2.1318  1.5948
17994TIP3   OH275472   3.091   3.842   5.768  0.1066 -0.2003  0.0568
17994TIP3    H175473   3.134   3.781   5.707 -0.1570  1.0411 -1.4302
17994TIP3    H275474   3.094   3.926   5.723 -2.4896  0.2505  0.5934
17995TIP3   OH275475   5.807   6.279   4.574 -0.1345  0.2627 -1.0136
17995TIP3    H175476   5.834   6.204   4.628 -0.8475 -1.4618 -2.9060
17995TIP3    H275477   5.851   6.265   4.490 -1.1649  1.3664 -1.7672
17996TIP3   OH275478   0.635   0.029  11.729 -0.2193 -0.3390  0.3528
17996TIP3    H175479   0.687   0.046  11.651 -1.2617 -1.5422 -0.6447
17996TIP3    H275480   0.690  -0.026  11.784  0.0935 -0.4256 -0.0466
17997TIP3   OH275481   2.351   5.014  16.613  0.9684 -0.0051 -0.8945
17997TIP3    H175482   2.297   4.971  16.547 -0.1824  2.1339 -1.4464
17997TIP3    H275483   2.429   5.043  16.565  1.2267 -0.4799 -0.7699
17998TIP3   OH275484   0.059   5.029  13.535  0.0241  0.5769  0.2718
17998TIP3    H175485   0.068   5.121  13.562 -1.3015  0.8260 -0.0471
17998TIP3    H275486   0.018   5.033  13.449 -1.3553 -0.3255  0.8512
17999TIP3   OH275487   6.051   4.601   2.951  0.2060 -0.0288 -0.0470
17999TIP3    H175488   5.994   4.595   2.874 -0.2683 -0.4457  0.3310
17999TIP3    H275489   6.117   4.532   2.938  1.4108  1.2589 -1.0999
18000TIP3   OH275490   1.981   0.500  14.646  0.2250  0.3227 -0.0719
18000TIP3    H175491   2.050   0.549  14.601  1.4178 -2.0157 -0.9322
18000TIP3    H275492   1.900   0.546  14.623  1.3747  2.8666  0.5801
18001TIP3   OH275493   1.308   0.241  11.190  0.1532  0.2579  0.3103
18001TIP3    H175494   1.296   0.312  11.127  1.8986  0.0724 -0.2972
18001TIP3    H275495   1.298   0.161  11.138 -0.9254  0.0527  0.8115
18002TIP3   OH275496   6.187   2.368  11.472  0.3111 -0.5990  1.0372
18002TIP3    H175497   6.269   2.387  11.426 -0.0697  0.1999  0.6817
18002TIP3    H275498   6.126   2.434  11.441 -0.9531 -2.1528  0.0801
18003TIP3   OH275499   4.309   6.864  14.298 -0.5003 -0.6110 -0.1462
18003TIP3    H175500   4.364   6.791  14.271  0.9004  0.8270 -1.3882
18003TIP3    H275501   4.292   6.913  14.218 -1.9153  0.1202  0.5505
18004TIP3   OH275502   2.312   4.846   0.847 -0.1064  0.1165 -0.1580
18004TIP3    H175503   2.353   4.850   0.760  1.9291 -0.7276  0.6863
18004TIP3    H275504   2.304   4.752   0.864 -1.7277  0.2670  0.0601
18005TIP3   OH275505   3.486   6.792   5.251 -0.6382  0.3206 -0.3929
18005TIP3    H175506   3.577   6.773   5.229 -0.6221 -0.3152  0.1846
18005TIP3    H275507   3.476   6.886   5.235 -0.2306  0.1722 -1.6493
18006TIP3   OH275508   5.319   0.784   5.771 -0.7227  0.3349  0.5195
18006TIP3    H175509   5.371   0.709   5.742 -1.3734  0.1679 -0.2274
18006TIP3    H275510   5.304   0.768   5.864 -1.0081 -0.5515  0.3294
18007TIP3   OH275511   4.384   4.766  11.918 -0.0666  0.5780  0.1968
18007TIP3    H175512   4.347   4.680  11.938 -1.8365  1.5833  1.4946
18007TIP3    H275513   4.324   4.804  11.854  0.3441  1.1009  0.1141
18008TIP3   OH275514   1.979   4.922  11.339 -0.2114 -0.1785  0.0093
18008TIP3    H175515   2.071   4.913  11.315 -0.2323 -2.8865  0.6714
18008TIP3    H275516   1.941   4.972  11.266  1.6599  0.6219 -0.4933
18009TIP3   OH275517   5.914   1.196  12.169  0.2515  0.0683 -0.6578
18009TIP3    H175518   5.819   1.196  12.172  0.2124  0.6268  2.8665
18009TIP3    H275519   5.937   1.239  12.087 -2.4315 -1.9050 -2.6064
18010TIP3   OH275520   2.684   4.843   4.742  0.0618  0.1891 -0.0649
18010TIP3    H175521   2.611   4.811   4.796  0.3383  0.5217  0.5077
18010TIP3    H275522   2.763   4.813   4.788  0.2945 -0.1107 -0.6454
18011TIP3   OH275523   3.478   2.746   3.997  0.0159 -0.5183 -0.2601
18011TIP3    H175524   3.497   2.732   4.090  0.5254  0.1710 -0.2477
18011TIP3    H275525   3.422   2.824   3.996 -1.0704 -1.2702 -0.4525
18012TIP3   OH275526   3.536   1.141  16.136 -0.1899 -0.5125  0.4254
18012TIP3    H175527   3.595   1.067  16.125  1.4006  0.8819 -0.9336
18012TIP3    H275528   3.473   1.133  16.064 -1.9183 -2.1310  2.0097
18013TIP3   OH275529   3.132   6.322  16.229 -0.1104 -0.1260 -0.1896
18013TIP3    H175530   3.070   6.294  16.162 -2.6448  2.8804  0.6495
18013TIP3    H275531   3.200   6.368  16.181 -0.3301 -0.4978 -0.8777
18014TIP3   OH275532   2.211   0.102  16.738 -0.0332 -0.2195  0.5260
18014TIP3    H175533   2.210   0.007  16.730 -0.6252 -0.0875 -1.5154
18014TIP3    H275534   2.248   0.133  16.655 -0.9632  1.3692  0.6590
18015TIP3   OH275535   4.811   5.581  11.592 -0.4754 -0.0872  0.1157
18015TIP3    H175536   4.717   5.570  11.579 -0.8810  1.5889  1.2176
18015TIP3    H275537   4.819   5.666  11.637  1.4948 -0.5920  0.8362
18016TIP3   OH275538   4.344   2.652   0.041 -0.1727 -0.3976  0.1648
18016TIP3    H175539   4.361   2.565   0.076 -1.2888  0.0211  1.9236
18016TIP3    H275540   4.399   2.710   0.094 -1.7562  0.2438  1.1773
18017TIP3   OH275541   6.299   5.085   5.425 -0.2401 -0.2522 -0.3168
18017TIP3    H175542   6.274   5.007   5.376  1.0070 -0.3647 -0.8233
18017TIP3    H275543   6.372   5.122   5.375  0.3263  0.2635  0.8498
18018TIP3   OH275544   0.596   5.110  12.962 -0.5016 -0.1311  0.8909
18018TIP3    H175545   0.605   5.163  13.041 -1.6133  0.3982  0.6866
18018TIP3    H275546   0.514   5.140  12.922  0.1391 -0.2328 -0.5765
18019TIP3   OH275547   0.837   2.167   1.572  0.3540 -0.2206  0.1154
18019TIP3    H175548   0.854   2.218   1.652 -0.2288  0.6783 -0.3197
18019TIP3    H275549   0.763   2.111   1.595 -0.1063  0.3602  0.0798
18020TIP3   OH275550   3.949   4.707  11.254  0.1832  0.1456  0.2688
18020TIP3    H175551   3.959   4.613  11.268 -0.9520  0.1373  1.1101
18020TIP3    H275552   3.994   4.748  11.328 -0.9696  0.2201  0.9351
18021TIP3   OH275553   4.947   5.495  16.900  0.3225 -0.5372  0.5928
18021TIP3    H175554   4.953   5.589  16.885  1.1017 -0.7812 -0.7537
18021TIP3    H275555   4.896   5.487  16.981 -0.1657  1.0162  0.4675
18022TIP3   OH275556   4.745   4.689   3.909  0.8110 -0.0167  0.3561
18022TIP3    H175557   4.822   4.664   3.856  1.3043  2.0918 -0.0096
18022TIP3    H275558   4.684   4.727   3.846  0.4301  0.4130  0.9730
18023TIP3   OH275559   1.069   6.495   3.743  0.5360 -0.2833 -0.0634
18023TIP3    H175560   0.976   6.472   3.749  0.2604  0.8654  0.3307
18023TIP3    H275561   1.114   6.411   3.738 -0.6047 -0.8432 -1.6524
18024TIP3   OH275562   2.823   0.083  14.703  0.1187  0.6262 -0.0759
18024TIP3    H175563   2.875   0.002  14.699  1.1663  1.2355  0.9425
18024TIP3    H275564   2.817   0.111  14.612  0.3777 -0.1924 -0.3602
18025TIP3   OH275565   2.273   2.524  14.654 -0.2016  0.4386  0.0287
18025TIP3    H175566   2.326   2.534  14.575 -0.2109  2.1020  0.1957
18025TIP3    H275567   2.238   2.435  14.649  0.8912  0.0561 -1.1462
18026TIP3   OH275568   2.565   4.968  16.338  0.4654 -0.1130  0.9762
18026TIP3    H175569   2.612   5.032  16.392 -0.0627  0.6168  0.5881
18026TIP3    H275570   2.574   4.885  16.385  1.8632  0.0730  1.0813
18027TIP3   OH275571   6.458   6.617   0.918  0.4375 -0.2198 -0.7219
18027TIP3    H175572   6.442   6.644   0.828  1.5510  0.7427 -0.6440
18027TIP3    H275573   6.553   6.607   0.924  0.5499  1.2750  0.7542
18028TIP3   OH275574   3.709   0.857   4.602  0.4493  0.3037  0.0188
18028TIP3    H175575   3.754   0.808   4.670 -0.7548 -0.4821  0.2824
18028TIP3    H275576   3.677   0.790   4.541  2.2195  1.0274 -1.8211
18029TIP3   OH275577   5.947   0.141   3.491 -0.4003  0.3715 -0.2516
18029TIP3    H175578   5.933   0.047   3.482 -2.2326  0.6853 -1.3450
18029TIP3    H275579   5.863   0.180   3.467  0.9586  2.3969 -2.1490
18030TIP3   OH275580   6.291   0.579   0.859  0.0140 -0.1189  0.2589
18030TIP3    H175581   6.229   0.517   0.898  0.5196  0.1910  1.6442
18030TIP3    H275582   6.255   0.598   0.773 -0.9387 -1.1952  0.3881
18031TIP3   OH275583   4.220   2.311   1.824 -0.1984 -0.3884 -0.2690
18031TIP3    H175584   4.184   2.307   1.912 -0.4590  2.3758 -0.1589
18031TIP3    H275585   4.313   2.290   1.835 -0.1132  0.4360  0.7800
18032TIP3   OH275586   1.538   2.527  16.465  0.4854 -0.1342 -0.6200
18032TIP3    H175587   1.447   2.496  16.461  0.7701 -0.8848 -1.6630
18032TIP3    H275588   1.591   2.448  16.459  1.2220  0.2990 -0.0007
18033TIP3   OH275589   1.177   4.765   4.270  0.3865 -0.2257  0.2844
18033TIP3    H175590   1.082   4.757   4.277  0.5456 -1.8221  1.1322
18033TIP3    H275591   1.196   4.747   4.178 -0.0890 -0.4520  0.2291
18034TIP3   OH275592   5.568   3.434   2.206  0.4661  0.0172  0.1041
18034TIP3    H175593   5.660   3.411   2.194  0.0861 -1.7622  0.2875
18034TIP3    H275594   5.564   3.528   2.186  2.3484  0.1969  0.3563
18035TIP3   OH275595   4.106   6.416   0.649  0.0269 -0.1669 -0.0996
18035TIP3    H175596   4.165   6.490   0.640  2.2422 -1.8185  0.0379
18035TIP3    H275597   4.047   6.440   0.720  1.0349  1.2393  0.2963
18036TIP3   OH275598   4.743   4.873   4.954 -0.2685 -0.4401 -0.5671
18036TIP3    H175599   4.659   4.856   4.911  0.4962  1.8619 -3.2440
18036TIP3    H275600   4.809   4.844   4.891  0.9143  1.5438 -0.3380
18037TIP3   OH275601   0.788   3.140   3.941 -0.1434 -0.5389 -0.2632
18037TIP3    H175602   0.730   3.087   3.997  1.1441 -2.7095 -0.8656
18037TIP3    H275603   0.850   3.180   4.002 -1.8855  1.4721  0.3432
18038TIP3   OH275604   3.794   5.696   3.593  0.2434 -0.3063  0.1777
18038TIP3    H175605   3.873   5.726   3.638  0.6833 -1.7761  0.4710
18038TIP3    H275606   3.793   5.744   3.511  0.9441  0.3946  0.5635
18039TIP3   OH275607   3.599   5.524  16.525 -0.0941  0.3561 -0.2635
18039TIP3    H175608   3.670   5.460  16.529 -1.0260 -0.6734  0.4311
18039TIP3    H275609   3.553   5.514  16.609 -1.5407  0.3969 -1.0223
18040TIP3   OH275610   1.552   3.698   1.928 -0.1112 -0.1507  0.9641
18040TIP3    H175611   1.586   3.787   1.933  0.1229 -0.2013  0.3272
18040TIP3    H275612   1.604   3.650   1.993  1.1457 -0.2461 -0.0638
18041TIP3   OH275613   5.287   3.766   3.976  0.4715 -0.2991  0.7085
18041TIP3    H175614   5.231   3.734   3.905 -0.8716  0.7818  1.2554
18041TIP3    H275615   5.264   3.858   3.986  2.3881  0.2044  0.9386
18042TIP3   OH275616   3.123   6.798  12.696 -0.2742  0.2202 -0.2521
18042TIP3    H175617   3.195   6.831  12.749 -0.8631  1.7557 -0.3577
18042TIP3    H275618   3.124   6.853  12.618  0.0225 -1.4281 -1.4496
18043TIP3   OH275619   1.216   0.824  15.217 -0.7614 -0.4590 -0.3290
18043TIP3    H175620   1.236   0.731  15.227  1.2442  0.2126  3.4910
18043TIP3    H275621   1.172   0.849  15.298 -0.3332  2.1375 -0.8089
18044TIP3   OH275622   5.892   6.288   0.653  0.3213  0.2353  0.0068
18044TIP3    H175623   5.986   6.278   0.636  0.5518 -0.7977  1.6669
18044TIP3    H275624   5.887   6.315   0.745 -1.0198 -0.5831  0.2026
18045TIP3   OH275625   2.182   1.132   2.594 -0.3486  0.4428  0.1426
18045TIP3    H175626   2.169   1.087   2.511 -2.9833 -2.1132  1.7529
18045TIP3    H275627   2.242   1.077   2.643 -1.5963 -0.0523  1.1917
18046TIP3   OH275628   3.449   2.691   3.483 -0.3595  0.2010  0.3957
18046TIP3    H175629   3.495   2.664   3.403  3.0249  0.4731  2.0696
18046TIP3    H275630   3.465   2.785   3.489 -1.4969  0.3762  0.8895
18047TIP3   OH275631   0.707   3.497   3.476  0.4032  0.3978 -0.4396
18047TIP3    H175632   0.756   3.553   3.536  1.7525 -0.9252 -0.2277
18047TIP3    H275633   0.722   3.536   3.389 -0.3124  1.4599 -0.0991
18048TIP3   OH275634   0.979   1.263   3.439  0.8778  0.0336 -0.1976
18048TIP3    H175635   0.923   1.234   3.367  0.2879 -1.1844  0.7168
18048TIP3    H275636   1.052   1.200   3.440  1.2988  0.5167 -0.2237
18049TIP3   OH275637   5.163   6.471  16.060  0.4366 -0.4313  0.3550
18049TIP3    H175638   5.178   6.504  16.149 -0.7214 -0.3901  0.5523
18049TIP3    H275639   5.178   6.377  16.066 -0.2059 -0.5188  0.7506
18050TIP3   OH275640   5.687   5.436   5.675  0.4697  0.2535  0.3024
18050TIP3    H175641   5.719   5.438   5.765 -1.1249  1.0418  0.8970
18050TIP3    H275642   5.696   5.526   5.644 -0.2734  0.2882  0.1643
18051TIP3   OH275643   5.065   3.415   4.583  0.3065 -0.6269  0.2305
18051TIP3    H175644   5.024   3.329   4.576  0.9486 -0.8881 -0.4370
18051TIP3    H275645   5.114   3.411   4.665 -0.4649 -0.5382  0.7050
18052TIP3   OH275646   3.699   2.663   5.468 -0.7832 -0.0454  0.0544
18052TIP3    H175647   3.708   2.613   5.549 -1.3704 -0.7989 -0.3266
18052TIP3    H275648   3.696   2.596   5.399 -0.1757  0.5874 -0.6043
18053TIP3   OH275649   5.441   0.945   6.013  0.3794  0.0467 -0.1779
18053TIP3    H175650   5.435   0.869   5.956  1.6234 -1.4074  1.5520
18053TIP3    H275651   5.377   0.929   6.082  0.4588  0.6998  0.0600
18054TIP3   OH275652   6.506   1.559   3.823 -0.0357 -0.5080 -0.0593
18054TIP3    H175653   6.410   1.558   3.824 -0.0347 -0.5613 -0.0143
18054TIP3    H275654   6.531   1.572   3.914 -0.0028 -0.1686 -0.1162
18055TIP3   OH275655   6.020   5.201   5.979  0.1097  0.4853  0.6193
18055TIP3    H175656   6.051   5.289   6.002 -0.7196  1.1820 -0.7359
18055TIP3    H275657   6.031   5.150   6.059  0.9048  1.7403  1.3558
18056TIP3   OH275658   6.781   6.851   5.194 -0.9331 -0.5827  0.1340
18056TIP3    H175659   6.836   6.777   5.217 -0.9879 -0.8050 -0.4404
18056TIP3    H275660   6.787   6.910   5.270 -0.1175 -0.7192  0.1827
18057TIP3   OH275661   0.413   3.531   4.009 -0.0727  0.7539  0.1412
18057TIP3    H175662   0.429   3.603   3.948  0.6026  0.1047 -0.4659
18057TIP3    H275663   0.496   3.482   4.010  0.5779  1.7091  2.9008
18058TIP3   OH275664   0.533   0.232   1.059 -0.6610 -0.1759  0.0840
18058TIP3    H175665   0.445   0.202   1.035 -0.0017 -0.8039 -1.6161
18058TIP3    H275666   0.547   0.311   1.006  0.6781 -1.3906 -1.4643
18059TIP3   OH275667   0.957   4.015   5.732  0.2084  0.2722 -0.3973
18059TIP3    H175668   0.984   3.975   5.649  1.2626  0.8904 -0.3642
18059TIP3    H275669   0.904   3.947   5.775 -2.0143  0.6007 -2.3712
18060TIP3   OH275670   4.450   6.396   0.681 -0.0939  0.2373 -0.5546
18060TIP3    H175671   4.451   6.347   0.763  1.4308 -1.5126 -1.5328
18060TIP3    H275672   4.387   6.349   0.626  0.8463 -0.2327 -1.2558
18061TIP3   OH275673   1.567   0.509  16.840 -0.4852 -0.3345  0.2363
18061TIP3    H175674   1.478   0.511  16.876 -0.1145 -2.0180  1.3515
18061TIP3    H275675   1.593   0.417  16.847  1.0771  0.0097 -0.7570
18062TIP3   OH275676   4.157   1.673  15.467  0.0185  0.1151 -0.1874
18062TIP3    H175677   4.069   1.712  15.463 -0.3674 -0.5940  0.7964
18062TIP3    H275678   4.216   1.744  15.444 -0.8081  0.6406 -0.7530
18063TIP3   OH275679   1.085   6.304   1.133  0.3926  0.3803 -0.2379
18063TIP3    H175680   1.117   6.271   1.217 -0.6247  0.3705  0.1504
18063TIP3    H275681   1.007   6.251   1.115  0.4862  0.5243 -1.0899
18064TIP3   OH275682   1.794   0.585   3.692  0.1107  0.2821 -0.0002
18064TIP3    H175683   1.718   0.599   3.748 -0.0644  1.6040 -0.5300
18064TIP3    H275684   1.864   0.560   3.753 -0.1633  1.3539  0.7971
18065TIP3   OH275685   3.372   4.083   3.792  0.4129  0.6249 -0.0726
18065TIP3    H175686   3.376   4.140   3.715 -1.9351  0.1122 -0.6421
18065TIP3    H275687   3.313   4.128   3.852  0.8722  0.1841  0.7183
18066TIP3   OH275688   2.103   6.447   5.303 -0.3170 -0.1462 -0.5741
18066TIP3    H175689   2.017   6.483   5.325 -0.2471  0.7914 -1.7162
18066TIP3    H275690   2.093   6.417   5.213 -0.6038 -3.8622  0.5380
18067TIP3   OH275691   6.083   6.623  11.425 -0.2935  0.1537  0.4651
18067TIP3    H175692   6.101   6.622  11.519  2.7703  0.2281 -0.0334
18067TIP3    H275693   6.111   6.537  11.393 -0.3060  0.4959 -0.5239
18068TIP3   OH275694   1.689   4.449   5.084 -0.1300  0.4926  0.0080
18068TIP3    H175695   1.718   4.421   5.171  0.8660  1.8728  0.1497
18068TIP3    H275696   1.659   4.539   5.096 -1.0204  0.3366 -0.8850
18069TIP3   OH275697   2.875   0.859   3.637 -0.3349  0.0057  0.1366
18069TIP3    H175698   2.910   0.882   3.723  0.5180  0.6302 -0.3655
18069TIP3    H275699   2.931   0.787   3.607 -1.3129 -0.9608  0.5489
18070TIP3   OH275700   5.073   5.437  10.566 -0.4847  0.1508  0.2776
18070TIP3    H175701   5.155   5.479  10.543 -1.0287  0.3310 -1.4096
18070TIP3    H275702   5.028   5.501  10.621  0.7039 -0.1739  1.6993
18071TIP3   OH275703   1.265   1.582   0.359 -0.2084  0.5549 -0.0345
18071TIP3    H175704   1.226   1.637   0.292  1.7167  2.0030 -0.0664
18071TIP3    H275705   1.297   1.644   0.425  1.0806 -0.5889  0.4603
18072TIP3   OH275706   3.421   4.693  14.413 -0.2724  0.0248  0.1450
18072TIP3    H175707   3.332   4.680  14.378  0.2390 -1.6251 -0.6467
18072TIP3    H275708   3.464   4.749  14.348  0.3106 -2.0749 -1.3960
18073TIP3   OH275709   5.983   2.020  12.281  0.4460 -0.1210  0.4088
18073TIP3    H175710   6.074   1.996  12.263  1.0250 -0.1886  3.0547
18073TIP3    H275711   5.962   1.977  12.364 -2.4606 -1.1483 -0.7059
18074TIP3   OH275712   1.292   3.107   1.333 -0.2475  0.1544 -0.3872
18074TIP3    H175713   1.324   3.163   1.404 -0.1078 -0.6081  0.1747
18074TIP3    H275714   1.222   3.157   1.292  0.7394  1.2909 -0.7635
18075TIP3   OH275715   4.576   3.782  14.089 -0.6670 -0.1655 -0.1078
18075TIP3    H175716   4.659   3.735  14.076 -0.8567 -0.3536 -0.6593
18075TIP3    H275717   4.531   3.732  14.157  0.4510  0.9842  1.5799
18076TIP3   OH275718   4.967   3.022   2.462 -0.2683  0.0637  0.3721
18076TIP3    H175719   5.023   3.097   2.483  2.3061 -1.7402  0.3909
18076TIP3    H275720   4.878   3.056   2.471  0.7043  2.2511  3.6475
18077TIP3   OH275721   4.924   3.521   0.677 -0.2154 -0.0658  0.4596
18077TIP3    H175722   4.911   3.459   0.606 -0.7200  1.6342 -1.0207
18077TIP3    H275723   4.939   3.467   0.754 -2.9885 -2.0993 -0.2538
18078TIP3   OH275724   4.065   1.028   3.222 -0.3009 -0.0740  0.0937
18078TIP3    H175725   3.989   0.996   3.174 -1.4576  1.1012  1.0402
18078TIP3    H275726   4.073   0.969   3.296  0.2076 -0.6687 -0.4307
18079TIP3   OH275727   6.572   6.507   3.621 -0.1323  0.8489 -0.5625
18079TIP3    H175728   6.643   6.463   3.574  1.3052  1.3202  1.0603
18079TIP3    H275729   6.611   6.534   3.704 -2.4886  0.2666  0.8315
18080TIP3   OH275730   6.807   5.068  13.780 -0.0915  0.1374 -0.7918
18080TIP3    H175731   6.829   5.032  13.694 -0.0312  0.3522 -0.8659
18080TIP3    H275732   6.877   5.131  13.799 -1.8262  2.6373 -2.0963
18081TIP3   OH275733   6.069   4.055   1.940  0.5347 -0.3457 -0.1546
18081TIP3    H175734   6.039   4.110   2.012  2.4276  1.6880 -0.7978
18081TIP3    H275735   6.018   4.085   1.864  0.6722 -0.3426 -0.2468
18082TIP3   OH275736   5.940   2.473   3.880 -0.4708 -0.1850  0.1424
18082TIP3    H175737   5.862   2.459   3.826  0.0625  2.3805 -1.4619
18082TIP3    H275738   6.014   2.460   3.820  0.2122  0.7382  0.7473
18083TIP3   OH275739   3.272   6.409  15.800 -0.3863  0.5510 -0.0908
18083TIP3    H175740   3.290   6.420  15.893  0.2902  2.0687 -0.3577
18083TIP3    H275741   3.188   6.453  15.786 -1.5606 -1.5191  0.1407
18084TIP3   OH275742   6.721   6.116   1.951 -0.1327  0.6879  0.8155
18084TIP3    H175743   6.783   6.043   1.948  0.7420  1.4003  1.3385
18084TIP3    H275744   6.762   6.181   2.008 -0.6217  1.8547 -0.1196
18085TIP3   OH275745   5.424   1.471   6.513 -0.0032 -0.4881 -0.1327
18085TIP3    H175746   5.476   1.512   6.581  4.3178 -1.6855 -2.3352
18085TIP3    H275747   5.371   1.406   6.559  1.8331 -0.4600  2.1957
18086TIP3   OH275748   4.836   5.252   1.337 -0.3452  0.1396  0.6431
18086TIP3    H175749   4.893   5.324   1.366  0.1807 -0.3355  0.8208
18086TIP3    H275750   4.781   5.233   1.413 -1.6994  1.5053  0.0272
18087TIP3   OH275751   6.698   3.491   2.834  0.2124  0.2544 -0.3192
18087TIP3    H175752   6.750   3.504   2.754 -0.4071  0.8704 -0.6274
18087TIP3    H275753   6.710   3.399   2.855  2.1821  0.5611  0.1386
18088TIP3   OH275754   6.196   5.823   1.036 -0.0717 -0.0206  0.0113
18088TIP3    H175755   6.136   5.814   1.111  0.7281 -0.4174  0.6148
18088TIP3    H275756   6.187   5.741   0.988 -0.0980 -0.0289  0.0302
18089TIP3   OH275757   1.169   4.313  14.899 -0.4745  0.1458  0.8306
18089TIP3    H175758   1.150   4.327  14.991  3.8567 -2.6676  2.4338
18089TIP3    H275759   1.169   4.218  14.888  1.1751  0.3347 -1.5273
18090TIP3   OH275760   0.687   5.360   3.177  0.2590  0.2992  0.0068
18090TIP3    H175761   0.672   5.307   3.256  0.9500 -0.3241 -0.2742
18090TIP3    H275762   0.777   5.340   3.151  0.4071  1.3321 -0.3254
18091TIP3   OH275763   4.825   5.312  16.358  0.6925  0.9163  1.0000
18091TIP3    H175764   4.743   5.273  16.387  0.5735  0.6555  0.3334
18091TIP3    H275765   4.840   5.275  16.271  0.9256  1.8272  0.6342
18092TIP3   OH275766   1.925   6.009  13.338 -0.2133 -0.7205 -0.3156
18092TIP3    H175767   1.961   5.948  13.402 -0.2394  0.4641  0.8661
18092TIP3    H275768   1.843   6.038  13.377 -0.2316  0.0211 -0.8961
18093TIP3   OH275769   2.330   2.672  15.542 -0.5406  0.1350 -0.1454
18093TIP3    H175770   2.338   2.588  15.497  3.1165 -0.7100  1.6335
18093TIP3    H275771   2.290   2.650  15.626 -1.1970  0.5264 -0.3491
18094TIP3   OH275772   4.860   1.654  11.378 -0.7596 -0.2547 -0.0647
18094TIP3    H175773   4.773   1.638  11.342 -0.7012 -1.6871  0.3531
18094TIP3    H275774   4.894   1.567  11.399  1.4793  0.0916 -1.8044
18095TIP3   OH275775   0.322   6.406   1.936 -0.1989 -0.3624  0.0128
18095TIP3    H175776   0.275   6.323   1.934  0.7595 -1.0023  1.4876
18095TIP3    H275777   0.300   6.443   2.022  0.6511  0.1051  0.0409
18096TIP3   OH275778   2.018   2.545   5.319 -0.2318  0.0439 -0.4789
18096TIP3    H175779   1.943   2.556   5.260 -0.7381  1.5056  0.3834
18096TIP3    H275780   2.066   2.470   5.283 -1.5078 -0.2416 -1.6787
18097TIP3   OH275781   5.845   2.259   6.574  0.7865 -0.5147  0.1917
18097TIP3    H175782   5.827   2.181   6.626  2.4316 -0.7725  0.4262
18097TIP3    H275783   5.932   2.244   6.538  0.4756  0.5243 -1.0595
18098TIP3   OH275784   2.405   2.327   5.868 -0.3492 -0.0267  0.1353
18098TIP3    H175785   2.334   2.263   5.873  1.4751 -2.0435  1.4235
18098TIP3    H275786   2.408   2.366   5.956  1.4212 -1.4527  0.7483
18099TIP3   OH275787   3.288   1.118  12.350  0.0845  0.4516  0.5167
18099TIP3    H175788   3.195   1.138  12.343 -0.4660 -2.2778 -2.2512
18099TIP3    H275789   3.299   1.090  12.441 -1.7136  1.0580  0.9711
18100TIP3   OH275790   3.521   0.054  14.993  0.0898 -0.1756  0.1535
18100TIP3    H175791   3.551  -0.003  14.922  0.6266  2.3498 -1.7466
18100TIP3    H275792   3.598   0.066  15.048  0.3041 -0.3094 -0.1143
18101TIP3   OH275793   1.372   5.965  12.450  0.1967  0.3340 -0.2274
18101TIP3    H175794   1.383   6.060  12.446  1.3609  0.2372  0.2246
18101TIP3    H275795   1.373   5.945  12.544  1.5870 -0.2643 -0.3362
18102TIP3   OH275796   6.254   4.820  11.259  0.1652  0.0971  0.0903
18102TIP3    H175797   6.273   4.904  11.300 -0.1329  0.2699 -0.1249
18102TIP3    H275798   6.250   4.839  11.165 -1.5191  0.1629  0.1464
18103TIP3   OH275799   6.067   3.659  13.851  0.0721 -0.4586 -0.2409
18103TIP3    H175800   6.124   3.603  13.798 -0.2471 -1.6873  0.6562
18103TIP3    H275801   6.016   3.597  13.903 -1.7331  0.6161 -0.6516
18104TIP3   OH275802   1.173   6.312  12.367 -0.4298 -0.2200  0.0108
18104TIP3    H175803   1.210   6.398  12.388 -0.8004  0.1291 -0.7531
18104TIP3    H275804   1.209   6.290  12.282 -1.8819  0.0858 -0.7132
18105TIP3   OH275805   2.622   3.669  14.047  0.3202  0.2963  0.2907
18105TIP3    H175806   2.644   3.593  14.102 -1.0161 -0.3013  0.0364
18105TIP3    H275807   2.610   3.632  13.959  2.3718  1.2325 -0.4521
18106TIP3   OH275808   6.590   4.704  16.817 -0.0429  0.2212 -0.5925
18106TIP3    H175809   6.566   4.792  16.786 -0.7329  0.0668 -0.5161
18106TIP3    H275810   6.587   4.650  16.738  1.1847  0.4121 -0.7917
18107TIP3   OH275811   6.059   4.199  16.217  0.1228 -0.6052  0.0787
18107TIP3    H175812   5.968   4.227  16.210 -0.0931 -1.5401 -1.3339
18107TIP3    H275813   6.058   4.131  16.284 -0.0998 -0.1605  0.5291
18108TIP3   OH275814   6.469   4.186  14.175  0.2843 -0.1368 -0.4928
18108TIP3    H175815   6.522   4.148  14.104  0.9118  1.7529 -1.0994
18108TIP3    H275816   6.405   4.118  14.197  2.6889 -2.4025  0.0119
18109TIP3   OH275817   3.206   5.611   2.383  0.4845  0.3437 -0.3282
18109TIP3    H175818   3.137   5.603   2.317  1.3139  1.1367 -1.3352
18109TIP3    H275819   3.262   5.535   2.369  0.2568  0.1188 -0.0335
18110TIP3   OH275820   0.757   3.610   2.377  0.2700 -0.2840 -0.0782
18110TIP3    H175821   0.788   3.686   2.327 -0.2581  0.0552  0.1040
18110TIP3    H275822   0.696   3.566   2.318  0.8260 -0.7626 -0.3093
18111TIP3   OH275823   4.224   5.286   1.129  0.1581 -0.4793  0.1514
18111TIP3    H175824   4.178   5.244   1.202 -0.9398 -1.8719 -1.2707
18111TIP3    H275825   4.178   5.369   1.116  0.2830 -0.2793  0.9522
18112TIP3   OH275826   1.656   2.985  16.968 -0.5510  0.7991  0.8139
18112TIP3    H175827   1.655   3.070  16.924 -0.9304  0.1939 -0.3983
18112TIP3    H275828   1.748   2.964  16.979 -0.4374  0.8647  0.0701
18113TIP3   OH275829   3.332   6.618   0.201  0.1168 -0.3972 -0.1692
18113TIP3    H175830   3.272   6.604   0.275  0.3536  0.3006  0.1560
18113TIP3    H275831   3.388   6.690   0.228  0.9140 -0.8417 -0.5990
18114TIP3   OH275832   4.795   3.500   6.285  0.6424 -0.0572  0.1939
18114TIP3    H175833   4.802   3.566   6.355 -0.0638  1.7310 -1.3279
18114TIP3    H275834   4.873   3.514   6.231  1.1884 -1.4314  0.5849
18115TIP3   OH275835   5.674   1.496  12.273 -0.7799 -0.4193  0.1124
18115TIP3    H175836   5.683   1.471  12.181 -0.7879 -0.8559  0.2282
18115TIP3    H275837   5.629   1.422  12.314 -0.0861 -0.5764  0.6250
18116TIP3   OH275838   0.235   6.135   6.472  0.4504 -0.1214  0.2454
18116TIP3    H175839   0.210   6.192   6.545  1.1061  1.8709 -1.0009
18116TIP3    H275840   0.325   6.162   6.451  0.3910 -0.9028 -1.0742
18117TIP3   OH275841   0.608   4.157   1.189 -0.1309 -0.0740 -0.1480
18117TIP3    H175842   0.595   4.230   1.128 -0.9129  0.7801  0.9919
18117TIP3    H275843   0.527   4.153   1.239 -0.1331 -1.8003 -0.2222
18118TIP3   OH275844   2.100   3.490   3.400 -0.0942  0.7676 -0.2392
18118TIP3    H175845   2.195   3.491   3.414  0.1497 -0.1726 -1.6616
18118TIP3    H275846   2.084   3.413   3.346 -1.7907  0.4499  0.6455
18119TIP3   OH275847   4.003   6.865   5.549 -0.2530 -0.1131 -0.0798
18119TIP3    H175848   3.951   6.824   5.480  1.0465  2.4544 -2.8222
18119TIP3    H275849   4.086   6.817   5.548 -0.7706 -1.0857  0.8990
18120TIP3   OH275850   4.018   5.406  13.433  0.2611 -0.1978 -0.7058
18120TIP3    H175851   4.098   5.380  13.479  1.3021 -1.0116 -2.8555
18120TIP3    H275852   3.977   5.324  13.407 -2.1452  0.1324  1.5730
18121TIP3   OH275853   3.317   1.481  16.871 -0.4727 -0.4310 -0.0081
18121TIP3    H175854   3.309   1.401  16.924  3.2021  0.9331  3.0309
18121TIP3    H275855   3.411   1.489  16.855 -0.8424  2.7234 -1.1360
18122TIP3   OH275856   2.051   5.825   0.972 -0.1381  0.6052 -0.2845
18122TIP3    H175857   2.064   5.914   1.006 -1.8330  0.2606  1.4568
18122TIP3    H275858   2.106   5.770   1.028  0.4050  0.4628 -0.9438
18123TIP3   OH275859   2.856   2.638   2.185  0.4940 -0.0139 -0.4467
18123TIP3    H175860   2.853   2.553   2.141  1.4990  0.5532 -1.6885
18123TIP3    H275861   2.903   2.622   2.267  0.5925 -0.6737 -0.6289
18124TIP3   OH275862   2.865   3.688  14.945 -0.2950 -0.2753 -0.4241
18124TIP3    H175863   2.789   3.639  14.976 -0.0210 -0.4643 -0.0396
18124TIP3    H275864   2.863   3.679  14.850  0.5109 -2.1858 -0.2971
18125TIP3   OH275865   3.241   1.038  12.049 -0.0421  0.6957  0.3733
18125TIP3    H175866   3.271   1.039  12.140  2.9084  0.1832 -0.4820
18125TIP3    H275867   3.243   1.130  12.022  2.5837  0.6058 -0.0808
18126TIP3   OH275868   0.440   3.386  11.566  0.4400  0.6758  0.0016
18126TIP3    H175869   0.380   3.340  11.506 -1.3307 -1.9154  3.4112
18126TIP3    H275870   0.517   3.329  11.571  0.7246  1.0515 -0.0292
18127TIP3   OH275871   4.818   1.374  16.813 -0.0486 -0.0122 -0.1832
18127TIP3    H175872   4.800   1.423  16.733  0.2857  1.0006  0.3479
18127TIP3    H275873   4.904   1.334  16.798  0.1546  0.4296 -0.2119
18128TIP3   OH275874   5.002   6.521   1.876  0.1270 -0.2599  0.2954
18128TIP3    H175875   5.091   6.493   1.855  0.8285  2.1801 -0.2086
18128TIP3    H275876   4.980   6.586   1.810 -3.1042 -2.5898 -1.2109
18129TIP3   OH275877   2.563   4.240   0.431 -0.6802 -0.3726 -1.0017
18129TIP3    H175878   2.513   4.264   0.352 -0.2574  0.7051 -0.9583
18129TIP3    H275879   2.654   4.252   0.406 -0.5175 -0.6338 -0.5341
18130TIP3   OH275880   6.800   6.346   0.355  0.1978  0.6940  0.1719
18130TIP3    H175881   6.815   6.333   0.449  0.2710  0.0196  0.0707
18130TIP3    H275882   6.713   6.308   0.340  0.4201  0.3131 -0.1384
18131TIP3   OH275883   2.426   1.084  12.759 -0.0790 -0.6954  0.3145
18131TIP3    H175884   2.401   1.134  12.837  0.7535  1.3528 -0.6563
18131TIP3    H275885   2.425   0.993  12.788  1.7146  0.0577  3.2058
18132TIP3   OH275886   1.784   0.127   6.138  0.0298  0.2183 -0.2540
18132TIP3    H175887   1.748   0.164   6.057 -0.1249 -0.5267 -0.5307
18132TIP3    H275888   1.717   0.066   6.169  0.6863 -0.5655 -0.3302
18133TIP3   OH275889   1.350   3.129   2.190  0.6615 -0.8466  0.2164
18133TIP3    H175890   1.306   3.209   2.219  0.8354 -0.3663 -0.8119
18133TIP3    H275891   1.334   3.066   2.260  0.0482 -0.0798  0.7796
18134TIP3   OH275892   6.733   6.166   4.363  0.2581  0.0196  0.0675
18134TIP3    H175893   6.666   6.158   4.296  0.7391 -1.1098 -0.2958
18134TIP3    H275894   6.807   6.206   4.319  0.8262 -1.3673 -0.2880
18135TIP3   OH275895   4.652   6.065  13.257  0.1699  0.4643 -0.6579
18135TIP3    H175896   4.697   5.988  13.291  0.6809 -0.2461 -2.7758
18135TIP3    H275897   4.597   6.095  13.329  0.9445 -1.0955  0.6368
18136TIP3   OH275898   3.135   5.208  15.080  0.2886 -0.3859  0.2113
18136TIP3    H175899   3.195   5.184  15.150  0.8956  2.2636  0.7147
18136TIP3    H275900   3.166   5.294  15.051 -0.6372 -0.8823 -2.5467
18137TIP3   OH275901   1.370   3.838  14.836  0.4391  0.3298 -0.1476
18137TIP3    H175902   1.393   3.793  14.754  0.2430  0.5839 -0.3446
18137TIP3    H275903   1.392   3.775  14.905 -0.3802 -0.3120 -0.4513
18138TIP3   OH275904   2.477   0.252   1.438 -0.2027  0.0019 -0.4715
18138TIP3    H175905   2.552   0.273   1.492 -1.6720  0.0297  1.6972
18138TIP3    H275906   2.476   0.156   1.434 -0.5964 -0.0449  0.3976
18139TIP3   OH275907   2.858   5.730   2.737 -0.3264 -0.3286  0.4955
18139TIP3    H175908   2.806   5.796   2.690 -0.7882 -1.1603 -0.1770
18139TIP3    H275909   2.946   5.769   2.743 -0.0580 -0.4860 -1.7315
18140TIP3   OH275910   5.506   1.675  16.013 -0.3685 -0.2551 -0.4446
18140TIP3    H175911   5.517   1.613  16.085 -0.4106 -1.5729 -1.5306
18140TIP3    H275912   5.551   1.754  16.043 -0.9529 -0.5228  1.2903
18141TIP3   OH275913   1.120   4.472  15.944 -0.4520 -0.1448  0.2240
18141TIP3    H175914   1.213   4.451  15.952 -0.7535 -1.6270  0.0969
18141TIP3    H275915   1.118   4.547  15.885  0.5396 -1.4890 -1.6035
18142TIP3   OH275916   5.817   2.832  10.813 -0.4725  0.0865  0.2300
18142TIP3    H175917   5.818   2.776  10.891  1.9615  0.9991  0.9388
18142TIP3    H275918   5.866   2.783  10.748 -1.1110  0.0333 -0.2198
18143TIP3   OH275919   5.659   6.321  14.216  0.3661  0.3358 -0.6996
18143TIP3    H175920   5.581   6.371  14.238  0.9217  0.4873  1.1377
18143TIP3    H275921   5.627   6.246  14.166 -0.9044  0.6349 -0.3605
18144TIP3   OH275922   4.448   5.282  15.907  0.0159  1.1238  0.1572
18144TIP3    H175923   4.373   5.341  15.901 -0.2216  0.7055 -2.0562
18144TIP3    H275924   4.501   5.303  15.830  0.7125 -0.5015  0.1461
18145TIP3   OH275925   2.868   3.026  12.035  0.2166  0.0598  0.0045
18145TIP3    H175926   2.852   3.120  12.042 -0.0346 -0.1127  2.6100
18145TIP3    H275927   2.949   3.019  11.984 -0.2618  1.6157 -1.0255
18146TIP3   OH275928   1.620   4.218  11.904  0.2748 -0.0163 -0.3036
18146TIP3    H175929   1.638   4.134  11.946 -0.3315 -0.6359 -1.2520
18146TIP3    H275930   1.622   4.199  11.810 -1.3597  0.7036 -0.5189
18147TIP3   OH275931   5.625   0.220   0.869 -0.0925 -0.5576 -0.1151
18147TIP3    H175932   5.557   0.194   0.806  1.0223 -1.2878 -1.0572
18147TIP3    H275933   5.672   0.290   0.824  0.6122 -0.9789 -0.0392
18148TIP3   OH275934   5.298   1.973  12.461 -0.1266 -0.0186  0.2406
18148TIP3    H175935   5.314   2.067  12.464  0.8461 -0.1159 -1.2078
18148TIP3    H275936   5.239   1.957  12.535 -1.1936  1.8764 -0.1297
18149TIP3   OH275937   5.352   5.141  16.576 -0.5827  0.4200  0.4523
18149TIP3    H175938   5.264   5.161  16.606  0.1486  1.4187  2.0867
18149TIP3    H275939   5.365   5.197  16.499 -0.2878  2.8044  2.1246
18150TIP3   OH275940   4.835   0.327   3.840  0.2662  0.2593  0.8660
18150TIP3    H175941   4.887   0.310   3.919  0.3589 -2.4529  0.3129
18150TIP3    H275942   4.871   0.268   3.774 -0.2884  1.9385 -1.0324
18151TIP3   OH275943   2.030   6.643  16.123 -0.7793  1.0419  0.3453
18151TIP3    H175944   2.073   6.643  16.038  0.0237 -1.3483  0.6692
18151TIP3    H275945   2.089   6.691  16.180  0.1719  0.0976  0.1810
18152TIP3   OH275946   6.373   2.538   3.270  0.1793  0.4209 -0.3727
18152TIP3    H175947   6.406   2.627   3.263  2.7026 -0.4004  0.0074
18152TIP3    H275948   6.397   2.510   3.358 -1.2093 -0.4257 -0.2244
18153TIP3   OH275949   6.682   5.628  11.010  0.0799  0.5526 -0.2771
18153TIP3    H175950   6.753   5.677  10.968  0.8695 -0.1614  0.2050
18153TIP3    H275951   6.657   5.562  10.945 -1.9520  2.3703 -1.5249
18154TIP3   OH275952   4.084   1.838  12.928 -0.0121  0.1543 -0.6093
18154TIP3    H175953   4.095   1.927  12.896 -1.6488  1.0110  1.0025
18154TIP3    H275954   3.996   1.812  12.900  0.1346 -0.6361 -0.3789
18155TIP3   OH275955   3.335   3.126  15.944 -0.1969 -0.4616 -0.0990
18155TIP3    H175956   3.352   3.061  16.013 -0.0969 -0.9834 -0.5974
18155TIP3    H275957   3.379   3.089  15.867 -2.2377 -1.0529 -1.0398
18156TIP3   OH275958   6.828   5.926  13.837 -0.1505  0.3864  0.0865
18156TIP3    H175959   6.832   5.939  13.932  0.7780  1.4343 -0.0741
18156TIP3    H275960   6.747   5.968  13.810  0.3057  1.3998  0.2475
18157TIP3   OH275961   5.273   2.454   0.210 -0.1962 -0.0338  0.0202
18157TIP3    H175962   5.190   2.491   0.240 -0.1137  0.2840 -0.1445
18157TIP3    H275963   5.247   2.382   0.152 -0.3560 -0.0471  0.1077
18158TIP3   OH275964   4.113   0.671   0.822 -0.4564 -0.4908  0.8457
18158TIP3    H175965   4.188   0.654   0.879  0.2955  0.7723  0.2811
18158TIP3    H275966   4.045   0.705   0.881  0.2976  0.7616  1.0324
18159TIP3   OH275967   0.597   6.332   1.971  0.0140 -0.0737  0.0862
18159TIP3    H175968   0.588   6.320   2.066 -0.8185 -0.7391 -0.0681
18159TIP3    H275969   0.516   6.298   1.934 -0.1527  1.2200 -0.7982
18160TIP3   OH275970   4.221   5.919   2.960 -0.0504  0.3494  0.3011
18160TIP3    H175971   4.155   5.932   2.892 -0.6182  2.5559  1.2073
18160TIP3    H275972   4.284   5.990   2.947  0.2920  0.2999  1.5503
18161TIP3   OH275973   6.496   4.120  11.561  0.6721  0.3464 -0.7259
18161TIP3    H175974   6.473   4.059  11.632  1.0937 -0.1436 -1.0093
18161TIP3    H275975   6.412   4.140  11.519  0.6009 -0.4545 -0.9697
18162TIP3   OH275976   3.263   0.437  16.155 -0.1061  0.5499  0.3424
18162TIP3    H175977   3.273   0.449  16.061 -2.1453 -1.2371 -0.1869
18162TIP3    H275978   3.168   0.434  16.169  0.0935  2.3025  2.7147
18163TIP3   OH275979   0.884   0.327  12.093 -0.0089  0.5681 -0.0010
18163TIP3    H175980   0.799   0.296  12.126 -0.4288 -0.6722 -2.0828
18163TIP3    H275981   0.944   0.254  12.110  0.4389  1.0789  0.6347
18164TIP3   OH275982   1.258   2.467   0.508  0.1502  0.0946 -0.3103
18164TIP3    H175983   1.249   2.372   0.494  0.0728 -0.1769  1.4080
18164TIP3    H275984   1.170   2.502   0.493  0.3989  0.0787 -2.0208
18165TIP3   OH275985   5.012   5.730   3.294 -0.2088  0.7004  0.2935
18165TIP3    H175986   4.968   5.757   3.213 -2.0704  0.1794  1.0867
18165TIP3    H275987   4.941   5.723   3.358  0.8690 -1.3833  1.3258
18166TIP3   OH275988   3.966   2.402   0.419  0.2411  0.4649 -0.1894
18166TIP3    H175989   3.956   2.479   0.364 -2.0225  0.6206  0.3383
18166TIP3    H275990   3.896   2.410   0.484  0.2368 -1.8006  0.1526
18167TIP3   OH275991   5.617   4.131  16.973  0.0329 -0.1365  0.4915
18167TIP3    H175992   5.617   4.036  16.989  0.0864 -0.1167  0.6167
18167TIP3    H275993   5.700   4.147  16.927  0.6124  0.0156  1.5428
18168TIP3   OH275994   1.762   1.502   0.312  0.3511  0.1868 -0.5505
18168TIP3    H175995   1.713   1.584   0.316 -2.7921 -1.5182 -1.2872
18168TIP3    H275996   1.735   1.462   0.230  2.3216 -1.3458 -0.5278
18169TIP3   OH275997   2.076   1.604  14.153 -0.3358 -0.0745 -0.3025
18169TIP3    H175998   2.132   1.677  14.128  0.8052 -0.6859  0.3381
18169TIP3    H275999   2.001   1.644  14.197  0.7508  0.6846  0.9212
18170TIP3   OH276000   0.232   6.115   0.316 -0.7583 -0.2798 -0.1639
18170TIP3    H176001   0.197   6.173   0.248  0.4849 -0.3187 -0.8807
18170TIP3    H276002   0.306   6.071   0.273  0.3134 -0.0127  1.3408
18171TIP3   OH276003   1.362   5.510   2.498 -0.2034  0.6016 -0.1378
18171TIP3    H176004   1.304   5.572   2.455  0.3509  1.1573 -0.0946
18171TIP3    H276005   1.357   5.532   2.591  0.2802  0.8347 -0.1624
18172TIP3   OH276006   0.756   4.087  11.291 -0.0989  0.5496 -0.8047
18172TIP3    H176007   0.708   4.161  11.329 -2.2217 -1.2597  0.2299
18172TIP3    H276008   0.795   4.123  11.212 -0.8583  2.8341 -0.2375
18173TIP3   OH276009   0.817   0.073   3.904  0.5768  0.4619  0.4893
18173TIP3    H176010   0.810   0.115   3.990  2.6511  0.5550  0.6570
18173TIP3    H276011   0.812   0.146   3.841 -2.8825  0.2386  0.3296
18174TIP3   OH276012   0.631   4.357  12.393 -0.1279  0.6603  0.4899
18174TIP3    H176013   0.598   4.447  12.390 -1.4601  0.2410  1.3863
18174TIP3    H276014   0.715   4.364  12.438  0.1157  1.5451 -0.0835
18175TIP3   OH276015   1.892   6.151   0.036 -0.2936 -0.3039 -0.1210
18175TIP3    H176016   1.847   6.235   0.029 -1.0387 -0.6903 -0.0837
18175TIP3    H276017   1.890   6.130   0.130  0.6520  0.0353 -0.0126
18176TIP3   OH276018   2.785   3.956  14.269 -0.2719 -0.4209  0.1617
18176TIP3    H176019   2.835   3.909  14.201 -1.8147 -1.6463 -0.1960
18176TIP3    H276020   2.787   4.047  14.241  3.7465  0.0880  1.4389
18177TIP3   OH276021   1.265   4.956   5.736  0.2536 -0.1065 -0.0008
18177TIP3    H176022   1.211   4.883   5.766 -0.3041 -0.4400 -1.6889
18177TIP3    H276023   1.339   4.914   5.691  0.8308  0.3654  0.4985
18178TIP3   OH276024   4.466   0.345  15.372  0.1326 -0.3700  0.3391
18178TIP3    H176025   4.557   0.332  15.343 -0.4126 -0.6808 -1.3166
18178TIP3    H276026   4.463   0.437  15.400  0.9492 -0.3604  0.4328
18179TIP3   OH276027   5.264   4.021  15.943 -0.1289 -0.2676  0.0628
18179TIP3    H176028   5.339   3.984  15.987  1.7907  1.5526 -1.4387
18179TIP3    H276029   5.266   4.114  15.966 -2.5317 -0.3247  0.7540
18180TIP3   OH276030   5.043   4.165  11.288 -0.1905 -0.2514  0.1375
18180TIP3    H176031   4.951   4.170  11.315 -0.6050  0.2745 -1.2791
18180TIP3    H276032   5.040   4.166  11.192  1.2507 -1.1981  0.0539
18181TIP3   OH276033   2.750   6.178  11.172  0.5812  0.0107 -0.3243
18181TIP3    H176034   2.679   6.118  11.145  0.3681  0.7633 -1.4994
18181TIP3    H276035   2.805   6.186  11.094 -0.0184  2.2263 -0.5608
18182TIP3   OH276036   5.211   4.291  16.404 -0.5366  0.0648  0.3970
18182TIP3    H176037   5.271   4.297  16.329 -0.7682  0.6609  0.2504
18182TIP3    H276038   5.210   4.380  16.440 -1.0787 -0.0205  0.5982
18183TIP3   OH276039   5.471   2.287   1.538  0.4927 -0.0348 -0.6347
18183TIP3    H176040   5.502   2.253   1.454  0.8874  1.2370 -1.0366
18183TIP3    H276041   5.546   2.278   1.597  0.4188 -0.3553 -0.5898
18184TIP3   OH276042   1.038   5.391  16.577  0.3802  0.4602 -0.5405
18184TIP3    H176043   1.008   5.314  16.625  2.3473 -0.9582 -1.4365
18184TIP3    H276044   0.959   5.426  16.536 -0.6369 -0.8422  0.2468
18185TIP3   OH276045   2.498   4.604   4.370  0.1416 -0.4682  0.6211
18185TIP3    H176046   2.562   4.651   4.317 -0.8533 -1.1655 -1.2906
18185TIP3    H276047   2.415   4.649   4.353 -0.4270 -1.5254  0.5277
18186TIP3   OH276048   1.314   0.166  14.773 -0.1312  0.0391 -0.4429
18186TIP3    H176049   1.356   0.226  14.711  1.3344  0.3141  0.7516
18186TIP3    H276050   1.370   0.169  14.850  0.5116 -3.5291 -0.6227
18187TIP3   OH276051   1.789   3.714   5.777 -0.7296 -0.1203  0.0801
18187TIP3    H176052   1.705   3.714   5.824 -0.2851  0.4525  0.8803
18187TIP3    H276053   1.850   3.673   5.838 -0.3777 -0.3642 -0.4307
18188TIP3   OH276054   2.627   1.404   4.615 -0.1115  0.1372  0.4775
18188TIP3    H176055   2.553   1.353   4.650  0.9708  0.2764  3.2568
18188TIP3    H276056   2.590   1.451   4.540 -2.6735 -0.3072  1.3381
18189TIP3   OH276057   0.384   6.302  15.864 -0.2249 -0.1922 -0.4236
18189TIP3    H176058   0.374   6.279  15.772  2.3945 -0.0161 -0.8354
18189TIP3    H276059   0.448   6.374  15.864  2.1164 -2.1035  1.6472
18190TIP3   OH276060   1.202   1.048   0.435 -0.2602  0.1587  0.0725
18190TIP3    H176061   1.234   1.073   0.522  0.8125 -0.4278 -0.1333
18190TIP3    H276062   1.120   1.096   0.425  1.1504  2.7968  0.1204
18191TIP3   OH276063   1.106   3.008   2.951 -0.1810 -0.3582 -0.0354
18191TIP3    H176064   1.148   3.021   3.036  0.1285  2.8479 -0.5488
18191TIP3    H276065   1.022   2.968   2.972  0.9875 -2.2325  1.4547
18192TIP3   OH276066   3.374   3.320  12.462 -0.4306 -0.0369 -0.0471
18192TIP3    H176067   3.397   3.407  12.430 -0.1812 -0.3566 -0.7651
18192TIP3    H276068   3.343   3.334  12.551 -1.0217  0.8659 -0.3855
18193TIP3   OH276069   5.658   1.622   2.132  0.7804  0.0508 -0.1859
18193TIP3    H176070   5.666   1.575   2.049 -1.3234  0.0696 -0.4595
18193TIP3    H276071   5.647   1.553   2.197 -0.2957  0.0889 -0.3140
18194TIP3   OH276072   0.024   1.674  14.381 -0.4272  0.0137  0.0566
18194TIP3    H176073   0.037   1.668  14.476  0.2554 -0.0259 -0.0403
18194TIP3    H276074   0.082   1.744  14.353 -0.1769 -0.3753 -0.4160
18195TIP3   OH276075   0.091   3.254  14.079  0.3587  0.0887  0.0289
18195TIP3    H176076   0.065   3.246  14.170 -0.2099  1.3482 -0.0062
18195TIP3    H276077   0.037   3.190  14.032  0.3187 -0.2293  0.5114
18196TIP3   OH276078   0.615   6.360   6.233 -0.0236 -0.2265 -0.4024
18196TIP3    H176079   0.677   6.429   6.255  0.2976 -0.8492  0.7154
18196TIP3    H276080   0.530   6.405   6.227  0.2521  0.3379 -0.1733
18197TIP3   OH276081   0.395   2.435  15.848  0.4939 -0.0495 -0.0807
18197TIP3    H176082   0.434   2.396  15.769 -1.1824 -0.0440 -0.9740
18197TIP3    H276083   0.301   2.425  15.834  0.0731 -3.3975  3.5874
18198TIP3   OH276084   3.495   2.154   5.733 -0.1391  0.4519 -0.1867
18198TIP3    H176085   3.452   2.091   5.791  4.1428 -1.0886  1.7735
18198TIP3    H276086   3.541   2.100   5.669  0.3779  1.8499 -1.0381
18199TIP3   OH276087   1.148   1.968  11.767  0.7102 -0.0088  0.4531
18199TIP3    H176088   1.140   1.901  11.699  2.7787 -2.7867  2.6963
18199TIP3    H276089   1.229   2.014  11.747  0.0642  0.8992 -0.2232
18200TIP3   OH276090   5.064   3.469   6.493 -0.4546 -0.0072 -0.1613
18200TIP3    H176091   5.132   3.481   6.427 -1.7507 -0.5687 -1.6641
18200TIP3    H276092   5.100   3.405   6.554 -0.3867 -1.9448 -2.1183
18201TIP3   OH276093   6.412   3.381   4.300 -0.0253  0.4319  0.1815
18201TIP3    H176094   6.426   3.466   4.258 -0.4412  0.7172  0.6079
18201TIP3    H276095   6.456   3.318   4.243 -1.5137  0.6595 -1.3120
18202TIP3   OH276096   0.723   0.044   5.768  1.0147  0.4751  0.3499
18202TIP3    H176097   0.628   0.045   5.757  0.8832 -0.1687  1.2951
18202TIP3    H276098   0.747   0.136   5.777  0.2404  0.5540  1.8498
18203TIP3   OH276099   5.533   0.369  11.247 -0.2337  0.0705 -0.2934
18203TIP3    H176100   5.524   0.345  11.155  1.1138 -1.7107 -0.0159
18203TIP3    H276101   5.526   0.286  11.295 -1.0255  0.9640  1.2424
18204TIP3   OH276102   1.585   2.837  15.727  0.5995  0.0020  0.2845
18204TIP3    H176103   1.568   2.888  15.648  1.3970  0.0762  0.1517
18204TIP3    H276104   1.644   2.891  15.780 -0.2774  0.1449  1.1448
18205TIP3   OH276105   5.893   3.001   1.918 -0.7633  0.1347 -0.4119
18205TIP3    H176106   5.871   3.080   1.968  2.8781  1.7453 -1.0972
18205TIP3    H276107   5.882   3.026   1.827 -1.5729 -0.8681 -0.6080
18206TIP3   OH276108   1.373   3.517   0.646 -0.4810 -0.1691  0.3076
18206TIP3    H176109   1.314   3.452   0.684 -0.3971 -0.8781 -0.7373
18206TIP3    H276110   1.320   3.563   0.580 -0.2450  0.1108  0.3073
18207TIP3   OH276111   2.426   4.214  12.322  0.7653  0.1546  0.2162
18207TIP3    H176112   2.474   4.224  12.240  0.4811 -0.7897 -0.0796
18207TIP3    H276113   2.488   4.242  12.389  0.7995  1.5014 -0.3479
18208TIP3   OH276114   6.854   5.954  13.472 -0.0717 -0.2345 -0.5902
18208TIP3    H176115   6.831   6.043  13.499  1.1551 -0.5964  1.9197
18208TIP3    H276116   6.775   5.903  13.488 -0.1617  0.0577 -0.0707
18209TIP3   OH276117   1.637   2.046  16.145 -0.0041  0.4641  0.2778
18209TIP3    H176118   1.599   1.962  16.169 -0.8712  1.1794  1.4598
18209TIP3    H276119   1.567   2.109  16.157  1.2813  1.6903  1.6325
18210TIP3   OH276120   4.494   2.090   6.014  0.3778 -0.6521 -0.1568
18210TIP3    H176121   4.429   2.116   6.078  2.4180 -0.9659  2.1890
18210TIP3    H276122   4.575   2.133   6.042  1.2722 -0.3472 -2.8822
18211TIP3   OH276123   2.523   3.353  16.038  0.5849 -0.4074  0.2087
18211TIP3    H176124   2.456   3.343  16.106  0.4556 -1.9765 -0.1066
18211TIP3    H276125   2.525   3.268  15.994  2.3483 -0.2038 -0.1945
18212TIP3   OH276126   1.331   4.515  11.362  0.2935  0.2973  0.0047
18212TIP3    H176127   1.330   4.483  11.272  0.2764 -1.6428  0.6545
18212TIP3    H276128   1.256   4.472  11.404 -2.0241  3.9862  0.1048
18213TIP3   OH276129   0.906   2.614  11.119 -0.3741  0.3404 -0.2360
18213TIP3    H176130   0.883   2.573  11.202 -0.0515  1.6444  0.5216
18213TIP3    H276131   0.831   2.597  11.062 -1.2402  0.6640  0.7801
18214TIP3   OH276132   5.557   3.261  11.123  0.2485  0.6358 -0.2816
18214TIP3    H176133   5.490   3.196  11.144  0.6600  0.9824  2.5636
18214TIP3    H276134   5.638   3.210  11.119  0.1125  0.5009 -1.7309
18215TIP3   OH276135   2.538   6.000  16.424  0.6675 -0.2119  0.0013
18215TIP3    H176136   2.454   5.957  16.437  1.1458 -2.2090 -2.5736
18215TIP3    H276137   2.603   5.933  16.446  1.4574 -0.5464 -2.9370
18216TIP3   OH276138   6.160   6.738   3.229  0.2124  0.1054 -0.0005
18216TIP3    H176139   6.194   6.825   3.254  1.3165  0.1176 -1.4118
18216TIP3    H276140   6.232   6.697   3.181 -0.7550 -1.0876 -0.4901
18217TIP3   OH276141   0.028   0.688  16.012  0.0222 -0.1622 -0.1609
18217TIP3    H176142   0.081   0.725  15.941 -0.9858  1.3907 -0.1733
18217TIP3    H276143  -0.051   0.656  15.968 -0.7334  1.0595  0.2359
18218TIP3   OH276144   3.755   0.006   6.059  0.8691  0.2295 -0.3538
18218TIP3    H176145   3.831   0.047   6.100  1.2245 -1.2497  0.5709
18218TIP3    H276146   3.683   0.021   6.121  0.2367  2.0219 -1.4360
18219TIP3   OH276147   3.221   5.417  11.841  0.3396  0.0770  0.4683
18219TIP3    H176148   3.269   5.385  11.918 -0.3873 -2.4844 -0.0353
18219TIP3    H276149   3.146   5.358  11.834 -0.0157  0.7105 -1.7669
18220TIP3   OH276150   0.411   4.177  16.640  0.4371  0.3717 -0.4001
18220TIP3    H176151   0.488   4.230  16.620  1.4931  0.0543  2.2507
18220TIP3    H276152   0.423   4.153  16.733 -1.3706 -2.1552 -0.7049
18221TIP3   OH276153   3.493   3.443  11.542  0.3790  0.3033 -0.6161
18221TIP3    H176154   3.409   3.430  11.497 -0.6829  0.2027  1.2825
18221TIP3    H276155   3.503   3.538  11.547 -0.2305  0.3484  0.1278
18222TIP3   OH276156   1.895   5.324  14.795  0.3740 -0.0919  0.8294
18222TIP3    H176157   1.804   5.329  14.824  0.3086  0.1885  0.5764
18222TIP3    H276158   1.907   5.232  14.771 -0.1905  0.1033 -0.2485
18223TIP3   OH276159   2.685   6.829  13.642 -0.3856  0.6938 -0.3629
18223TIP3    H176160   2.627   6.866  13.575 -1.3459 -0.9203 -0.4697
18223TIP3    H276161   2.770   6.871  13.625 -0.8267  1.0144 -1.9980
18224TIP3   OH276162   6.654   4.360   2.390  0.5085 -0.4258 -0.0991
18224TIP3    H176163   6.565   4.329   2.376  0.3463 -0.8357  1.6181
18224TIP3    H276164   6.693   4.295   2.449  2.4703 -1.1046 -1.9687
18225TIP3   OH276165   2.437   3.604   2.492 -0.0712 -0.3488 -0.3869
18225TIP3    H176166   2.508   3.654   2.452  0.7548 -1.3933 -0.2499
18225TIP3    H276167   2.396   3.666   2.553  3.0734 -0.7290  2.3696
18226TIP3   OH276168   4.365   0.188   3.205  0.1905 -0.8077 -0.0517
18226TIP3    H176169   4.460   0.179   3.197  0.5588  0.8313  1.7829
18226TIP3    H276170   4.345   0.156   3.293 -1.0376 -1.3969 -0.5088
18227TIP3   OH276171   2.422   2.435   1.308  0.0447 -0.3499  0.3992
18227TIP3    H176172   2.419   2.392   1.222 -0.8522  1.6692 -0.6383
18227TIP3    H276173   2.343   2.404   1.353 -1.2136  0.9928 -0.7835
18228TIP3   OH276174   5.893   0.082   4.863  0.5318  0.3025  0.3077
18228TIP3    H176175   5.838   0.153   4.830  0.1901 -0.0961  0.0078
18228TIP3    H276176   5.886   0.014   4.797  0.4942 -0.1895  0.8163
18229TIP3   OH276177   3.869   5.007  11.688  0.1488 -0.1264  0.1835
18229TIP3    H176178   3.804   4.997  11.758  0.5218  0.1013  0.5738
18229TIP3    H276179   3.889   5.101  11.688  1.2678 -0.3374  0.8113
18230TIP3   OH276180   4.023   0.999   0.116  0.2332  0.2910  0.1483
18230TIP3    H176181   4.001   1.090   0.136 -2.3234  0.1807 -1.7227
18230TIP3    H276182   4.037   0.997   0.022  2.1352 -0.9843  0.3755
18231TIP3   OH276183   2.708   6.535  14.445  0.1752  0.0153 -0.0966
18231TIP3    H176184   2.707   6.555  14.539  1.4257 -0.3025 -0.0072
18231TIP3    H276185   2.632   6.583  14.410 -0.8286 -0.5629  1.2021
18232TIP3   OH276186   4.513   5.691  10.933 -0.0009  0.4205  0.1313
18232TIP3    H176187   4.554   5.762  10.884  0.2607 -0.0440 -0.3361
18232TIP3    H276188   4.570   5.679  11.009  0.5797 -0.0136 -0.3547
18233TIP3   OH276189   2.928   3.381  11.342  0.0141  0.1680  0.5335
18233TIP3    H176190   2.884   3.465  11.358  0.5190  0.2365  1.7002
18233TIP3    H276191   2.892   3.350  11.259 -2.2339  0.1894  1.4316
18234TIP3   OH276192   5.967   1.078   1.612  0.2502  0.6530 -0.3703
18234TIP3    H176193   5.972   1.043   1.523  1.3550 -3.3743  1.0637
18234TIP3    H276194   5.875   1.104   1.622 -0.8265 -2.2268 -1.6464
18235TIP3   OH276195   5.904   0.938  11.197 -0.2453 -0.3918  0.2319
18235TIP3    H176196   5.840   0.962  11.131 -0.6412  0.5111  0.9255
18235TIP3    H276197   5.988   0.941  11.151 -0.4718  0.6207 -0.1263
18236TIP3   OH276198   4.504   1.757  16.496  0.5184  0.1318  0.2442
18236TIP3    H176199   4.548   1.794  16.419 -0.2131  0.0106 -0.2474
18236TIP3    H276200   4.539   1.807  16.569  1.1627  0.3147 -0.1777
18237TIP3   OH276201   2.196   3.662   6.304  0.2506  0.5753  0.0750
18237TIP3    H176202   2.279   3.704   6.327  0.0966  0.3195  1.1969
18237TIP3    H276203   2.195   3.661   6.209  1.7903  0.0861  0.0327
18238TIP3   OH276204   2.994   6.206   3.035  0.3162 -0.0927 -0.4455
18238TIP3    H176205   2.957   6.191   2.948  0.7771 -0.2199 -0.6204
18238TIP3    H276206   3.076   6.157   3.035  0.7665  0.6452 -0.2577
18239TIP3   OH276207   1.561   1.265  12.668  1.2163 -0.2695  0.1779
18239TIP3    H176208   1.484   1.210  12.657  0.9905  0.0524  0.1474
18239TIP3    H276209   1.528   1.344  12.711  1.6104 -0.3378  0.6207
18240TIP3   OH276210   5.070   4.022   2.610 -0.3012  0.3963 -0.5493
18240TIP3    H176211   5.149   4.074   2.620 -0.6540  1.5686 -2.9999
18240TIP3    H276212   5.011   4.056   2.677  0.7194  0.6199  0.2562
18241TIP3   OH276213   2.480   3.147   6.179 -0.5116 -0.0689 -0.0304
18241TIP3    H176214   2.555   3.167   6.122 -0.1248 -2.1937 -0.3365
18241TIP3    H276215   2.407   3.135   6.118 -0.1323 -2.1893 -0.1256
18242TIP3   OH276216   1.087   2.924   4.727  0.9272  0.6723  0.3130
18242TIP3    H176217   1.142   3.002   4.734  1.3751  0.3366  0.6635
18242TIP3    H276218   1.143   2.858   4.687 -0.2250  1.2280 -2.4331
18243TIP3   OH276219   4.378   3.395  14.337  0.3817  0.0822  0.1260
18243TIP3    H176220   4.296   3.394  14.288 -0.0690  2.5129  0.7098
18243TIP3    H276221   4.437   3.339  14.286  0.0278  2.6052 -3.4305
18244TIP3   OH276222   5.690   3.397   5.266 -0.1196 -0.3111 -0.2302
18244TIP3    H176223   5.654   3.308   5.265 -1.1533  0.0391  1.6905
18244TIP3    H276224   5.615   3.454   5.252  0.4100  0.2990 -0.6512
18245TIP3   OH276225   6.171   1.827   1.413 -0.2141 -0.5184 -0.2409
18245TIP3    H176226   6.129   1.866   1.337 -1.9106 -2.1569 -0.2247
18245TIP3    H276227   6.098   1.805   1.472  0.8939 -1.0974  0.9747
18246TIP3   OH276228   5.725   3.604   4.924 -0.2481 -0.2287  0.1730
18246TIP3    H176229   5.782   3.582   4.850 -0.7804  1.0680 -0.6527
18246TIP3    H276230   5.641   3.628   4.884 -0.0108  2.3271  1.0182
18247TIP3   OH276231   4.761   5.083   0.830  0.2149 -0.0999  0.6695
18247TIP3    H176232   4.778   5.026   0.906  0.0164 -2.1349 -0.7238
18247TIP3    H276233   4.683   5.045   0.789  0.3226  0.9449 -0.5654
18248TIP3   OH276234   5.309   6.520  13.214 -0.1529 -0.1240 -0.1105
18248TIP3    H176235   5.284   6.610  13.235  0.5801 -0.1233  0.8443
18248TIP3    H276236   5.362   6.492  13.289  2.0233 -0.3828 -1.6639
18249TIP3   OH276237   1.094   6.484  10.548 -0.1683  0.4080 -0.4947
18249TIP3    H176238   1.124   6.406  10.596 -3.0286 -0.4823  0.0445
18249TIP3    H276239   1.165   6.547  10.559  1.4712 -1.4956  0.6173
18250TIP3   OH276240   5.063   0.139   2.876 -0.0479  0.3802 -0.0414
18250TIP3    H176241   5.092   0.227   2.902  1.3436 -0.4584  1.3968
18250TIP3    H276242   5.074   0.086   2.954 -1.0864 -1.0556 -0.8220
18251TIP3   OH276243   4.204   1.630  14.929 -0.5030 -0.0174  0.3173
18251TIP3    H176244   4.151   1.579  14.867  0.4423 -0.7230  0.0640
18251TIP3    H276245   4.158   1.622  15.012 -2.5786  2.1149 -0.5259
18252TIP3   OH276246   4.394   3.979  13.106  0.1982  0.1827 -0.2671
18252TIP3    H176247   4.413   3.894  13.145 -0.9044 -0.3571 -0.8519
18252TIP3    H276248   4.476   4.027  13.111  2.1189 -2.3605 -3.6550
18253TIP3   OH276249   5.076   1.375   5.561 -0.1118 -0.3524 -0.1457
18253TIP3    H176250   5.035   1.462   5.562  0.8520  0.1196 -0.3447
18253TIP3    H276251   5.162   1.390   5.523  0.5443 -1.1796  0.9546
18254TIP3   OH276252   1.017   2.139  13.486 -0.1246  0.4290  0.3854
18254TIP3    H176253   0.936   2.095  13.513 -0.6395  1.2008  0.1096
18254TIP3    H276254   1.012   2.143  13.391  0.0108  0.9219  0.3979
18255TIP3   OH276255   1.091   2.776   0.506 -0.4555 -0.7028 -0.0337
18255TIP3    H176256   1.021   2.711   0.514  0.6639 -1.6472  4.1106
18255TIP3    H276257   1.081   2.833   0.582  1.1980  1.3648 -1.2414
18256TIP3   OH276258   6.687   6.830   1.446 -0.1019  0.3266  0.3111
18256TIP3    H176259   6.630   6.784   1.508  0.6719 -0.2428  0.6195
18256TIP3    H276260   6.675   6.923   1.465 -2.3024  0.3313 -0.8475
18257TIP3   OH276261   1.768   3.346  13.698  0.5113  0.1357  0.3323
18257TIP3    H176262   1.766   3.430  13.744 -1.3594  0.1733  0.2519
18257TIP3    H276263   1.830   3.360  13.626 -0.4557  1.7538 -0.2217
18258TIP3   OH276264   6.263   1.274   3.752  0.3058 -0.3220 -0.6760
18258TIP3    H176265   6.247   1.345   3.689  0.1844  0.9443  0.7257
18258TIP3    H276266   6.282   1.198   3.697  0.5884  0.8107 -2.2395
18259TIP3   OH276267   6.728   0.306   6.314 -0.0648  0.7206 -0.6214
18259TIP3    H176268   6.719   0.401   6.322  0.6364  0.7279  0.2648
18259TIP3    H276269   6.740   0.290   6.221 -1.2242  1.3974 -0.9094
18260TIP3   OH276270   5.496   2.981   3.566 -0.4237 -0.3880  0.6274
18260TIP3    H176271   5.532   2.993   3.478  0.7487  1.1721  1.2736
18260TIP3    H276272   5.499   2.886   3.580  2.2314 -0.4671  0.0942
18261TIP3   OH276273   1.949   2.277   3.517 -0.2736 -0.1880 -0.5635
18261TIP3    H176274   1.870   2.223   3.529 -0.5147  0.2469 -0.1534
18261TIP3    H276275   1.941   2.310   3.427  0.0625 -1.1171 -0.9522
18262TIP3   OH276276   6.207   3.040   4.908 -0.0511 -0.6557  0.0547
18262TIP3    H176277   6.297   3.017   4.933  0.0174 -2.3565 -1.5322
18262TIP3    H276278   6.164   2.956   4.891 -0.7348  0.1679 -3.0129
18263TIP3   OH276279   3.988   6.658  12.208  0.0819 -0.1415  0.1366
18263TIP3    H176280   3.898   6.637  12.182 -1.0990  2.0770  2.0822
18263TIP3    H276281   4.033   6.677  12.125 -1.6855  0.2518 -0.7696
18264TIP3   OH276282   4.724   2.354  11.364 -0.1088 -0.4298 -0.0059
18264TIP3    H176283   4.768   2.270  11.352  1.0752 -0.1317  1.7580
18264TIP3    H276284   4.631   2.333  11.361  0.1657 -1.7316 -0.0422
18265TIP3   OH276285   1.650   4.274  14.269  0.0430 -0.3096  0.0990
18265TIP3    H176286   1.590   4.226  14.326 -1.5802  1.9861  0.4900
18265TIP3    H276287   1.720   4.305  14.326  0.2580 -0.8905  0.1498
18266TIP3   OH276288   1.581   1.756  17.070  0.4524  0.3457  0.0376
18266TIP3    H176289   1.530   1.816  17.125  0.2787 -0.4710  0.8074
18266TIP3    H276290   1.551   1.669  17.097  1.0730 -0.1000 -0.6813
18267TIP3   OH276291   1.371   4.859  15.523 -0.3013  0.0462  0.1238
18267TIP3    H176292   1.383   4.862  15.428 -0.3493 -0.8503  0.0759
18267TIP3    H276293   1.277   4.872  15.535 -0.0298  2.2588  0.1985
18268TIP3   OH276294   4.797   6.641   4.067  0.0106  0.4583  0.1338
18268TIP3    H176295   4.831   6.707   4.006  1.5315 -1.0358 -0.7268
18268TIP3    H276296   4.870   6.579   4.078 -1.6149 -1.5270  0.2323
18269TIP3   OH276297   6.211   5.167   2.965  0.1851 -0.0690 -0.2221
18269TIP3    H176298   6.204   5.183   2.871  1.0640 -0.7532 -0.4117
18269TIP3    H276299   6.244   5.078   2.973  1.4410  0.4452  0.7051
18270TIP3   OH276300   6.693   5.721  16.642 -0.2154 -0.1426  0.6290
18270TIP3    H176301   6.702   5.795  16.702 -0.3764 -1.1644  1.9636
18270TIP3    H276302   6.773   5.723  16.589 -0.7007  1.5914 -0.0947
18271TIP3   OH276303   3.165   2.874  13.468  0.0073  0.0017 -0.6320
18271TIP3    H176304   3.098   2.819  13.508  0.4959  1.8922  3.2052
18271TIP3    H276305   3.246   2.849  13.512  0.9168  1.1895 -1.5667
18272TIP3   OH276306   6.250   3.864  10.029  1.2719 -0.6347  0.3274
18272TIP3    H176307   6.284   3.826  10.110 -0.2117 -0.8619  0.8879
18272TIP3    H276308   6.197   3.795   9.990  0.4272  0.0743  0.1592
18273TIP3   OH276309   0.130   3.191   1.094 -0.1983  0.2304 -0.1312
18273TIP3    H176310   0.171   3.175   1.179  0.4430  0.5925 -0.3715
18273TIP3    H276311   0.195   3.164   1.030  0.1000  1.8039 -0.5279
18274TIP3   OH276312   4.465   2.636  12.225  0.0265 -0.2138  0.0341
18274TIP3    H176313   4.538   2.685  12.186 -0.0304 -0.2795 -0.1565
18274TIP3    H276314   4.508   2.572  12.282  0.1054 -0.0380  0.1737
18275TIP3   OH276315   1.064   0.310  10.484 -0.2331 -0.1765 -0.4565
18275TIP3    H176316   0.971   0.314  10.507 -0.7146 -2.1934 -1.7774
18275TIP3    H276317   1.091   0.223  10.511  1.6810  0.8321  1.1214
18276TIP3   OH276318   3.184   0.653   5.823  0.0823 -0.3205 -0.1282
18276TIP3    H176319   3.120   0.638   5.753  0.5888 -1.1704 -0.4318
18276TIP3    H276320   3.144   0.613   5.900  0.9647 -2.4915 -0.7078
18277TIP3   OH276321   5.912   0.943  11.459  0.1386 -0.1665 -0.1920
18277TIP3    H176322   5.926   0.970  11.369  3.5509 -1.1535 -0.0892
18277TIP3    H276323   5.984   0.983  11.508 -0.6637 -0.9992  1.8097
18278TIP3   OH276324   0.083   3.963  16.847 -0.2492  0.2192 -0.1286
18278TIP3    H176325  -0.011   3.957  16.831 -0.0143 -0.7790 -1.2366
18278TIP3    H276326   0.091   3.962  16.943 -1.3731  0.5627 -0.0177
18279TIP3   OH276327   5.086   5.359   5.218 -0.3736  0.1064 -0.1980
18279TIP3    H176328   5.040   5.314   5.289 -1.4401  1.2137 -0.1544
18279TIP3    H276329   5.032   5.342   5.140  1.2782 -1.9044 -1.0123
18280TIP3   OH276330   5.729   2.899  15.590 -0.1444 -0.6913  0.1637
18280TIP3    H176331   5.675   2.881  15.513  0.8282 -0.6995 -0.5321
18280TIP3    H276332   5.786   2.971  15.563  0.3651 -0.8561  0.7954
18281TIP3   OH276333   6.407   5.664  15.707  0.0842 -0.5305  0.1655
18281TIP3    H176334   6.390   5.632  15.619 -0.2532 -0.8139  0.3323
18281TIP3    H276335   6.349   5.739  15.718 -0.0996 -0.6875  0.2606
18282TIP3   OH276336   3.510   3.435   2.069  0.1630  0.2835 -0.0634
18282TIP3    H176337   3.456   3.412   2.144  1.3742  0.0518  0.7654
18282TIP3    H276338   3.593   3.466   2.107  1.5323 -1.6476 -1.2919
18283TIP3   OH276339   6.363   3.731   2.994  0.0648 -0.0063 -0.3566
18283TIP3    H176340   6.451   3.736   3.031  0.0835 -0.6489 -0.3088
18283TIP3    H276341   6.368   3.660   2.931 -0.2558  0.3776 -0.8221
18284TIP3   OH276342   2.101   2.724  17.052  0.8178 -0.2619  0.1985
18284TIP3    H176343   2.013   2.750  17.078  1.3351  1.2690  0.5164
18284TIP3    H276344   2.092   2.700  16.960  0.4733  2.2820 -0.5210
18285TIP3   OH276345   0.598   4.306   0.313  0.1814 -0.7120 -0.4941
18285TIP3    H176346   0.680   4.258   0.310 -0.3377 -1.6803  0.4201
18285TIP3    H276347   0.604   4.367   0.239  2.0400 -0.2058  0.0069
18286TIP3   OH276348   5.319   1.793  16.705  0.3308  0.1640 -0.2836
18286TIP3    H176349   5.318   1.705  16.743 -3.0671  0.2619  0.1966
18286TIP3    H276350   5.341   1.851  16.778 -1.4771 -0.0380  0.4789
18287TIP3   OH276351   0.375   0.932   0.447 -0.0033 -0.0643  0.0305
18287TIP3    H176352   0.447   0.870   0.436 -0.6983 -0.5913 -2.1436
18287TIP3    H276353   0.403   1.010   0.398 -1.3265 -0.7217 -1.8995
18288TIP3   OH276354   2.390   4.281   3.783 -0.0835  0.4349  0.3915
18288TIP3    H176355   2.404   4.323   3.868  2.1152 -0.7200  0.6883
18288TIP3    H276356   2.446   4.203   3.786 -0.6121 -0.0877 -1.8025
18289TIP3   OH276357   3.542   2.792  12.297 -0.0803 -0.2053 -0.3633
18289TIP3    H176358   3.572   2.876  12.264  0.6550  0.3613  1.6137
18289TIP3    H276359   3.601   2.728  12.257  0.7379  0.4470 -0.2309
18290TIP3   OH276360   5.058   5.949  15.261 -0.9499 -0.4370  0.1066
18290TIP3    H176361   5.108   5.930  15.181 -0.5318 -0.4272  0.3636
18290TIP3    H276362   4.967   5.945  15.233 -0.7992  0.0595 -0.4846
18291TIP3   OH276363   2.471   3.012  14.539  0.4267 -0.0312  0.3857
18291TIP3    H176364   2.388   3.012  14.492  0.5464 -0.3618  0.1803
18291TIP3    H276365   2.450   2.974  14.624  0.9047 -2.6210 -0.5927
18292TIP3   OH276366   1.165   0.799  14.007 -0.6841 -0.1861 -0.5490
18292TIP3    H176367   1.078   0.782  13.973 -1.9967  1.0660  1.8801
18292TIP3    H276368   1.158   0.885  14.050  2.1046  0.5626 -1.3560
18293TIP3   OH276369   0.824   3.355  13.862  0.4966 -0.1148  0.5432
18293TIP3    H176370   0.790   3.266  13.869 -0.7921  0.3292  0.3707
18293TIP3    H276371   0.835   3.369  13.768 -0.3082  0.2421  0.4913
18294TIP3   OH276372   4.974   1.657  16.931 -0.0288 -0.3937  0.2855
18294TIP3    H176373   4.880   1.673  16.923  0.3014  1.3734 -0.4049
18294TIP3    H276374   4.994   1.594  16.861 -0.5799 -0.2799  0.0238
18295TIP3   OH276375   2.744   1.129   0.230 -0.5452  0.0159  0.4667
18295TIP3    H176376   2.748   1.033   0.224  0.4893  0.1349 -3.8300
18295TIP3    H276377   2.835   1.157   0.237 -0.9070  0.8162  4.1186
18296TIP3   OH276378   6.319   3.469  12.340  0.5411 -0.4906 -0.0870
18296TIP3    H176379   6.234   3.495  12.306  0.6038 -1.7696 -1.3346
18296TIP3    H276380   6.299   3.425  12.422  0.0565 -0.2338 -0.0642
18297TIP3   OH276381   0.674   1.843  13.191  0.1654  0.1852 -1.1786
18297TIP3    H176382   0.613   1.786  13.145 -0.0196  0.0223 -0.7405
18297TIP3    H276383   0.629   1.928  13.195 -0.3575 -0.1159 -0.2315
18298TIP3   OH276384   5.804   3.734  15.132  0.0293  1.1714 -0.0921
18298TIP3    H176385   5.781   3.655  15.181  0.9018 -0.1585 -1.7438
18298TIP3    H276386   5.859   3.785  15.192  0.4466 -0.0488  0.5824
18299TIP3   OH276387   5.027   4.957  13.574 -0.2150  0.6504 -0.4242
18299TIP3    H176388   4.965   4.899  13.529  0.7992 -0.5705 -0.3128
18299TIP3    H276389   4.973   5.008  13.634 -1.0505 -0.9361  0.2419
18300TIP3   OH276390   0.235   1.722  14.207 -0.0310 -0.0728  0.3716
18300TIP3    H176391   0.295   1.766  14.147  0.6725 -1.5898 -0.0729
18300TIP3    H276392   0.148   1.748  14.176  0.3514  0.6717 -0.1216
18301TIP3   OH276393   2.384   1.651   3.493 -0.2195  0.2464 -0.0698
18301TIP3    H176394   2.395   1.603   3.411 -1.5018  0.7992 -0.5940
18301TIP3    H276395   2.417   1.591   3.560  2.4903  0.4424 -1.0957
18302TIP3   OH276396   5.970   2.448  16.105  0.2875 -0.2298  0.3918
18302TIP3    H176397   6.019   2.530  16.116  0.4364 -0.2003 -0.3888
18302TIP3    H276398   5.888   2.475  16.064  0.3792 -0.4752  0.0357
18303TIP3   OH276399   1.874   5.086  12.096 -0.1976 -0.5269  0.4561
18303TIP3    H176400   1.964   5.113  12.077 -0.7353  0.5434 -0.8113
18303TIP3    H276401   1.882   5.020  12.165  1.5765 -0.7637  0.0741
18304TIP3   OH276402   2.496   4.411   1.417  0.3716  0.4807 -0.5713
18304TIP3    H176403   2.564   4.478   1.410  0.0769  0.7278 -1.0622
18304TIP3    H276404   2.471   4.392   1.327  0.9888 -0.8469 -0.4944
18305TIP3   OH276405   0.974   5.893  11.729 -0.1149  0.1941 -0.0720
18305TIP3    H176406   0.947   5.942  11.651  2.7839 -0.7474 -1.8505
18305TIP3    H276407   1.006   5.960  11.789  0.7221  0.7619 -1.1102
18306TIP3   OH276408   5.653   3.281   1.414 -0.4541 -0.5670 -0.3057
18306TIP3    H176409   5.663   3.187   1.434  0.6502 -0.2152  0.9811
18306TIP3    H276410   5.583   3.284   1.349  1.6285 -2.5529 -2.8651
18307TIP3   OH276411   0.493   1.620  16.158 -0.7391 -0.2535 -0.4622
18307TIP3    H176412   0.550   1.694  16.181  0.4973 -1.5340  0.8635
18307TIP3    H276413   0.446   1.648  16.080  1.5305  0.9941 -1.4675
18308TIP3   OH276414   0.820   4.071   2.408  0.4549  0.4747 -0.2620
18308TIP3    H176415   0.785   4.031   2.488 -1.0449  1.2577 -0.4969
18308TIP3    H276416   0.846   3.996   2.354  0.4693 -0.0934  0.5133
18309TIP3   OH276417   3.499   4.215   5.941  0.1512  0.0113  0.2119
18309TIP3    H176418   3.452   4.209   6.025 -0.7739  0.7602 -0.2403
18309TIP3    H276419   3.590   4.232   5.966 -0.2443  0.9919  1.0466
18310TIP3   OH276420   2.043   6.084   1.070  0.4733 -0.1618  0.3739
18310TIP3    H176421   2.027   6.101   1.163  0.1263  1.8878 -0.0194
18310TIP3    H276422   2.137   6.100   1.058  0.5872 -0.7560  0.4113
18311TIP3   OH276423   5.329   5.676   1.497  0.2177  0.2974 -0.1740
18311TIP3    H176424   5.335   5.772   1.504  1.2776  0.1370  1.7578
18311TIP3    H276425   5.315   5.647   1.587  0.4453 -1.4094 -0.6657
18312TIP3   OH276426   1.827   4.834  13.391  0.5020 -0.0881 -0.5587
18312TIP3    H176427   1.755   4.897  13.385 -0.2029 -0.5346  1.9918
18312TIP3    H276428   1.835   4.799  13.302 -1.2029  1.3128 -1.3265
18313TIP3   OH276429   5.649   0.480   0.294 -0.3914  0.4331 -0.2372
18313TIP3    H176430   5.686   0.494   0.207 -2.6912  1.8426 -1.0836
18313TIP3    H276431   5.671   0.390   0.315 -0.0440 -0.0555 -2.4454
18314TIP3   OH276432   2.491   5.459  12.432 -0.1699  0.1352 -0.2898
18314TIP3    H176433   2.528   5.374  12.456 -0.1780  0.1786 -0.1199
18314TIP3    H276434   2.470   5.501  12.516 -2.6800 -0.7730 -0.3882
18315TIP3   OH276435   2.175   2.879  15.456  0.1199  0.1502  0.3649
18315TIP3    H176436   2.150   2.935  15.530 -0.6017 -0.2222  0.4093
18315TIP3    H276437   2.234   2.814  15.494  1.4511  1.2168  0.2029
18316TIP3   OH276438   4.396   2.247   6.565  0.0070 -0.4315 -0.2584
18316TIP3    H176439   4.454   2.188   6.517 -0.8615 -0.8060 -0.8883
18316TIP3    H276440   4.454   2.298   6.621  1.0504 -0.1115 -1.5771
18317TIP3   OH276441   0.434   0.176   6.549  0.1064 -0.6973 -0.4151
18317TIP3    H176442   0.377   0.235   6.598 -0.9537 -1.6297 -0.4867
18317TIP3    H276443   0.375   0.127   6.492  0.7312 -2.8828  0.6883
18318TIP3   OH276444   5.221   1.766   1.516 -0.2145 -0.0164 -0.5218
18318TIP3    H176445   5.213   1.705   1.589 -1.8151 -0.0681 -0.7002
18318TIP3    H276446   5.282   1.833   1.547 -2.7017  1.3384  1.8958
18319TIP3   OH276447   6.661   1.961   2.580 -0.2095 -0.0730  0.1854
18319TIP3    H176448   6.608   1.971   2.501 -1.1857 -0.9337  0.7123
18319TIP3    H276449   6.695   1.872   2.576 -1.7378 -0.7813  1.5762
18320TIP3   OH276450   3.724   4.003   2.234 -0.2507  0.2548 -0.3714
18320TIP3    H176451   3.817   4.025   2.227  0.3029 -1.2254  1.5625
18320TIP3    H276452   3.704   3.955   2.153  1.9816 -3.5373  1.0605
18321TIP3   OH276453   5.862   3.400  14.539  0.2588 -0.5288 -0.0538
18321TIP3    H176454   5.923   3.330  14.514  0.0556 -0.2161 -1.4741
18321TIP3    H276455   5.830   3.373  14.626  0.1712 -2.2119 -0.5736
18322TIP3   OH276456   3.705   0.218   5.018 -0.7961 -0.7494  0.6518
18322TIP3    H176457   3.639   0.277   4.981 -0.3022 -1.6397 -1.8621
18322TIP3    H276458   3.755   0.273   5.078 -0.0748  1.6425 -1.9014
18323TIP3   OH276459   1.119   2.164  12.041  0.3118  0.2114  0.1379
18323TIP3    H176460   1.093   2.072  12.033  2.3888 -0.2618 -2.7389
18323TIP3    H276461   1.210   2.161  12.069  0.0707  1.4866  1.1594
18324TIP3   OH276462   3.420   0.163   5.099  0.1322 -0.2895 -0.4815
18324TIP3    H176463   3.500   0.201   5.063  0.9876 -1.8284 -0.2896
18324TIP3    H276464   3.385   0.109   5.029 -0.8563  0.4956 -0.6191
18325TIP3   OH276465   5.365   1.691   2.303 -1.5898 -0.0236  0.3368
18325TIP3    H176466   5.272   1.702   2.282 -2.2183 -1.1231  2.2766
18325TIP3    H276467   5.367   1.615   2.362  0.8983 -2.1452 -2.1799
18326TIP3   OH276468   1.717   1.707   1.049  0.7666  0.4593 -0.5839
18326TIP3    H176469   1.779   1.655   1.100 -1.0441 -1.8617 -0.5768
18326TIP3    H276470   1.678   1.767   1.112  0.4893 -0.5213  0.2015
18327TIP3   OH276471   0.902   1.603   2.855 -0.2143 -0.9191 -0.4387
18327TIP3    H176472   0.811   1.634   2.856  0.0545 -0.0926  0.0329
18327TIP3    H276473   0.910   1.548   2.933 -0.7639 -2.4169 -1.4169
18328TIP3   OH276474   5.327   3.890  15.690  0.3787 -0.3545  0.3110
18328TIP3    H176475   5.385   3.815  15.704 -0.3952 -1.2755 -1.1817
18328TIP3    H276476   5.344   3.948  15.764  1.5558 -1.6483  1.0911
18329TIP3   OH276477   0.727   4.124  16.700  0.2956  0.0855  0.0217
18329TIP3    H176478   0.670   4.153  16.772  2.3756 -0.2087  1.8919
18329TIP3    H276479   0.685   4.045  16.667 -1.3918  0.9400  0.0228
18330TIP3   OH276480   3.299   3.116  15.374  0.2904 -0.2807 -0.3386
18330TIP3    H176481   3.383   3.159  15.392  0.6099  0.0341 -2.3598
18330TIP3    H276482   3.319   3.022  15.377  0.4072 -0.2398  0.4496
18331TIP3   OH276483   4.962   5.848   0.361 -0.0736 -0.0127 -0.1619
18331TIP3    H176484   5.057   5.835   0.360 -0.0787 -0.1992  0.6567
18331TIP3    H276485   4.928   5.777   0.306  0.3025  0.6018 -1.2202
18332TIP3   OH276486   0.412   3.767   1.833 -0.4955 -0.5446  0.1102
18332TIP3    H176487   0.490   3.822   1.831 -0.9379  0.0758 -0.2726
18332TIP3    H276488   0.438   3.687   1.787 -0.6604  0.4452 -1.7950
18333TIP3   OH276489   6.452   1.125   5.943 -0.4493  0.4496 -0.3350
18333TIP3    H176490   6.479   1.081   6.023 -0.0645 -1.4267 -1.4514
18333TIP3    H276491   6.417   1.056   5.887  0.4317  1.4911 -2.2873
18334TIP3   OH276492   5.793   6.376   0.267  0.9922 -0.4337  0.1366
18334TIP3    H176493   5.775   6.419   0.351 -1.2617 -2.3181  0.7313
18334TIP3    H276494   5.751   6.431   0.202 -2.6622 -1.9280  0.9778
18335TIP3   OH276495   4.233   2.236  11.268  0.0906  0.1565  0.3587
18335TIP3    H176496   4.254   2.229  11.175  0.8167 -0.4478  0.5579
18335TIP3    H276497   4.150   2.190  11.278  0.7250 -1.0367  0.2471
18336TIP3   OH276498   6.605   5.884   2.529  0.0622 -0.0574 -0.4687
18336TIP3    H176499   6.510   5.891   2.539 -0.2080 -1.8346 -1.3618
18336TIP3    H276500   6.636   5.857   2.615 -0.2999  0.0460 -0.3010
18337TIP3   OH276501   3.313   6.862   0.682  0.4754 -0.0358  0.2055
18337TIP3    H176502   3.254   6.857   0.607  0.2190  0.4798  0.3643
18337TIP3    H276503   3.330   6.771   0.706  0.9908 -0.2160 -0.8044
18338TIP3   OH276504   6.776   0.231  15.309 -0.4834  0.3321  0.4571
18338TIP3    H176505   6.814   0.317  15.328 -0.2102 -0.0131  1.5648
18338TIP3    H276506   6.768   0.229  15.214 -0.8299  1.7220  0.4350
18339TIP3   OH276507   3.443   5.108  14.266 -0.3688  0.9415  0.2633
18339TIP3    H176508   3.486   5.148  14.190 -0.8203  0.6305 -0.1608
18339TIP3    H276509   3.351   5.101  14.240  0.2403 -5.1729 -1.9206
18340TIP3   OH276510   1.443   6.533  14.813  0.0069  0.0519 -0.6820
18340TIP3    H176511   1.363   6.586  14.815 -0.6874 -0.7979 -2.6146
18340TIP3    H276512   1.424   6.464  14.749  2.3340 -0.1131 -1.2931
18341TIP3   OH276513   3.142   1.977  12.108  0.1199  0.0984 -0.0664
18341TIP3    H176514   3.090   1.911  12.063  0.8636 -0.0270 -0.7567
18341TIP3    H276515   3.157   2.045  12.042 -0.0527  0.6322  0.4328
18342TIP3   OH276516   4.077   3.275  16.102  0.0524  0.3195 -0.1125
18342TIP3    H176517   4.112   3.242  16.020  1.3812  0.5632  0.3329
18342TIP3    H276518   4.150   3.321  16.143 -0.9899  1.4704  0.5396
18343TIP3   OH276519   0.892   4.025  15.325  0.0321 -0.5252 -0.0669
18343TIP3    H176520   0.911   4.063  15.239 -0.0567 -0.5673 -0.1060
18343TIP3    H276521   0.806   4.060  15.348  0.2379 -0.1871  0.1927
18344TIP3   OH276522   2.938   0.705  15.585  0.3258  0.1448 -0.2392
18344TIP3    H176523   3.008   0.653  15.545  1.0230  1.7160 -1.1573
18344TIP3    H276524   2.943   0.790  15.541 -1.4648  0.6567  0.4517
18345TIP3   OH276525   3.688   3.984   5.335 -0.2988  1.1648  0.4124
18345TIP3    H176526   3.696   4.078   5.351  1.9242  1.2028 -0.5333
18345TIP3    H276527   3.774   3.949   5.357 -1.7513 -1.1306  3.2701
18346TIP3   OH276528   0.212   0.616  15.338 -0.1087  0.6586 -0.0723
18346TIP3    H176529   0.296   0.572  15.349 -0.3845  0.0208 -0.4939
18346TIP3    H276530   0.194   0.611  15.245 -0.9120  0.2419  0.0987
18347TIP3   OH276531   0.874   3.166   2.483 -0.8109 -0.3544  0.4614
18347TIP3    H176532   0.951   3.194   2.532  0.5733 -1.0565 -1.1788
18347TIP3    H276533   0.815   3.241   2.485  0.6789  0.8787  0.2838
18348TIP3   OH276534   3.711   6.811   5.106 -0.2436  0.1623 -0.1777
18348TIP3    H176535   3.729   6.898   5.070 -0.8535  0.3307 -0.0744
18348TIP3    H276536   3.693   6.757   5.029  0.7741 -0.0402 -0.2981
18349TIP3   OH276537   2.435   6.320   3.008  0.2683 -0.0585  0.0073
18349TIP3    H176538   2.488   6.336   3.085 -0.4682  0.0710  0.4973
18349TIP3    H276539   2.485   6.359   2.936  0.3139  1.0518  0.6196
18350TIP3   OH276540   2.241   2.476  11.898  0.3760 -0.8072 -0.0381
18350TIP3    H176541   2.191   2.519  11.967 -0.2838 -0.4008 -0.7493
18350TIP3    H276542   2.285   2.548  11.852  1.3046 -1.1224  0.3260
18351TIP3   OH276543   0.986   2.813   1.564  0.1742  0.4746  0.0160
18351TIP3    H176544   0.982   2.860   1.647 -0.7426  2.7675 -1.2466
18351TIP3    H276545   1.078   2.790   1.554  0.3793  0.5844  1.4205
18352TIP3   OH276546   4.842   5.735  12.685 -0.1866 -0.0228 -0.6238
18352TIP3    H176547   4.855   5.659  12.628 -1.8319  1.2345 -2.7977
18352TIP3    H276548   4.777   5.788  12.640 -0.6072  1.7066  1.8417
18353TIP3   OH276549   1.216   2.724  11.170  0.0930 -0.3631  0.1434
18353TIP3    H176550   1.215   2.819  11.181  0.3833 -0.4627  1.0766
18353TIP3    H276551   1.272   2.710  11.094 -0.2504  0.2268 -0.2328
18354TIP3   OH276552   3.605   4.723  13.052  0.3112  0.5675  0.0972
18354TIP3    H176553   3.700   4.721  13.040  0.1543  0.4561 -1.2312
18354TIP3    H276554   3.569   4.704  12.965 -0.9253 -0.5726  0.8182
18355TIP3   OH276555   1.891   5.183   0.635 -0.4862 -0.9431 -0.0400
18355TIP3    H176556   1.893   5.090   0.614  0.8263 -0.8902 -0.1961
18355TIP3    H276557   1.969   5.220   0.593  0.4701 -0.2437  2.1926
18356TIP3   OH276558   5.715   0.144   5.779  0.2092 -0.3960 -0.0508
18356TIP3    H176559   5.640   0.092   5.808 -0.5644 -0.2703 -1.7158
18356TIP3    H276560   5.741   0.104   5.696  1.2791  0.2694 -0.0557
18357TIP3   OH276561   0.790   0.470  12.710  0.1237  0.3293  0.0471
18357TIP3    H176562   0.710   0.438  12.751 -0.7053  0.6329 -1.2362
18357TIP3    H276563   0.758   0.520  12.634  1.5156  0.9707 -0.1408
18358TIP3   OH276564   3.831   4.094  16.889  0.2762  0.0837 -0.1387
18358TIP3    H176565   3.840   4.075  16.983 -1.9495  0.7137  0.2470
18358TIP3    H276566   3.792   4.181  16.886  1.1119  0.4358 -1.7010
18359TIP3   OH276567   4.313   4.456   1.914 -0.2541  0.3135  0.3612
18359TIP3    H176568   4.375   4.396   1.874  0.2332  0.0934  1.4215
18359TIP3    H276569   4.367   4.521   1.959 -0.7833  1.0182  0.0108
18360TIP3   OH276570   0.061   0.059  13.456 -0.5303  0.1168  0.3441
18360TIP3    H176571  -0.021   0.028  13.494 -3.1732  3.3645 -2.0319
18360TIP3    H276572   0.086   0.133  13.511  1.3870 -1.3133  1.5097
18361TIP3   OH276573   6.828   4.494   0.169  0.0748  0.7289 -0.3124
18361TIP3    H176574   6.869   4.458   0.090 -0.4161 -1.7305  0.4733
18361TIP3    H276575   6.805   4.584   0.145  2.6046  1.0352 -1.9503
18362TIP3   OH276576   3.999   5.464   2.034  0.5243 -0.2739  0.0379
18362TIP3    H176577   3.960   5.409   2.101 -0.8711  1.4690  0.7505
18362TIP3    H276578   4.073   5.507   2.077  0.6660 -0.4385 -0.0432
18363TIP3   OH276579   0.636   3.184  16.979  0.0745  0.5524  0.1037
18363TIP3    H176580   0.560   3.188  16.922 -1.0272 -0.9075  1.4074
18363TIP3    H276581   0.618   3.247  17.048  2.0424  3.3986 -1.7172
18364TIP3   OH276582   4.189   4.923  12.950 -0.1709  0.0901  0.7298
18364TIP3    H176583   4.177   5.018  12.949  1.4442  0.3884  2.4722
18364TIP3    H276584   4.274   4.911  12.992  0.7061 -2.0642 -1.3918
18365TIP3   OH276585   1.904   3.413   3.156 -1.2943 -0.8197  0.6479
18365TIP3    H176586   1.883   3.484   3.217 -1.3362  0.3951 -0.7287
18365TIP3    H276587   1.992   3.432   3.125 -1.4220 -1.2006  0.0278
18366TIP3   OH276588   1.670   0.650   1.140  0.5143  0.5413 -0.6214
18366TIP3    H176589   1.644   0.730   1.186 -0.8548 -0.0131 -0.3617
18366TIP3    H276590   1.765   0.647   1.149  0.4316  1.1978  0.9365
18367TIP3   OH276591   2.028   0.300   0.963  0.0306 -0.2616  0.1880
18367TIP3    H176592   1.966   0.230   0.984 -0.7449  0.5401  0.6132
18367TIP3    H276593   2.114   0.258   0.970 -0.4547 -2.0510 -2.7997
18368TIP3   OH276594   5.499   1.744   5.949 -0.0706  0.6035 -0.1835
18368TIP3    H176595   5.484   1.674   6.013 -0.6067 -0.6307 -1.5891
18368TIP3    H276596   5.590   1.734   5.923 -0.2321  0.1845 -0.6192
18369TIP3   OH276597   6.464   5.039  11.305 -0.4693  0.3497 -0.1220
18369TIP3    H176598   6.516   5.016  11.382 -2.3074 -0.1454  1.0591
18369TIP3    H276599   6.527   5.075  11.243  1.2827 -0.4393  1.1082
18370TIP3   OH276600   3.546   6.789   0.335  0.2098 -0.3049  0.4552
18370TIP3    H176601   3.598   6.869   0.345 -0.2932 -0.0735  1.2749
18370TIP3    H276602   3.581   6.728   0.399  0.9773 -0.9720 -0.5598
18371TIP3   OH276603   2.489   6.599  13.512 -0.4637 -0.0110 -0.1660
18371TIP3    H176604   2.503   6.655  13.588  0.3703 -2.0971  1.2998
18371TIP3    H276605   2.419   6.540  13.539  0.0355 -0.9658 -0.9203
18372TIP3   OH276606   0.648   4.265  12.100  0.2179  0.1671 -0.5485
18372TIP3    H176607   0.663   4.303  12.186 -0.5475  1.6632 -1.0466
18372TIP3    H276608   0.611   4.336  12.048 -0.6034 -1.0764 -1.7339
18373TIP3   OH276609   2.794   0.730  16.236  0.8853 -0.0179 -0.0561
18373TIP3    H176610   2.732   0.711  16.166 -1.2864 -1.7714  2.1735
18373TIP3    H276611   2.754   0.801  16.286  1.4493 -0.0869  0.5237
18374TIP3   OH276612   2.148   0.745   2.687  0.8224 -0.2593  0.0508
18374TIP3    H176613   2.054   0.737   2.697  0.7985 -0.4749 -0.3371
18374TIP3    H276614   2.174   0.806   2.756 -0.0811  2.6265 -1.9977
18375TIP3   OH276615   6.565   1.319   0.911  0.5026  0.4115  0.4247
18375TIP3    H176616   6.491   1.365   0.872  0.7485  0.8806  0.5014
18375TIP3    H276617   6.638   1.380   0.902  0.9036 -0.0889  0.2516
18376TIP3   OH276618   6.008   2.967  12.205 -0.1015  0.0352  0.5519
18376TIP3    H176619   6.051   3.050  12.225  0.7884  0.5290 -2.7894
18376TIP3    H276620   5.915   2.989  12.199  0.0500  0.6670  0.4034
18377TIP3   OH276621   2.749   5.657  10.276 -0.3363 -0.0856 -0.4245
18377TIP3    H176622   2.752   5.700  10.190  0.1112 -0.2597 -0.5030
18377TIP3    H276623   2.658   5.662  10.302 -0.5275 -0.2576 -1.0329
18378TIP3   OH276624   5.046   3.065   4.892 -0.2999 -0.1690 -0.4649
18378TIP3    H176625   4.983   3.115   4.945 -0.8321 -0.6775 -0.5979
18378TIP3    H276626   5.043   3.107   4.806  0.0745  0.2471 -0.2794
18379TIP3   OH276627   6.270   5.849   3.052 -0.2418 -0.0519 -0.4747
18379TIP3    H176628   6.299   5.880   3.138  2.5768 -0.1466 -1.2693
18379TIP3    H276629   6.184   5.888   3.040  0.0217  1.3833  1.6579
18380TIP3   OH276630   0.784   3.287  11.893  0.3747  0.3999 -0.1793
18380TIP3    H176631   0.781   3.362  11.953  1.7706 -0.6217  1.2713
18380TIP3    H276632   0.723   3.224  11.931  1.6277 -0.4462  0.5000
18381TIP3   OH276633   5.875   5.551  12.092  0.1537  0.2597  0.1867
18381TIP3    H176634   5.960   5.592  12.109  0.4068  0.3101 -1.0547
18381TIP3    H276635   5.887   5.459  12.116  0.1583  0.5173  1.2081
18382TIP3   OH276636   5.767   6.530  16.444  0.2609  0.6645 -0.0646
18382TIP3    H176637   5.803   6.606  16.398  0.9993 -0.2818 -1.1042
18382TIP3    H276638   5.805   6.534  16.531  0.6102  1.2748 -0.2412
18383TIP3   OH276639   6.458   1.436  13.322 -0.6556 -0.0594 -0.3346
18383TIP3    H176640   6.379   1.466  13.277 -0.4175 -1.0612 -1.4734
18383TIP3    H276641   6.499   1.516  13.353 -0.9080  0.6850 -1.8116
18384TIP3   OH276642   0.922   5.356  12.240 -0.2058 -0.5800 -0.2298
18384TIP3    H176643   0.877   5.402  12.311  1.0558  0.2564  0.0472
18384TIP3    H276644   0.878   5.271  12.236 -0.5289 -0.5190  1.3073
18385TIP3   OH276645   5.418   2.141   4.024 -0.6443 -0.0263  0.5909
18385TIP3    H176646   5.462   2.072   3.973 -0.5911 -1.7485  2.8384
18385TIP3    H276647   5.375   2.195   3.958 -0.0722 -1.7697 -1.3184
18386TIP3   OH276648   1.085   5.809  14.944 -0.3619  0.4989 -0.0618
18386TIP3    H176649   0.997   5.808  14.905 -0.7389  2.0471  0.6587
18386TIP3    H276650   1.093   5.897  14.981  1.1583  0.0752  0.6770
18387TIP3   OH276651   4.535   5.298   1.420 -0.5555 -0.4402  0.7101
18387TIP3    H176652   4.519   5.263   1.508 -0.6687  0.8872  1.2315
18387TIP3    H276653   4.500   5.230   1.362  0.2591 -1.7192  1.6500
18388TIP3   OH276654   6.504   0.566  12.198  0.2778 -0.3651  0.3084
18388TIP3    H176655   6.523   0.660  12.208  0.0854 -0.0762 -1.5927
18388TIP3    H276656   6.589   0.523  12.206  0.3546 -0.0548  1.3042
18389TIP3   OH276657   2.604   1.948  13.191  0.0962  0.5714  0.0880
18389TIP3    H176658   2.563   2.034  13.196  1.1116  1.0553  0.4447
18389TIP3    H276659   2.550   1.891  13.246 -0.2415  1.1177  0.3278
18390TIP3   OH276660   5.952   1.887   1.265 -0.2957  0.1889  0.2495
18390TIP3    H176661   5.960   1.861   1.173  0.5629  1.2388  0.0096
18390TIP3    H276662   5.879   1.835   1.298  0.5186 -1.5489 -0.5394
18391TIP3   OH276663   6.009   0.889  16.834  0.2038  0.1728  0.1120
18391TIP3    H176664   6.062   0.957  16.874 -0.0883 -0.5642  1.8419
18391TIP3    H276665   6.067   0.814  16.827 -0.2720 -0.2958  0.9871
18392TIP3   OH276666   0.813   5.230  11.205 -0.9974  0.1569 -0.0167
18392TIP3    H176667   0.865   5.263  11.132  0.9672 -2.8271 -0.1503
18392TIP3    H276668   0.769   5.152  11.169  0.0600 -1.4183  1.9016
18393TIP3   OH276669   5.063   2.337  14.031 -0.1669 -0.1275  0.0073
18393TIP3    H176670   5.145   2.342  14.080 -0.2324 -0.7835  0.1987
18393TIP3    H276671   5.027   2.251  14.053 -1.0232  0.2440  0.1104
18394TIP3   OH276672   6.068   2.442  15.646  0.5471 -0.3774  0.2941
18394TIP3    H176673   6.058   2.532  15.677  1.1361 -0.1990 -0.0124
18394TIP3    H276674   5.980   2.405  15.652  0.3879  0.0698  0.8754
18395TIP3   OH276675   5.546   3.696   2.166  0.3069  0.3755  0.0895
18395TIP3    H176676   5.623   3.734   2.123 -0.4078  1.6135 -0.1454
18395TIP3    H276677   5.536   3.746   2.246  0.1166 -0.2089  0.4349
18396TIP3   OH276678   2.916   4.140   0.695  0.5409 -0.0143 -0.5566
18396TIP3    H176679   2.844   4.172   0.641 -1.2579 -0.2863  1.5347
18396TIP3    H276680   2.994   4.183   0.659 -0.4272 -0.5861 -3.6226
18397TIP3   OH276681   3.236   4.892   2.376  0.2503  0.2504  0.3432
18397TIP3    H176682   3.285   4.883   2.458 -1.1192 -2.1194  0.9954
18397TIP3    H276683   3.150   4.925   2.402 -0.8223 -2.1893  0.2105
18398TIP3   OH276684   6.614   5.119  15.340 -0.0149 -0.6436 -0.2417
18398TIP3    H176685   6.574   5.185  15.396 -1.9475  1.9353 -4.2167
18398TIP3    H276686   6.594   5.036  15.383  0.9941  1.0996  4.0992
18399TIP3   OH276687   4.384   0.540  13.929 -0.1155  0.3600  0.9139
18399TIP3    H176688   4.377   0.533  13.834  0.3802 -0.6763  0.9376
18399TIP3    H276689   4.294   0.548  13.960 -0.2014  2.3666  0.2667
18400TIP3   OH276690   1.767   5.396  11.486  0.1932  0.1521 -0.0106
18400TIP3    H176691   1.839   5.337  11.465  0.6582  0.3936  0.8557
18400TIP3    H276692   1.691   5.356  11.444  0.7878 -0.2037 -0.7831
18401TIP3   OH276693   3.636   6.541   1.635  0.2273  0.1167  0.3057
18401TIP3    H176694   3.559   6.551   1.578 -0.1958 -0.8775  0.6814
18401TIP3    H276695   3.613   6.471   1.695  1.0682  0.4601  1.0618
18402TIP3   OH276696   1.621   3.812  13.763 -0.4031 -0.1872  0.3496
18402TIP3    H176697   1.627   3.898  13.722 -0.6965  0.3039  1.3074
18402TIP3    H276698   1.709   3.775  13.754 -0.2397  0.2609  0.0582
18403TIP3   OH276699   5.771   6.156   1.553 -1.0175  0.6326 -0.7352
18403TIP3    H176700   5.764   6.203   1.470 -1.8833  0.5606 -0.7113
18403TIP3    H276701   5.791   6.224   1.617 -0.4260  0.6997 -0.9767
18404TIP3   OH276702   2.365   0.689  11.439  0.2083  0.7076 -0.0121
18404TIP3    H176703   2.290   0.701  11.498  0.4345 -0.3317  0.5297
18404TIP3    H276704   2.441   0.686  11.497  0.4198 -0.5078 -0.3188
18405TIP3   OH276705   4.032   1.530   3.469 -0.2632  0.1428  0.0818
18405TIP3    H176706   4.119   1.507   3.438  0.2131  0.9002  0.8259
18405TIP3    H276707   3.981   1.545   3.390  0.4565  0.3478 -0.3449
18406TIP3   OH276708   3.100   5.530   2.979 -0.2841 -0.2518  0.2307
18406TIP3    H176709   3.196   5.530   2.978 -0.1939  2.3628 -0.1057
18406TIP3    H276710   3.077   5.552   3.069 -0.2764  3.9257 -0.5674
18407TIP3   OH276711   2.633   3.693   1.589 -0.0586  0.6324  0.3785
18407TIP3    H176712   2.693   3.631   1.631 -0.7017 -0.7669 -0.6659
18407TIP3    H276713   2.617   3.655   1.502  1.6862  3.6875 -1.4564
18408TIP3   OH276714   0.676   6.653  12.938  0.5210 -0.1378  0.6688
18408TIP3    H176715   0.640   6.688  12.857  0.6028  1.1373  1.1664
18408TIP3    H276716   0.645   6.713  13.006 -0.1780 -1.6080  1.6970
18409TIP3   OH276717   3.232   2.685  12.001  0.3860  0.2904  0.8098
18409TIP3    H176718   3.316   2.638  12.007  0.6006  0.5017 -0.3137
18409TIP3    H276719   3.201   2.689  12.092  0.2416 -2.2172  0.9371
18410TIP3   OH276720   5.501   1.831   3.999 -0.0780 -0.1734  0.2237
18410TIP3    H176721   5.537   1.858   4.084 -0.4559  1.4900 -0.0972
18410TIP3    H276722   5.468   1.742   4.013  0.3496 -0.1256  1.6664
18411TIP3   OH276723   1.041   0.388   3.880 -0.2151 -0.3417 -0.6630
18411TIP3    H176724   1.034   0.482   3.866 -0.5112 -0.1722  0.4559
18411TIP3    H276725   0.982   0.370   3.954  0.9307 -1.1499  0.1046
18412TIP3   OH276726   3.447   0.274  10.570  0.1496  0.6754 -0.3359
18412TIP3    H176727   3.363   0.244  10.536  0.9499  0.4060 -2.2152
18412TIP3    H276728   3.512   0.228  10.517  1.4770  1.4774  0.5330
18413TIP3   OH276729   0.794   1.855   4.340 -0.6447  0.3246  0.3449
18413TIP3    H176730   0.755   1.768   4.329  1.6680 -0.6152 -1.4679
18413TIP3    H276731   0.737   1.914   4.291 -1.0325 -0.5778 -0.3199
18414TIP3   OH276732   6.204   2.636   0.082 -0.1760 -0.4279  0.5598
18414TIP3    H176733   6.221   2.729   0.069 -1.8166 -0.1956 -0.1634
18414TIP3    H276734   6.176   2.629   0.174 -1.2639  0.0065  0.2724
18415TIP3   OH276735   2.207   4.537   1.299 -0.1092 -0.3711  0.1574
18415TIP3    H176736   2.117   4.505   1.308  0.2721 -2.1212 -1.5889
18415TIP3    H276737   2.260   4.458   1.288  1.3965  0.6993 -0.6263
18416TIP3   OH276738   1.421   1.258  11.587 -0.0713 -0.2164 -0.1673
18416TIP3    H176739   1.423   1.353  11.599 -2.3300 -0.1170 -0.2225
18416TIP3    H276740   1.455   1.223  11.670 -1.1287  0.6275  0.6528
18417TIP3   OH276741   5.841   3.377   0.071  0.1383 -0.0741 -0.6985
18417TIP3    H176742   5.768   3.343   0.019 -0.4000  2.1135 -1.4816
18417TIP3    H276743   5.799   3.421   0.145  0.1638  4.5546 -3.0525
18418TIP3   OH276744   1.357   2.711  15.794  0.4684  0.0222 -0.0917
18418TIP3    H176745   1.384   2.703  15.885 -2.7006  2.3642  1.2682
18418TIP3    H276746   1.423   2.768  15.755  0.7078  0.8473  1.4142
18419TIP3   OH276747   1.282   6.542  17.077  0.1279 -0.0349 -0.6563
18419TIP3    H176748   1.352   6.565  17.138 -0.5239  2.4876 -0.7480
18419TIP3    H276749   1.321   6.555  16.991 -0.2482  0.8209 -0.7095
18420TIP3   OH276750   5.801   3.117  13.224 -0.4315 -0.0002 -0.2151
18420TIP3    H176751   5.785   3.173  13.148  1.8080 -2.1125 -2.4476
18420TIP3    H276752   5.883   3.149  13.260  1.0316 -1.8569 -1.6977
18421TIP3   OH276753   0.023   2.327   5.931  0.2412  0.1765  0.0815
18421TIP3    H176754  -0.045   2.394   5.930  1.1985  1.2455  1.4458
18421TIP3    H276755  -0.021   2.248   5.960 -0.3289  1.0268  1.6765
18422TIP3   OH276756   5.730   2.589   1.937 -0.9546  0.9071  0.5520
18422TIP3    H176757   5.722   2.550   1.850 -3.1968  1.0388  0.6556
18422TIP3    H276758   5.654   2.557   1.985  1.2622 -0.7885  3.1867
18423TIP3   OH276759   1.988   0.514   4.325 -0.4059  0.1792  0.3578
18423TIP3    H176760   1.972   0.477   4.238  0.3531 -1.2402  0.7913
18423TIP3    H276761   1.902   0.514   4.366 -0.6067 -0.0732 -0.0474
18424TIP3   OH276762   0.702   4.964   3.546 -0.3057  0.6340  0.1231
18424TIP3    H176763   0.616   4.992   3.512 -0.2976  2.9856  1.7592
18424TIP3    H276764   0.752   4.940   3.468 -1.9391  0.7683 -1.0216
18425TIP3   OH276765   4.658   6.440  13.596 -0.1354 -0.0517  0.1059
18425TIP3    H176766   4.631   6.356  13.632 -1.2882 -0.6168 -1.9109
18425TIP3    H276767   4.743   6.423  13.556 -0.4211 -0.3196 -0.4033
18426TIP3   OH276768   3.405   5.247  16.350  0.3039  0.0253 -0.4937
18426TIP3    H176769   3.358   5.276  16.272  1.1056  0.0602 -0.9707
18426TIP3    H276770   3.342   5.191  16.396 -0.2411  0.1569 -1.0633
18427TIP3   OH276771   1.051   1.231   4.356 -0.3865 -0.0346  0.0291
18427TIP3    H176772   1.119   1.166   4.375 -0.9174 -0.0918  1.9410
18427TIP3    H276773   1.044   1.230   4.260  0.6877 -1.6812 -0.0898
18428TIP3   OH276774   1.085   6.529  14.376  0.5713 -0.1738 -0.2040
18428TIP3    H176775   1.139   6.511  14.299 -0.3352 -0.8520 -0.7052
18428TIP3    H276776   1.042   6.446  14.395 -0.4340  0.3862  0.0654
18429TIP3   OH276777   6.373   2.378   0.150 -0.1349 -0.6095  0.3721
18429TIP3    H176778   6.338   2.434   0.080 -0.2628  0.5293  1.3122
18429TIP3    H276779   6.467   2.396   0.149  0.1101 -1.7902 -0.5130
18430TIP3   OH276780   4.553   5.949   3.630  0.0609  0.8163  0.0795
18430TIP3    H176781   4.643   5.915   3.627 -0.4469 -0.8510  1.8181
18430TIP3    H276782   4.511   5.910   3.553  0.3277  0.0101  0.3303
18431TIP3   OH276783   1.067   5.991   0.106 -0.1006  0.1141  0.4131
18431TIP3    H176784   1.141   5.930   0.107 -0.1441  0.0669  0.7506
18431TIP3    H276785   1.057   6.014   0.013 -0.0268 -0.3224  0.2933
18432TIP3   OH276786   5.214   5.155  10.198 -0.5865  0.1070  0.1432
18432TIP3    H176787   5.199   5.166  10.104  1.2137  0.6451 -0.1189
18432TIP3    H276788   5.217   5.061  10.211 -0.4842  0.0275 -0.4165
18433TIP3   OH276789   1.663   1.687   0.788 -0.2088  0.0121 -0.2041
18433TIP3    H176790   1.687   1.681   0.880 -0.3198 -1.0522 -0.2289
18433TIP3    H276791   1.727   1.631   0.743 -2.3340 -2.5642 -0.3183
18434TIP3   OH276792   5.818   4.629  14.201  0.2555  0.4671  0.1926
18434TIP3    H176793   5.753   4.559  14.208  1.3558 -0.4197  2.9090
18434TIP3    H276794   5.901   4.583  14.188  0.7247  1.4153 -0.2652
18435TIP3   OH276795   4.113   6.640  13.750 -0.8620  0.1791 -0.1782
18435TIP3    H176796   4.174   6.709  13.725 -1.7422  1.1097  0.1762
18435TIP3    H276797   4.057   6.680  13.816 -1.1939 -0.9791  0.2695
18436TIP3   OH276798   6.849   1.607   5.562 -1.0926  0.5465 -0.2911
18436TIP3    H176799   6.890   1.565   5.486  0.9762  1.3472  0.3145
18436TIP3    H276800   6.764   1.565   5.570 -2.1716  1.6534 -4.0990
18437TIP3   OH276801   0.505   6.628   1.034 -0.2633 -0.0927  0.3513
18437TIP3    H176802   0.417   6.660   1.011  0.0338  0.3945 -0.1427
18437TIP3    H276803   0.561   6.705   1.025  0.0423 -0.1321  1.7394
18438TIP3   OH276804   5.884   1.008   0.104 -0.0517  0.0724 -0.2458
18438TIP3    H176805   5.899   0.918   0.130  0.8548  0.2060 -0.2853
18438TIP3    H276806   5.891   1.059   0.185  1.0785  0.2888 -0.4637
18439TIP3   OH276807   4.401   4.068  11.836  0.5152  0.3255 -0.0860
18439TIP3    H176808   4.404   4.158  11.866 -0.5535  0.9274 -1.6176
18439TIP3    H276809   4.308   4.046  11.835  0.6734 -0.3970 -0.7724
18440TIP3   OH276810   3.930   4.443   1.342 -1.1712  0.1071  0.4045
18440TIP3    H176811   3.854   4.455   1.398  0.1179  1.0346  2.0903
18440TIP3    H276812   3.996   4.403   1.400 -0.1059  0.1779 -0.7198
18441TIP3   OH276813   5.043   3.776  13.379 -0.1858 -0.3992 -0.7742
18441TIP3    H176814   5.008   3.716  13.313 -1.0242 -1.5129  0.6292
18441TIP3    H276815   5.135   3.751  13.387  0.0261  0.0027 -1.7612
18442TIP3   OH276816   0.415   0.521  14.448 -0.4022  0.8337 -0.6747
18442TIP3    H176817   0.422   0.606  14.490 -2.4672  0.6853  0.1270
18442TIP3    H276818   0.399   0.540  14.356  0.7958  1.2443 -0.8101
18443TIP3   OH276819   6.482   0.492   1.877  0.1668  0.3525  0.4266
18443TIP3    H176820   6.514   0.417   1.828  1.5600 -0.2116  2.0687
18443TIP3    H276821   6.415   0.530   1.822 -0.7375 -2.2105 -0.4017
18444TIP3   OH276822   5.080   2.462  14.337 -0.5252  0.1869 -0.3517
18444TIP3    H176823   5.015   2.502  14.280 -2.4528 -0.6604  1.1252
18444TIP3    H276824   5.046   2.374  14.355  0.6345 -0.0190  1.0718
18445TIP3   OH276825   1.714   5.783   0.180 -0.0109 -1.2118  0.4294
18445TIP3    H176826   1.642   5.833   0.220  0.6574 -0.3159  0.5505
18445TIP3    H276827   1.675   5.699   0.158 -1.6791 -0.0694 -1.3530
18446TIP3   OH276828   4.181   3.680  14.219  0.5240  0.9223 -0.0041
18446TIP3    H176829   4.249   3.689  14.286  0.4811  1.0068  0.0276
18446TIP3    H276830   4.227   3.689  14.136  0.8245 -0.6362 -0.0422
18447TIP3   OH276831   4.871   4.435   3.795 -0.4902 -0.3221 -0.2673
18447TIP3    H176832   4.917   4.442   3.711  2.6802 -0.6456  1.2769
18447TIP3    H276833   4.882   4.343   3.820 -1.9778 -0.3824  0.2335
18448TIP3   OH276834   2.211   2.845   2.786 -0.3683  0.1855 -0.3196
18448TIP3    H176835   2.119   2.864   2.801 -1.1375 -3.3286  0.5115
18448TIP3    H276836   2.258   2.906   2.843 -2.1893  1.6390 -0.3016
18449TIP3   OH276837   0.058   6.745  13.751 -0.2961  0.4059  0.5803
18449TIP3    H176838   0.003   6.758  13.674 -0.1449 -2.2269 -0.0836
18449TIP3    H276839  -0.001   6.705  13.815  0.4765 -1.3005  0.2890
18450TIP3   OH276840   5.660   3.903  11.233 -0.8767 -0.1906  0.8705
18450TIP3    H176841   5.581   3.888  11.285 -1.3050 -1.0230  0.0094
18450TIP3    H276842   5.718   3.830  11.256 -0.7708 -0.1463  0.7431
18451TIP3   OH276843   1.422   1.420   1.314 -0.5401 -0.9759  0.3047
18451TIP3    H176844   1.345   1.449   1.363  0.8212  0.4700  1.7165
18451TIP3    H276845   1.455   1.499   1.273 -0.0960 -1.6788 -0.7245
18452TIP3   OH276846   2.568   1.221  16.351 -0.4440  0.2352 -0.0417
18452TIP3    H176847   2.565   1.282  16.424 -1.3904 -0.8624  0.8796
18452TIP3    H276848   2.514   1.262  16.283 -0.6695  0.6589  0.3848
18453TIP3   OH276849   5.529   2.574  13.360  0.4398 -0.8110 -0.8596
18453TIP3    H176850   5.609   2.565  13.411  0.4404 -2.3505 -1.0811
18453TIP3    H276851   5.476   2.637  13.409  1.7332  0.1675 -0.6699
18454TIP3   OH276852   1.998   3.261   1.890 -0.3607  0.4125 -0.5741
18454TIP3    H176853   2.028   3.345   1.927 -1.1808 -0.8500  3.4834
18454TIP3    H276854   1.903   3.267   1.893 -0.4378 -0.7974  0.3379
18455TIP3   OH276855   1.342   2.383  13.880 -0.6599  0.0242 -0.7202
18455TIP3    H176856   1.319   2.409  13.791  0.8559 -1.8458 -1.7288
18455TIP3    H276857   1.438   2.387  13.882 -0.5699 -1.6729  0.2362
18456TIP3   OH276858   5.409   6.366  12.820  0.3494 -0.1991  0.4310
18456TIP3    H176859   5.356   6.350  12.742 -1.2727 -0.3315  1.5088
18456TIP3    H276860   5.345   6.377  12.890  1.7472  0.5385  1.6379
18457TIP3   OH276861   6.004   5.227  13.988 -0.1849 -0.1957  0.3206
18457TIP3    H176862   6.039   5.187  14.068  1.6648  1.1429  0.2408
18457TIP3    H276863   5.930   5.171  13.964 -0.8014 -0.6374  2.9440
18458TIP3   OH276864   0.978   0.894   1.849  0.2436 -0.2106  0.4791
18458TIP3    H176865   0.922   0.921   1.923  1.0443  0.4635  0.8482
18458TIP3    H276866   1.062   0.936   1.866  0.7091 -0.7843 -0.3582
18459TIP3   OH276867   1.663   6.327  16.598 -0.0974  0.2433  0.4867
18459TIP3    H176868   1.692   6.318  16.507  1.2104 -3.4447  1.1078
18459TIP3    H276869   1.611   6.249  16.616 -0.0146  0.6621  3.0395
18460TIP3   OH276870   4.710   1.619   4.978  0.2261  0.4313 -0.1469
18460TIP3    H176871   4.782   1.563   4.951 -0.2355 -0.8665  1.1541
18460TIP3    H276872   4.678   1.659   4.897  1.0318 -0.6444 -1.0149
18461TIP3   OH276873   5.874   5.346  13.682  0.4934 -0.1089  0.4052
18461TIP3    H176874   5.781   5.361  13.697  0.0220  0.2496 -2.2832
18461TIP3    H276875   5.877   5.268  13.627  1.8928 -0.7633  1.3437
18462TIP3   OH276876   2.917   3.318   5.569 -0.2461  0.0156 -0.1234
18462TIP3    H176877   2.947   3.275   5.649  0.5653  0.4789 -0.1683
18462TIP3    H276878   2.900   3.409   5.596 -0.1197  0.1334 -0.4384
18463TIP3   OH276879   1.308   5.405  14.817  0.2436  0.0213 -0.3966
18463TIP3    H176880   1.303   5.473  14.884  2.2561 -0.4874  0.3355
18463TIP3    H276881   1.255   5.333  14.851  1.7927 -0.4970  1.0195
18464TIP3   OH276882   6.006   6.075  11.317 -0.3450  0.3550 -0.2198
18464TIP3    H176883   6.098   6.092  11.338 -0.0632 -0.5565 -0.6604
18464TIP3    H276884   5.985   6.137  11.247  0.3864 -0.3849 -1.1365
18465TIP3   OH276885   6.502   3.775  11.455  0.4225 -0.0125  0.3065
18465TIP3    H176886   6.591   3.798  11.427 -0.0607  1.5824 -0.0002
18465TIP3    H276887   6.490   3.820  11.538 -0.2955  0.2453  0.0709
18466TIP3   OH276888   0.361   5.001   4.138 -0.1316 -0.1354  0.2166
18466TIP3    H176889   0.313   4.939   4.084 -1.3794  1.0464 -0.0782
18466TIP3    H276890   0.299   5.027   4.206 -0.5308  2.5710 -1.0525
18467TIP3   OH276891   5.561   2.199   0.864 -0.3432 -0.7643 -0.3671
18467TIP3    H176892   5.652   2.200   0.892 -0.1905  0.0610 -0.8522
18467TIP3    H276893   5.539   2.106   0.854  0.3063 -0.9788  0.1726
18468TIP3   OH276894   5.251   2.972  13.592 -0.0610  0.1829 -0.5695
18468TIP3    H176895   5.212   3.011  13.670  0.4966 -0.1170 -0.1355
18468TIP3    H276896   5.265   3.047  13.533  1.0579  0.6734  0.2819
18469TIP3   OH276897   2.395   4.571  11.548  1.0071  0.1087 -0.5985
18469TIP3    H176898   2.325   4.630  11.573  1.3343 -0.1320  0.9682
18469TIP3    H276899   2.351   4.501  11.499  0.5950  1.4872 -2.3037
18470TIP3   OH276900   2.641   0.961   1.478  0.0022  0.1414  0.4826
18470TIP3    H176901   2.712   0.948   1.415  1.5709 -1.1089  2.3646
18470TIP3    H276902   2.618   0.872   1.506 -0.9296  0.6442  1.3570
18471TIP3   OH276903   1.075   5.793  16.467  0.4023 -0.6104  0.2235
18471TIP3    H176904   1.125   5.784  16.548 -0.4308 -0.3007  0.7906
18471TIP3    H276905   1.139   5.779  16.397  1.1654 -0.7232  0.9307
18472TIP3   OH276906   1.895   2.745  12.565  0.2346 -0.0412  0.1995
18472TIP3    H176907   1.807   2.711  12.547  0.4279 -0.3108 -0.2678
18472TIP3    H276908   1.926   2.694  12.639 -0.2247  0.4582  0.7490
18473TIP3   OH276909   6.104   1.032  17.038  0.3597 -0.0114  0.6103
18473TIP3    H176910   6.157   0.986  17.103 -0.0243 -0.6997  0.4414
18473TIP3    H276911   6.016   1.035  17.076  0.7301  2.1527  1.4143
18474TIP3   OH276912   4.111   5.200   4.813  0.8412  0.0414 -0.2804
18474TIP3    H176913   4.033   5.247   4.842 -0.2257 -1.9935  0.3804
18474TIP3    H276914   4.105   5.115   4.857  2.7027 -0.6872 -1.3306
18475TIP3   OH276915   3.795   1.141   0.998  0.3953 -0.3682  0.8018
18475TIP3    H176916   3.722   1.125   1.059  0.1577 -2.1473  0.1291
18475TIP3    H276917   3.843   1.214   1.037 -1.1826  0.2046  1.7800
18476TIP3   OH276918   4.899   0.685  13.871  0.4872  0.4882 -0.2400
18476TIP3    H176919   4.946   0.630  13.808  0.9154 -1.6936  1.8468
18476TIP3    H276920   4.832   0.627  13.908  2.0316  0.7104  3.2861
18477TIP3   OH276921   0.589   4.175  13.506 -0.4345  0.0853  0.2299
18477TIP3    H176922   0.649   4.129  13.448 -0.8588 -0.6606  0.3685
18477TIP3    H276923   0.645   4.232  13.558 -0.0051  0.4406 -0.6031
18478TIP3   OH276924   6.679   2.387  13.542  0.6247 -0.5287 -0.6234
18478TIP3    H176925   6.646   2.331  13.612  0.2236 -2.1595 -2.0467
18478TIP3    H276926   6.773   2.391  13.557  0.5282 -0.7765  0.0650
18479TIP3   OH276927   3.545   0.935   5.710 -0.1808 -0.5799 -0.4270
18479TIP3    H176928   3.603   0.866   5.744  0.5849 -0.9214 -2.3000
18479TIP3    H276929   3.576   1.015   5.752  1.1869 -0.8732 -0.8351
18480TIP3   OH276930   0.256   1.635   1.992 -0.0065  0.0191 -0.8324
18480TIP3    H176931   0.184   1.696   1.978  0.5878  0.3446 -2.7078
18480TIP3    H276932   0.325   1.688   2.032 -0.8293 -0.3511  1.2201
18481TIP3   OH276933   0.280   1.836  12.191 -0.6598 -0.5216  0.7009
18481TIP3    H176934   0.186   1.822  12.194 -0.4855 -1.7932  1.1504
18481TIP3    H276935   0.317   1.759  12.234  0.6213 -0.5326 -0.3247
18482TIP3   OH276936   1.593   2.224  12.364 -0.1512  0.1333  0.1876
18482TIP3    H176937   1.640   2.154  12.319 -0.4846 -0.1255  0.2363
18482TIP3    H276938   1.650   2.300  12.356  1.1060 -0.5741  1.7394
18483TIP3   OH276939   3.983   4.073  15.382  0.4756  0.3028 -0.5735
18483TIP3    H176940   4.008   4.108  15.296  2.1358  0.5251 -0.0367
18483TIP3    H276941   4.064   4.076  15.433 -0.8684  2.0110  1.6439
18484TIP3   OH276942   5.994   4.450  15.175  0.0627 -0.2169 -0.1061
18484TIP3    H176943   6.010   4.364  15.136 -0.9051 -0.0622 -0.8748
18484TIP3    H276944   5.927   4.435  15.241  0.5485 -0.1984  0.4012
18485TIP3   OH276945   1.699   1.728   4.657 -0.1311 -0.1794  0.0261
18485TIP3    H176946   1.726   1.761   4.571 -0.3059  1.2312  0.4780
18485TIP3    H276947   1.748   1.782   4.720  0.3329 -1.4815  0.8198
18486TIP3   OH276948   6.079   2.039  10.492  0.1918 -0.4356 -0.2740
18486TIP3    H176949   6.027   2.118  10.509 -2.2357 -2.3986  2.7027
18486TIP3    H276950   6.166   2.071  10.469 -1.1310  3.0711 -0.9721
18487TIP3   OH276951   3.725   0.865  14.588 -0.2072  0.4659 -0.3022
18487TIP3    H176952   3.642   0.844  14.632  0.0134 -0.6469 -0.3733
18487TIP3    H276953   3.723   0.960  14.576 -1.3049  0.4985  0.0306
18488TIP3   OH276954   0.547   0.281  15.267  0.7074 -0.3025  0.5372
18488TIP3    H176955   0.605   0.255  15.195  0.7844  0.2198  0.4034
18488TIP3    H276956   0.460   0.285  15.227  0.9432  1.3687  0.0936
18489TIP3   OH276957   3.476   0.916   6.055  0.1895  0.0905 -0.0730
18489TIP3    H176958   3.407   0.851   6.061  0.0901  0.2663  0.9347
18489TIP3    H276959   3.556   0.866   6.039 -0.1719 -0.1044 -1.3089
18490TIP3   OH276960   4.446   2.227   3.157 -0.0848  0.1102  0.3033
18490TIP3    H176961   4.373   2.275   3.119  0.0315 -1.0605 -1.5775
18490TIP3    H276962   4.445   2.142   3.111  1.5964 -0.4571  1.2187
18491TIP3   OH276963   2.107   3.581   4.040 -0.4423  0.6819  0.4171
18491TIP3    H176964   2.102   3.641   4.115  0.7903 -1.7403  2.6084
18491TIP3    H276965   2.018   3.548   4.030 -0.6308  1.0712  0.7546
18492TIP3   OH276966   3.253   5.494  14.067 -0.7207  0.1459  0.6591
18492TIP3    H176967   3.164   5.477  14.096 -1.7901  0.8745 -1.9092
18492TIP3    H276968   3.273   5.582  14.100 -2.2420  1.3300 -1.3800
18493TIP3   OH276969   3.780   6.815  15.408  0.1101  0.2741 -0.0437
18493TIP3    H176970   3.760   6.785  15.496 -0.3090 -2.2980 -0.9339
18493TIP3    H276971   3.874   6.835  15.410 -0.1196  1.3614  1.2252
18494TIP3   OH276972   1.223   2.668   3.114  0.3196  0.0010 -0.4789
18494TIP3    H176973   1.308   2.696   3.147  0.1341 -0.4114  0.3642
18494TIP3    H276974   1.224   2.693   3.021  1.4905 -0.3110 -0.5638
18495TIP3   OH276975   2.567   3.802  11.376  0.0008  0.0505 -0.7369
18495TIP3    H176976   2.495   3.765  11.428  0.8698  0.4237  0.7934
18495TIP3    H276977   2.531   3.884  11.341 -0.4104  0.1066 -0.2051
18496TIP3   OH276978   2.836   6.073   4.650 -0.4115 -0.0063  0.0903
18496TIP3    H176979   2.856   6.164   4.669  0.6188 -0.7532  3.0862
18496TIP3    H276980   2.920   6.028   4.653 -0.7731 -0.9911 -2.2569
18497TIP3   OH276981   0.434   4.493   4.971 -0.1560 -0.3902 -0.2565
18497TIP3    H176982   0.499   4.423   4.974  0.0105 -0.2161  0.2450
18497TIP3    H276983   0.485   4.573   4.979 -0.5483 -0.3014  1.9225
18498TIP3   OH276984   4.839   0.307  11.503 -0.3020  0.3398 -0.0199
18498TIP3    H176985   4.906   0.258  11.455 -0.3044 -0.6814  0.9739
18498TIP3    H276986   4.777   0.336  11.436 -0.0062 -0.5548 -0.6951
18499TIP3   OH276987   1.552   5.076  12.914  0.3063  0.0811  0.1560
18499TIP3    H176988   1.495   5.089  12.990 -0.4065 -1.7252 -0.0116
18499TIP3    H276989   1.587   5.162  12.895  0.5544  0.5751  2.5680
18500TIP3   OH276990   6.029   5.614   2.870  0.1537 -0.0256  0.3218
18500TIP3    H176991   6.017   5.538   2.927  1.4773  0.9513  2.0118
18500TIP3    H276992   5.942   5.653   2.862 -0.7853 -2.2967 -1.5311
18501TIP3   OH276993   6.046   4.149   0.025  0.6118 -0.5458  0.9460
18501TIP3    H176994   6.140   4.166   0.028  0.8576  0.3169 -3.7425
18501TIP3    H276995   6.006   4.235   0.038  0.7044 -0.2932 -0.3085
18502TIP3   OH276996   0.416   2.017  14.270  0.2628 -0.8496 -0.6663
18502TIP3    H176997   0.468   1.971  14.204  0.6707  0.1704 -1.0814
18502TIP3    H276998   0.449   1.986  14.353  0.9743 -0.8415 -0.9384
18503TIP3   OH276999   3.779   6.116   5.388  0.0322 -0.5131 -0.1324
18503TIP3    H177000   3.745   6.028   5.374  2.5846 -1.3143 -2.1873
18503TIP3    H277001   3.855   6.103   5.444  1.0610  0.1753 -1.3190
18504TIP3   OH277002   0.586   2.579   2.295 -0.2954  0.1126 -0.5410
18504TIP3    H177003   0.555   2.491   2.316 -1.1678  0.6845  0.7178
18504TIP3    H277004   0.516   2.617   2.241  0.6300 -0.3535 -2.1219
18505TIP3   OH277005   1.799   2.457  13.026 -0.1922 -0.0840  0.0202
18505TIP3    H177006   1.873   2.444  12.966 -0.1036  1.5247 -0.2504
18505TIP3    H277007   1.802   2.550  13.049  0.0005 -0.6919  2.8382
18506TIP3   OH277008   2.481   1.226   3.548 -0.4030 -0.3340 -0.3018
18506TIP3    H177009   2.515   1.202   3.462  0.3806  0.9542 -0.3915
18506TIP3    H277010   2.429   1.151   3.576  1.7769 -2.0473 -0.5858
18507TIP3   OH277011   5.131   4.554  12.852  0.6641 -0.0355 -0.4677
18507TIP3    H177012   5.154   4.624  12.913 -1.0904 -0.7931  1.1335
18507TIP3    H277013   5.213   4.507  12.839  1.7548  1.8992 -1.1300
18508TIP3   OH277014   4.464   5.017  11.516  0.2280 -0.1002  0.1333
18508TIP3    H177015   4.416   4.953  11.464  1.7425 -1.5582  0.4059
18508TIP3    H277016   4.485   4.971  11.597  0.6328  1.0492  0.7087
18509TIP3   OH277017   6.676   0.214  14.793  0.3182  0.2974 -0.0644
18509TIP3    H177018   6.668   0.176  14.705 -1.9606 -0.5191  0.4055
18509TIP3    H277019   6.590   0.252  14.810  0.7091  0.4321  1.8084
18510TIP3   OH277020   0.922   2.626  13.403  0.1370 -0.3870  0.3554
18510TIP3    H177021   0.984   2.680  13.452  0.7949 -0.3206 -0.5292
18510TIP3    H277022   0.916   2.668  13.317 -1.1403 -0.3905  0.4226
18511TIP3   OH277023   2.226   2.347   0.059  0.4567 -0.0100 -0.1069
18511TIP3    H177024   2.255   2.438   0.059  1.4106 -0.2882  0.6841
18511TIP3    H277025   2.136   2.350   0.026  0.8151  1.0919 -1.0691
18512TIP3   OH277026   2.026   5.431   5.472  0.2387  0.0226  0.0251
18512TIP3    H177027   1.963   5.394   5.410  1.7582 -2.1158 -0.3413
18512TIP3    H277028   2.075   5.356   5.504  2.1351  1.5339  0.8312
18513TIP3   OH277029   2.467   2.801   4.155  0.0748  0.5436  0.4859
18513TIP3    H177030   2.452   2.831   4.065 -3.7752 -0.5736  0.5681
18513TIP3    H277031   2.436   2.710   4.155 -0.3294  0.6201  2.9936
18514TIP3   OH277032   5.745   6.345  14.985 -0.0108  0.1807  0.5535
18514TIP3    H177033   5.659   6.302  14.982  0.3274 -0.5645  1.1665
18514TIP3    H277034   5.767   6.358  14.893 -0.0464 -1.1582  0.3256
18515TIP3   OH277035   0.055   4.376   5.269 -0.1982 -0.1986 -0.3289
18515TIP3    H177036   0.063   4.407   5.179  1.7722  1.9156  0.4782
18515TIP3    H277037  -0.039   4.379   5.287 -0.4969  0.8550 -1.8139
18516TIP3   OH277038   5.303   3.507  12.839  0.4392 -0.7691 -0.0776
18516TIP3    H177039   5.290   3.589  12.792  2.0012  0.0160  0.7612
18516TIP3    H277040   5.223   3.495  12.890  1.2584  1.8918  2.1216
18517TIP3   OH277041   2.535   6.579   3.198  0.1980  0.1449  0.1562
18517TIP3    H177042   2.442   6.579   3.224 -0.2976 -2.5871 -1.2436
18517TIP3    H277043   2.544   6.655   3.141 -1.3360  0.1794 -0.0833
18518TIP3   OH277044   5.277   5.316   2.443  0.4442  0.1860  0.2913
18518TIP3    H177045   5.362   5.303   2.401 -0.0257  0.2102 -0.6878
18518TIP3    H277046   5.274   5.249   2.511  0.9288 -0.3032 -0.1623
18519TIP3   OH277047   2.173   1.268  12.706 -0.0117  0.3612 -0.2954
18519TIP3    H177048   2.248   1.315  12.670  0.0701 -0.5535 -1.3572
18519TIP3    H277049   2.146   1.321  12.781  1.7004  0.6923  0.1338
18520TIP3   OH277050   2.057   3.007  15.238  0.2124 -0.3112  0.4391
18520TIP3    H177051   1.966   2.984  15.258  0.3988 -1.6257 -0.1477
18520TIP3    H277052   2.107   2.979  15.315  0.3967 -1.6374 -0.1436
18521TIP3   OH277053   2.480   5.554   3.019  0.4659  0.5183  0.1132
18521TIP3    H177054   2.505   5.606   2.943 -1.4384 -2.5911 -2.9491
18521TIP3    H277055   2.549   5.489   3.028 -0.3165 -0.4141 -0.3838
18522TIP3   OH277056   2.163   4.533   2.626 -0.2536  0.3802  0.1647
18522TIP3    H177057   2.171   4.478   2.548 -2.2456 -0.4852  0.4984
18522TIP3    H277058   2.157   4.622   2.593 -2.4225 -0.0726 -0.8374
18523TIP3   OH277059   5.904   5.385  14.869  0.4019  0.0284  0.0961
18523TIP3    H177060   5.850   5.391  14.947  1.6536 -2.4659  1.2528
18523TIP3    H277061   5.987   5.426  14.894  0.4664  0.1221 -0.2646
18524TIP3   OH277062   3.060   4.696  13.331 -0.0101 -0.4334 -0.1074
18524TIP3    H177063   3.015   4.642  13.267 -1.1229  0.4872 -0.1266
18524TIP3    H277064   3.007   4.775  13.338 -0.6676 -1.0030  2.8600
18525TIP3   OH277065   6.737   3.494  16.862 -0.3789 -0.1184  0.0514
18525TIP3    H177066   6.669   3.481  16.928  0.0843 -1.2906  0.3369
18525TIP3    H277067   6.808   3.539  16.909 -1.0274  1.3289 -0.3093
18526TIP3   OH277068   2.830   5.489   1.929  0.3401 -0.7885 -0.3736
18526TIP3    H177069   2.754   5.447   1.889 -0.2313 -0.1732  0.0495
18526TIP3    H277070   2.794   5.547   1.996  1.0628  0.7957 -1.2878
18527TIP3   OH277071   5.000   1.447   3.538  0.1627  0.4121 -0.0885
18527TIP3    H177072   4.963   1.409   3.458 -0.4360 -0.3398  0.5295
18527TIP3    H277073   5.047   1.374   3.579 -0.1441  0.6023  0.6079
18528TIP3   OH277074   0.058   2.016  16.973 -0.6360 -0.6871  0.1474
18528TIP3    H177075   0.086   1.944  17.029  1.5249 -0.3831 -0.4562
18528TIP3    H277076   0.043   1.975  16.888  0.2123 -0.5072 -0.0969
18529TIP3   OH277077   0.647   2.649   3.533 -0.4052 -0.1681 -0.6627
18529TIP3    H177078   0.571   2.591   3.538 -1.2923  0.7605 -2.2678
18529TIP3    H277079   0.723   2.592   3.542 -1.2703 -1.3154 -0.4629
18530TIP3   OH277080   2.200   2.854  11.254 -0.0380  0.3863 -0.5716
18530TIP3    H177081   2.246   2.813  11.180 -0.2852  0.3904 -0.7299
18530TIP3    H277082   2.268   2.905  11.299  0.5494 -1.1380  0.3350
18531TIP3   OH277083   1.379   1.358   2.691 -0.6855 -0.0986  0.0654
18531TIP3    H177084   1.292   1.383   2.659 -0.2373 -0.8676 -1.8875
18531TIP3    H277085   1.365   1.275   2.736 -0.8691 -0.6483 -0.9733
18532TIP3   OH277086   6.147   3.063  15.747  0.6815  0.4373  0.6391
18532TIP3    H177087   6.175   3.041  15.836  0.2999  1.6265  1.0603
18532TIP3    H277088   6.208   3.132  15.719  0.8881 -0.0255 -0.0856
18533TIP3   OH277089   2.422   3.988   4.892  0.3866 -0.1714 -0.1733
18533TIP3    H177090   2.389   4.076   4.911 -1.9683 -1.0118  0.0204
18533TIP3    H277091   2.468   3.996   4.809  1.5855  1.5221  0.6042
18534TIP3   OH277092   4.862   5.718   2.040 -0.2075  0.2141 -0.9022
18534TIP3    H177093   4.871   5.673   2.125 -1.6759 -0.0485 -0.8525
18534TIP3    H277094   4.836   5.807   2.063 -0.3287  0.2206 -1.0638
18535TIP3   OH277095   3.795   1.745  15.787 -0.1094  0.0050 -0.0638
18535TIP3    H177096   3.857   1.798  15.736 -1.7501  1.9617 -0.1361
18535TIP3    H277097   3.836   1.738  15.873 -0.1185  2.0011  0.1523
18536TIP3   OH277098   3.923   0.408  12.063  0.1841  0.4607 -0.3842
18536TIP3    H177099   3.971   0.438  12.140 -0.8086 -0.8822  0.8116
18536TIP3    H277100   3.947   0.471  11.994 -0.5951  3.0436  1.5398
18537TIP3   OH277101   1.383   0.807  16.221 -0.2727 -0.3375 -0.2772
18537TIP3    H177102   1.460   0.828  16.169 -1.0315  2.1536 -0.5189
18537TIP3    H277103   1.405   0.834  16.310 -0.8521  0.4140 -0.3502
18538TIP3   OH277104   1.386   5.194   4.003  0.6492 -0.1806 -0.5790
18538TIP3    H177105   1.358   5.199   3.912  0.7397  1.4134 -0.5473
18538TIP3    H277106   1.407   5.285   4.027 -0.2292 -0.4088  1.2871
18539TIP3   OH277107   0.231   1.355  15.645 -0.0446 -0.2573 -0.0784
18539TIP3    H177108   0.308   1.353  15.702  0.8979  2.0830 -1.1252
18539TIP3    H277109   0.253   1.296  15.573 -0.3466 -1.5700  0.8689
18540TIP3   OH277110   0.342   2.806   2.650  0.0615  0.0929  0.1236
18540TIP3    H177111   0.399   2.734   2.675 -1.2903 -1.2080 -0.4323
18540TIP3    H277112   0.361   2.821   2.557  1.5338  1.6381  0.6009
18541TIP3   OH277113   3.561   0.584  16.474  0.3759  0.0975  0.0214
18541TIP3    H177114   3.505   0.586  16.552  2.0852  1.1699  1.2993
18541TIP3    H277115   3.597   0.672  16.468 -0.0777  0.1834 -2.3175
18542TIP3   OH277116   3.825   5.639  14.040 -0.2126 -0.1089  0.2057
18542TIP3    H177117   3.884   5.569  14.013 -0.4312  0.2253 -1.2229
18542TIP3    H277118   3.883   5.712  14.062 -0.0385 -0.1313 -0.1602
18543TIP3   OH277119   3.609   3.419  12.939  0.6321  0.4004 -0.0038
18543TIP3    H177120   3.608   3.382  12.850 -0.8194 -0.0330  0.1625
18543TIP3    H277121   3.543   3.488  12.937  0.7514  0.5414  0.6853
18544TIP3   OH277122   2.749   2.454   0.809 -0.3575 -0.2406  0.2446
18544TIP3    H177123   2.749   2.375   0.864  1.3287 -0.3576  0.1332
18544TIP3    H277124   2.835   2.453   0.767 -0.4276  1.5120  0.0201
18545TIP3   OH277125   6.393   4.251   2.461  0.4078 -0.3565  0.0820
18545TIP3    H177126   6.397   4.239   2.556  0.0285 -2.8969 -0.1322
18545TIP3    H277127   6.306   4.219   2.437  1.0232 -1.1511 -1.2288
18546TIP3   OH277128   1.261   1.545  12.508 -0.1170 -0.2250 -0.2129
18546TIP3    H177129   1.189   1.603  12.484 -0.6316 -0.1251  1.4362
18546TIP3    H277130   1.339   1.590  12.477 -0.6990 -0.0718 -1.5374
18547TIP3   OH277131   1.708   3.965  12.484  0.0645 -0.4106  0.4124
18547TIP3    H177132   1.686   3.973  12.576 -0.8135 -0.3334  0.2081
18547TIP3    H277133   1.670   4.042  12.443  0.2347 -0.5650 -0.0526
18548TIP3   OH277134   5.483   3.716   4.465  0.5314  0.0797 -0.0991
18548TIP3    H177135   5.407   3.659   4.459  0.5064  0.1307 -0.2664
18548TIP3    H277136   5.461   3.791   4.411  0.7156  0.0765 -0.1792
18549TIP3   OH277137   0.974   3.006   5.056  0.2632 -0.5517 -0.6078
18549TIP3    H177138   0.883   3.018   5.082  0.3589 -0.2782 -0.3871
18549TIP3    H277139   0.990   2.912   5.065  0.6555 -0.3186  1.5608
18550TIP3   OH277140   5.802   3.605  11.060  0.8217  0.3729 -0.4925
18550TIP3    H177141   5.721   3.656  11.067  0.9179  0.2788  3.0254
18550TIP3    H277142   5.778   3.529  11.007 -1.6657 -0.0418  1.0807
18551TIP3   OH277143   6.194   6.052  12.646 -0.1146 -0.0035 -0.2082
18551TIP3    H177144   6.157   5.968  12.675  0.5897 -0.5493 -0.8568
18551TIP3    H277145   6.190   6.108  12.724 -1.3904 -0.3540  0.0001
18552TIP3   OH277146   4.852   6.453  13.855  0.2517  0.0796  0.5847
18552TIP3    H177147   4.776   6.481  13.907  0.5957  1.6865  0.2560
18552TIP3    H277148   4.845   6.357  13.855 -0.3284  0.0482  2.7313
18553TIP3   OH277149   4.191   0.995  12.067 -0.1348  0.5394  0.5734
18553TIP3    H177150   4.252   1.034  12.005 -0.1573 -0.5255 -0.1551
18553TIP3    H277151   4.124   0.954  12.012  0.5823 -1.6494  1.1939
18554TIP3   OH277152   3.376   5.435   1.851 -0.0410  0.7255 -0.3461
18554TIP3    H177153   3.356   5.353   1.805 -0.2617  0.4288  0.2793
18554TIP3    H277154   3.291   5.469   1.877  0.0110  1.4059 -1.0118
18555TIP3   OH277155   6.602   2.995  12.431  0.2904 -0.4726 -0.0646
18555TIP3    H177156   6.577   2.998  12.339  0.1031  0.4914  0.0033
18555TIP3    H277157   6.533   2.943  12.473 -0.3714  0.2325 -0.2580
18556TIP3   OH277158   5.936   0.422  15.949 -0.2450 -0.2740 -0.0866
18556TIP3    H177159   5.876   0.354  15.917 -1.4453  0.1865  1.0939
18556TIP3    H277160   5.991   0.376  16.013  0.4648 -0.6288 -0.9415
18557TIP3   OH277161   1.619   4.403  15.692  0.1216 -0.5779 -0.7649
18557TIP3    H177162   1.637   4.425  15.783 -0.0211  0.5445 -0.9940
18557TIP3    H277163   1.551   4.465  15.665  1.0712 -0.0360 -2.0047
18558TIP3   OH277164   0.629   3.071   3.166  0.4635 -0.4359 -0.7146
18558TIP3    H177165   0.670   3.117   3.239  0.7268 -0.5971 -0.7626
18558TIP3    H277166   0.635   3.132   3.093  0.4886 -0.4026 -0.6847
18559TIP3   OH277167   6.134   2.324   5.577 -0.7356 -0.1794  0.2618
18559TIP3    H177168   6.161   2.266   5.648 -0.7665 -0.6944 -0.1440
18559TIP3    H277169   6.051   2.288   5.546 -1.5167  0.9306  0.9682
18560TIP3   OH277170   0.615   3.358  16.594  0.4742 -0.4218 -0.0906
18560TIP3    H177171   0.567   3.417  16.537 -1.7260 -0.9673  1.0608
18560TIP3    H277172   0.634   3.410  16.672  0.9317 -0.4663 -0.1731
18561TIP3   OH277173   0.559   6.628   2.038  0.5789 -0.0827  0.5120
18561TIP3    H177174   0.514   6.693   1.983 -0.4736 -1.2330 -0.0248
18561TIP3    H277175   0.557   6.547   1.986  0.2666 -0.9979  1.9076
18562TIP3   OH277176   1.658   6.311  14.827 -0.4108 -0.1734 -0.3848
18562TIP3    H177177   1.612   6.393  14.807  1.0151  0.6808 -0.3409
18562TIP3    H277178   1.742   6.340  14.863 -0.8765 -1.6408  2.1407
18563TIP3   OH277179   5.232   2.856  10.377  0.3025 -0.4940 -0.1374
18563TIP3    H177180   5.284   2.873  10.456  0.3925 -0.1343 -0.2714
18563TIP3    H277181   5.271   2.912  10.310 -0.6985  0.3261 -0.0583
18564TIP3   OH277182   5.910   4.362   6.626  0.1497 -0.5946 -0.2276
18564TIP3    H177183   5.866   4.390   6.545 -2.3435 -2.8691  0.1845
18564TIP3    H277184   6.003   4.362   6.604 -0.3105  0.6938 -2.4638
18565TIP3   OH277185   1.768   3.788  15.813  0.4102 -0.5842  0.2024
18565TIP3    H177186   1.722   3.840  15.878  1.0691  0.7164 -0.3396
18565TIP3    H277187   1.823   3.729  15.864  1.7301  1.1373  0.8790
18566TIP3   OH277188   3.809   0.600  15.617 -0.2966  0.0018  0.4949
18566TIP3    H177189   3.864   0.665  15.573  0.6906 -1.3046 -0.2634
18566TIP3    H277190   3.720   0.622  15.590  0.0150  1.0369  0.2603
18567TIP3   OH277191   2.618   0.903   2.822  0.3184  0.4988 -0.0877
18567TIP3    H177192   2.615   0.811   2.797  0.0058  0.5445 -0.2141
18567TIP3    H277193   2.584   0.905   2.912  0.7997  0.4264  0.1016
18568TIP3   OH277194   3.974   1.653  10.636 -0.2237  0.3792  0.1247
18568TIP3    H177195   4.038   1.720  10.661  0.0983 -0.0035  0.3434
18568TIP3    H277196   3.928   1.633  10.718 -1.6721  1.7204 -0.2991
18569TIP3   OH277197   3.624   1.968  16.164 -0.0078  0.2997  0.3203
18569TIP3    H177198   3.586   2.039  16.217  1.6136  1.4198  0.0523
18569TIP3    H277199   3.562   1.896  16.174 -2.2108  2.0122 -0.0915
18570TIP3   OH277200   4.757   5.755   4.785  0.3974  0.1817  0.1688
18570TIP3    H177201   4.820   5.793   4.724  0.6876  2.0405  1.5374
18570TIP3    H277202   4.682   5.815   4.782  0.0946 -0.1317  1.0638
18571TIP3   OH277203   5.230   0.146  11.694 -0.1290  0.1858  0.3390
18571TIP3    H177204   5.142   0.111  11.679 -0.0027 -0.1428  0.3474
18571TIP3    H277205   5.289   0.080  11.658  0.1067  0.6014 -0.0501
18572TIP3   OH277206   3.043   5.431   0.693 -0.0141 -0.0487 -0.2420
18572TIP3    H177207   3.003   5.349   0.665 -1.3510  0.2954  0.5874
18572TIP3    H277208   3.088   5.463   0.615  0.3132 -1.4169 -0.6560
18573TIP3   OH277209   4.433   5.166   4.711 -0.1716 -0.0027 -0.2048
18573TIP3    H177210   4.449   5.191   4.802 -0.6989  1.3666 -0.4654
18573TIP3    H277211   4.471   5.079   4.703 -1.1140 -0.6329  1.6322
18574TIP3   OH277212   1.472   2.734   0.031 -0.0296  0.2818 -0.0113
18574TIP3    H177213   1.495   2.709   0.120  1.6591 -2.6140 -1.1252
18574TIP3    H277214   1.550   2.776  -0.004  0.9360 -2.4055 -1.3380
18575TIP3   OH277215   4.285   2.938   4.746  0.8567  0.5516 -0.5720
18575TIP3    H177216   4.307   2.936   4.839  0.3911  1.6020 -0.4251
18575TIP3    H277217   4.245   3.024   4.733  0.1837  0.1021 -1.5767
18576TIP3   OH277218   5.646   0.573  13.657  0.1314 -0.0200 -0.4988
18576TIP3    H177219   5.737   0.600  13.644 -0.7671  1.8565 -4.2502
18576TIP3    H277220   5.646   0.480  13.636  1.2910 -0.3113  0.6197
18577TIP3   OH277221   4.996   6.115  16.739  0.2563 -0.0016 -0.2353
18577TIP3    H177222   5.030   6.205  16.748 -0.7716  0.3113  0.6541
18577TIP3    H277223   4.953   6.115  16.654  1.0067  0.0821 -0.6300
18578TIP3   OH277224   2.092   5.786   4.909  0.1704  0.0944 -0.3058
18578TIP3    H177225   2.077   5.879   4.891  1.0412  0.1328 -0.9242
18578TIP3    H277226   2.021   5.741   4.864  1.0109  0.3441 -1.9791
18579TIP3   OH277227   2.710   4.449  16.020 -0.5664  0.0413 -0.2499
18579TIP3    H177228   2.670   4.534  16.040 -0.7283  0.3858 -1.8833
18579TIP3    H277229   2.804   4.464  16.027 -0.5661  0.5660 -1.2160
18580TIP3   OH277230   0.296   0.626  14.204  0.2051 -0.1343 -0.3449
18580TIP3    H177231   0.286   0.553  14.143 -1.6385  0.1169 -0.4043
18580TIP3    H277232   0.309   0.702  14.147  2.7965 -0.4086 -0.2771
18581TIP3   OH277233   3.570   4.532   3.952  0.5634  0.4346 -0.0058
18581TIP3    H177234   3.640   4.584   3.912 -0.0078  1.9525  0.8565
18581TIP3    H277235   3.496   4.541   3.892  0.2145  1.3372  0.5369
18582TIP3   OH277236   2.013   1.605   0.921 -0.1543  0.0313  0.3885
18582TIP3    H177237   1.977   1.630   1.006  1.0131 -0.7468  1.1477
18582TIP3    H277238   1.949   1.544   0.885 -1.3189  1.4023  0.0740
18583TIP3   OH277239   3.430   5.446   2.372  0.5582  0.7056  0.6356
18583TIP3    H177240   3.428   5.353   2.394 -0.4515  0.3221 -0.8881
18583TIP3    H277241   3.465   5.489   2.450  2.7584 -1.1168  0.7604
18584TIP3   OH277242   4.208   6.517   0.975 -0.1627 -1.0017  0.0719
18584TIP3    H177243   4.131   6.507   0.920 -1.4245 -0.4751  1.6487
18584TIP3    H277244   4.282   6.522   0.914 -1.2584 -2.4265 -1.4457
18585TIP3   OH277245   5.434   2.722  16.193  0.2481 -0.2387 -0.4736
18585TIP3    H177246   5.512   2.752  16.239  0.6502 -0.3396 -1.0768
18585TIP3    H277247   5.380   2.801  16.183  1.0500  0.2030 -1.5607
18586TIP3   OH277248   6.162   2.548   1.259  0.0353 -0.1584 -0.1418
18586TIP3    H177249   6.103   2.620   1.282 -0.6005 -1.2413  1.8514
18586TIP3    H277250   6.236   2.558   1.319 -0.0075 -1.0824  0.0781
18587TIP3   OH277251   2.786   5.647  14.321 -0.0120 -0.1046  0.4726
18587TIP3    H177252   2.853   5.696  14.368  0.5533  0.7153 -1.1201
18587TIP3    H277253   2.773   5.696  14.240 -0.8010 -1.5600 -0.3171
18588TIP3   OH277254   4.978   4.449  15.815  0.1873 -0.3659 -0.0755
18588TIP3    H177255   5.065   4.488  15.824  0.3169 -1.0370  2.1906
18588TIP3    H277256   4.918   4.521  15.833  0.2408  0.1392 -1.8120
18589TIP3   OH277257   1.254   3.188   2.817 -0.4130 -0.0346 -0.1706
18589TIP3    H177258   1.207   3.129   2.876 -1.8976  1.5594  0.3107
18589TIP3    H277259   1.336   3.142   2.798 -0.2924 -1.0455  2.3625
18590TIP3   OH277260   4.474   1.262  13.024 -0.4636 -0.2177  0.4509
18590TIP3    H177261   4.393   1.228  13.062 -2.0065  0.6705 -1.7899
18590TIP3    H277262   4.485   1.348  13.065 -1.0649 -0.0566  0.2942
18591TIP3   OH277263   4.302   2.408  16.710  0.5840  0.0873  0.0978
18591TIP3    H177264   4.320   2.390  16.617  0.4421  0.9354 -0.1051
18591TIP3    H277265   4.363   2.479  16.732 -1.5038  2.1001 -0.2453
18592TIP3   OH277266   0.592   4.933   5.154 -0.1166 -0.1543  0.4493
18592TIP3    H177267   0.569   5.022   5.128 -0.9017 -0.1167  1.2184
18592TIP3    H277268   0.548   4.920   5.238 -2.1788 -2.1232 -0.8136
18593TIP3   OH277269   3.578   5.741  16.183 -0.1763  0.0460  0.4883
18593TIP3    H177270   3.592   5.652  16.217  1.0505 -1.1640 -2.7882
18593TIP3    H277271   3.542   5.789  16.258 -2.2057 -3.5076  2.0939
18594TIP3   OH277272   1.236   2.432  15.798 -0.0832 -0.3263 -0.1585
18594TIP3    H177273   1.309   2.405  15.854 -0.4606  0.0204  0.5111
18594TIP3    H277274   1.190   2.350  15.778 -0.9505 -0.3021  1.4851
18595TIP3   OH277275   1.567   1.623   5.178  0.2994 -0.4103 -0.6629
18595TIP3    H177276   1.537   1.656   5.094 -2.0202 -2.0986 -0.5879
18595TIP3    H277277   1.500   1.650   5.241  0.3609 -1.8038  0.0632
18596TIP3   OH277278   4.100   0.967  14.299 -0.4610  0.0114 -0.0300
18596TIP3    H177279   4.058   0.924  14.225 -0.6748 -1.9751  1.1617
18596TIP3    H277280   4.035   1.029  14.331 -0.7228  0.2125 -0.9220
18597TIP3   OH277281   3.537   6.327   0.977 -0.3229  0.2518  0.2999
18597TIP3    H177282   3.603   6.278   1.027  0.5766  2.1077  1.0106
18597TIP3    H277283   3.532   6.412   1.020 -0.2096  1.6047 -2.2029
18598TIP3   OH277284   2.563   1.757   3.730  0.2224  0.5630 -0.0822
18598TIP3    H177285   2.531   1.679   3.775  0.0230 -0.1494 -1.4258
18598TIP3    H277286   2.656   1.742   3.717  0.3215  0.8594  0.2533
18599TIP3   OH277287   0.747   1.813   5.581  0.0279 -0.1101 -0.2767
18599TIP3    H177288   0.753   1.808   5.677  1.0562 -0.9357 -0.3740
18599TIP3    H277289   0.653   1.805   5.563 -0.4128  1.9715  0.7444
18600TIP3   OH277290   4.286   3.285   6.054 -0.2299  0.0613  0.2745
18600TIP3    H177291   4.281   3.266   5.961  1.0304 -1.6812  0.5020
18600TIP3    H277292   4.317   3.203   6.093  1.0058  1.2832  1.9942
18601TIP3   OH277293   4.284   3.612   2.392  0.0171  0.3540 -0.9848
18601TIP3    H177294   4.210   3.620   2.452 -0.5060 -0.3618 -1.5149
18601TIP3    H277295   4.307   3.519   2.395  0.5674  0.4793 -1.2134
18602TIP3   OH277296   6.618   4.477  13.386 -0.3964 -0.2251  0.1497
18602TIP3    H177297   6.577   4.394  13.409  1.5300 -0.4831  3.3290
18602TIP3    H277298   6.562   4.543  13.425 -1.2107 -0.0805 -1.2169
18603TIP3   OH277299   4.874   3.174  12.859  0.2508 -0.4999 -0.0769
18603TIP3    H177300   4.860   3.262  12.827  1.5290  0.1745  1.0946
18603TIP3    H277301   4.888   3.121  12.781 -0.7088  0.2753 -0.7983
18604TIP3   OH277302   3.922   0.604   2.844  0.8769  0.1270 -0.6334
18604TIP3    H177303   3.842   0.656   2.831  1.3138  0.6573 -1.2526
18604TIP3    H277304   3.905   0.555   2.925  0.7226  1.7929  0.4076
18605TIP3   OH277305   5.453   1.387   1.547 -0.1774  0.7507 -0.6188
18605TIP3    H177306   5.388   1.439   1.500 -1.7288  0.5552  1.1760
18605TIP3    H277307   5.483   1.322   1.484 -1.4805  1.0746 -1.6071
18606TIP3   OH277308   6.610   0.774  14.014  0.3304  0.0924  0.8297
18606TIP3    H177309   6.601   0.743  13.924 -0.6741 -0.9884  1.2718
18606TIP3    H277310   6.701   0.801  14.021  0.0761  1.6928 -0.9509
18607TIP3   OH277311   1.817   6.855  11.196 -0.1239 -0.1178 -0.6005
18607TIP3    H177312   1.786   6.764  11.196  0.0723 -0.1871 -0.3215
18607TIP3    H277313   1.796   6.887  11.284  0.5683 -0.1609 -0.4126
18608TIP3   OH277314   1.762   4.611  16.952  0.0827  0.5189 -0.2603
18608TIP3    H177315   1.831   4.551  16.982 -0.7637 -1.0197 -1.2288
18608TIP3    H277316   1.762   4.601  16.857 -1.0795  0.9309 -0.3164
18609TIP3   OH277317   0.695   4.932   1.855 -0.1632 -0.2995 -0.1147
18609TIP3    H177318   0.654   4.846   1.846  1.5155 -1.1624 -0.0043
18609TIP3    H277319   0.755   4.922   1.929  1.1395  0.4980 -1.0195
18610TIP3   OH277320   2.453   4.138   0.673 -0.2661  0.3456  0.7430
18610TIP3    H177321   2.460   4.214   0.730  0.2369 -0.1765  1.3997
18610TIP3    H277322   2.495   4.164   0.591 -1.5364  1.3086  0.3652
18611TIP3   OH277323   4.541   6.647   4.724 -0.3670  0.2859  0.0204
18611TIP3    H177324   4.618   6.591   4.726  0.8025  1.8589  1.0302
18611TIP3    H277325   4.570   6.730   4.763 -2.1640  1.4302 -0.9436
18612TIP3   OH277326   3.352   1.549  13.237  0.0339  0.2209  0.0398
18612TIP3    H177327   3.393   1.629  13.270 -1.3804  0.7173  0.7036
18612TIP3    H277328   3.406   1.522  13.164  1.2881  1.0559  0.6293
18613TIP3   OH277329   5.270   3.376   1.384  0.3374 -0.9629  0.4454
18613TIP3    H177330   5.234   3.300   1.429  0.4473 -1.3603 -0.1284
18613TIP3    H277331   5.340   3.341   1.329 -1.7918 -1.0287 -2.4573
18614TIP3   OH277332   0.970   4.596   1.987  0.0357 -0.1980 -0.6858
18614TIP3    H177333   0.939   4.505   1.987 -0.7526  0.0569 -0.8184
18614TIP3    H277334   1.050   4.595   2.039 -0.2979 -0.8657 -0.1739
18615TIP3   OH277335   3.897   4.999   4.653  0.6034  0.4560  0.1643
18615TIP3    H177336   3.866   4.940   4.721 -0.1207  2.1502  1.3383
18615TIP3    H277337   3.943   4.941   4.591 -2.7715 -1.8435 -0.4513
18616TIP3   OH277338   2.739   6.599   2.311 -0.6959  0.5283 -0.3161
18616TIP3    H177339   2.739   6.571   2.402  2.4121  1.9046  0.2212
18616TIP3    H277340   2.742   6.517   2.261 -1.7641 -0.2242  0.7861
18617TIP3   OH277341   1.076   2.766  13.971 -0.6426  0.6498 -0.7833
18617TIP3    H177342   1.120   2.689  14.006 -0.3652  1.2045  0.1371
18617TIP3    H277343   1.127   2.790  13.894  0.8330  1.3646  0.3422
18618TIP3   OH277344   2.341   2.614  12.752  0.8620  0.7934 -0.5555
18618TIP3    H177345   2.293   2.557  12.692  0.9427  0.2326 -0.0985
18618TIP3    H277346   2.432   2.608  12.724  1.0358 -0.1622  0.1403
18619TIP3   OH277347   4.348   1.086  15.032 -0.6152 -0.2658 -0.1357
18619TIP3    H177348   4.261   1.051  15.052 -1.3064  1.0751 -0.6503
18619TIP3    H277349   4.404   1.054  15.103 -1.8011 -0.1323  0.8875
18620TIP3   OH277350   2.178   0.280   2.839 -0.0279 -0.2377  0.3017
18620TIP3    H177351   2.144   0.223   2.770 -1.5506  1.7433 -0.6685
18620TIP3    H277352   2.101   0.322   2.876  1.0408  1.2202  0.9684
18621TIP3   OH277353   2.459   5.285   0.501 -0.1330 -0.3066  0.2717
18621TIP3    H177354   2.397   5.357   0.489 -0.4189 -0.3485  1.3881
18621TIP3    H277355   2.461   5.240   0.416 -1.3849 -0.1143  0.1236
18622TIP3   OH277356   3.544   1.226   1.251  0.0953  0.5971 -0.6182
18622TIP3    H177357   3.547   1.201   1.159 -0.6978 -0.4210 -0.3864
18622TIP3    H277358   3.460   1.192   1.282  0.3697  0.8954  0.4899
18623TIP3   OH277359   5.496   0.873   0.523 -0.2779 -0.5044 -0.2325
18623TIP3    H177360   5.564   0.811   0.549 -0.4043 -0.3413  0.5053
18623TIP3    H277361   5.414   0.826   0.540 -0.3617 -0.5421 -0.7194
18624TIP3   OH277362   2.422   3.950  15.868  0.9131  0.0268 -0.0284
18624TIP3    H177363   2.420   3.855  15.881 -0.6425  0.3640  3.1661
18624TIP3    H277364   2.340   3.970  15.824  1.1273 -0.0746 -0.4770
18625TIP3   OH277365   0.243   1.613   0.995  0.2275  0.1323  0.2509
18625TIP3    H177366   0.183   1.685   0.976 -0.1142 -0.4923 -1.1477
18625TIP3    H277367   0.188   1.544   1.031  0.5256  0.4791  1.4068
18626TIP3   OH277368   1.035   3.445   3.433 -0.1132  0.6441  0.7176
18626TIP3    H177369   1.103   3.500   3.473 -1.7278  0.5107  4.0078
18626TIP3    H277370   0.957   3.501   3.432 -1.1450 -0.6937  1.7646
18627TIP3   OH277371   1.372   5.275   0.860 -0.5323 -0.2694 -0.2519
18627TIP3    H177372   1.464   5.249   0.850 -0.3519 -0.3684  1.3593
18627TIP3    H277373   1.325   5.193   0.876 -0.2142  0.0483  3.1188
18628TIP3   OH277374   1.827   5.184   4.779 -0.1665 -0.1047  0.1674
18628TIP3    H177375   1.901   5.128   4.756 -0.0153  0.3066 -0.3722
18628TIP3    H277376   1.750   5.138   4.744 -0.0012  0.2134 -0.6509
18629TIP3   OH277377   5.211   2.600   3.850  0.0479 -0.4460  0.1910
18629TIP3    H177378   5.227   2.543   3.925 -0.4920  1.0143  1.4714
18629TIP3    H277379   5.131   2.648   3.872 -0.7902 -0.7917 -1.8483
18630TIP3   OH277380   4.658   4.206  14.606 -0.0095 -0.1260 -0.7814
18630TIP3    H177381   4.644   4.247  14.691 -0.4306 -0.5428 -0.6500
18630TIP3    H277382   4.659   4.279  14.544 -1.5868  0.0346 -0.6564
18631TIP3   OH277383   6.607   4.563  16.561  0.0514 -0.2560  0.0984
18631TIP3    H177384   6.636   4.473  16.547 -2.3921 -2.1070  4.7715
18631TIP3    H277385   6.546   4.580  16.489  1.6304 -1.6950 -1.6774
18632TIP3   OH277386   3.331   1.850  16.873  0.0419 -0.3295  0.2069
18632TIP3    H177387   3.304   1.913  16.806  2.3643  0.8418  0.2653
18632TIP3    H277388   3.381   1.784  16.825  0.0617 -0.5504  0.5307
18633TIP3   OH277389   2.645   6.150   2.791  0.1636  0.5418 -0.3496
18633TIP3    H177390   2.678   6.221   2.845  1.2879  0.0643 -0.3833
18633TIP3    H277391   2.560   6.181   2.758  0.8480  2.0351 -0.7510
18634TIP3   OH277392   2.453   0.472   5.768  0.1420 -0.4489 -0.3855
18634TIP3    H177393   2.412   0.511   5.846 -0.7922  0.7564 -1.4321
18634TIP3    H277394   2.495   0.392   5.801  0.2417  0.2951  1.4433
18635TIP3   OH277395   2.489   2.954   2.021  0.1051  0.2948  0.2883
18635TIP3    H177396   2.542   2.891   2.070  1.0679  0.2799 -0.7452
18635TIP3    H277397   2.495   3.035   2.072 -1.7466 -0.5728  2.0326
18636TIP3   OH277398   2.562   0.794   4.818 -0.3410  0.4352  0.1684
18636TIP3    H177399   2.639   0.765   4.770 -0.2869  0.0918  0.4535
18636TIP3    H277400   2.494   0.805   4.751 -0.9800 -2.3786  0.2218
18637TIP3   OH277401   0.469   1.781   2.089  0.3502  0.1214 -0.0433
18637TIP3    H177402   0.507   1.704   2.129 -0.1016  0.2609  0.6868
18637TIP3    H277403   0.476   1.849   2.157 -0.2294  0.4223 -0.2778
18638TIP3   OH277404   0.408   0.856  16.886 -0.2945  0.6342 -0.0918
18638TIP3    H177405   0.460   0.803  16.947 -0.1057 -0.9418 -1.5248
18638TIP3    H277406   0.447   0.838  16.800 -2.1998  0.6525 -1.0204
18639TIP3   OH277407   4.755   0.103   5.823 -0.0914 -0.0329 -0.1129
18639TIP3    H177408   4.694   0.033   5.845  0.1197  0.1630  1.1919
18639TIP3    H277409   4.770   0.149   5.906  0.6500  0.8595 -0.7146
18640TIP3   OH277410   2.271   1.701  10.342 -0.1716 -0.2424  0.3156
18640TIP3    H177411   2.349   1.681  10.291 -1.0077  0.4891 -1.2935
18640TIP3    H277412   2.272   1.636  10.413  1.2752 -0.9690 -0.3314
18641TIP3   OH277413   0.622   2.153  16.119  0.1717  0.2482  0.6720
18641TIP3    H177414   0.631   2.116  16.031  1.1292 -0.8797  1.2069
18641TIP3    H277415   0.709   2.142  16.158 -0.0962  1.2234  1.5810
18642TIP3   OH277416   5.739   1.552  14.706  0.2814  0.2976 -0.0970
18642TIP3    H177417   5.661   1.552  14.761  0.3371 -0.4865 -0.0062
18642TIP3    H277418   5.793   1.480  14.740  0.2169 -0.3469 -1.3077
18643TIP3   OH277419   1.260   1.267   2.036  0.7517 -0.3946 -0.2717
18643TIP3    H177420   1.178   1.287   1.990 -0.0991 -1.7005  0.6215
18643TIP3    H277421   1.307   1.350   2.037 -1.3787  0.8965  0.7965
18644TIP3   OH277422   2.580   2.498  15.641 -0.1507 -0.0834 -0.3150
18644TIP3    H177423   2.585   2.429  15.576 -0.1060 -1.1890  0.8338
18644TIP3    H277424   2.605   2.578  15.594 -0.7012 -0.7555 -1.7758
18645TIP3   OH277425   5.570   2.705   0.923  0.0505  0.8900  0.6866
18645TIP3    H177426   5.642   2.769   0.922  0.4814  0.4769  2.2146
18645TIP3    H277427   5.602   2.634   0.868  0.5637  0.9850  0.8477
18646TIP3   OH277428   4.902   4.945  13.217 -0.3075 -0.6072  0.4371
18646TIP3    H177429   4.926   4.939  13.125 -1.0496 -0.2013  0.2094
18646TIP3    H277430   4.936   4.865  13.256  0.0634 -0.7557 -0.1727
18647TIP3   OH277431   2.019   5.473  12.566  0.4662  0.2996  0.1625
18647TIP3    H177432   2.023   5.435  12.479 -0.8127  0.1926  0.1314
18647TIP3    H277433   2.109   5.499  12.585  0.6316  1.0412 -1.5011
18648TIP3   OH277434   4.788   2.485   0.999 -0.4068  0.1677  0.2150
18648TIP3    H177435   4.768   2.502   0.907 -0.0835  3.2179  0.6292
18648TIP3    H277436   4.881   2.461   1.000  0.0385  1.8000 -0.1198
18649TIP3   OH277437   1.289   2.151   0.527 -0.2489  0.3280 -0.1195
18649TIP3    H177438   1.373   2.136   0.484 -0.2747 -0.0428 -0.0406
18649TIP3    H277439   1.225   2.106   0.473 -0.2952 -0.0484  0.2416
18650TIP3   OH277440   3.043   4.484  14.653 -0.3487 -0.0492  0.1243
18650TIP3    H177441   3.006   4.414  14.600 -0.0256 -0.6672  0.7025
18650TIP3    H277442   3.133   4.455  14.672  0.5177  1.4633 -1.3447
18651TIP3   OH277443   0.868   1.274   3.764 -0.5468 -0.4991 -0.3163
18651TIP3    H177444   0.838   1.353   3.719  0.1396  0.2886  0.5723
18651TIP3    H277445   0.792   1.246   3.816 -0.6648 -0.1680 -0.3049
18652TIP3   OH277446   3.029   4.067   0.134 -0.1242  0.2422 -0.0712
18652TIP3    H177447   3.007   4.147   0.182  1.6513  0.6819  0.0938
18652TIP3    H277448   3.108   4.091   0.084  0.0890 -1.2366 -0.4765
18653TIP3   OH277449   1.549   4.246   2.568  0.4022 -0.1997  0.2930
18653TIP3    H177450   1.540   4.336   2.600  2.0275 -0.3544  1.2571
18653TIP3    H277451   1.572   4.195   2.645  2.7249 -0.8840 -0.7852
18654TIP3   OH277452   1.826   5.716   4.807 -0.5241  0.4598 -0.9254
18654TIP3    H177453   1.778   5.798   4.800 -0.0155  0.9090  0.3582
18654TIP3    H277454   1.762   5.648   4.786 -0.5076  1.2148 -3.8099
18655TIP3   OH277455   5.457   6.853   4.492 -0.5338 -0.0042 -0.5228
18655TIP3    H177456   5.479   6.896   4.574 -0.4088  1.1616 -1.1463
18655TIP3    H277457   5.361   6.855   4.488 -0.4954  1.7873 -1.3293
18656TIP3   OH277458   3.003   0.632  11.551  0.0024  0.1636 -0.3585
18656TIP3    H177459   3.090   0.671  11.561 -0.4333  0.9067  0.8104
18656TIP3    H277460   2.946   0.686  11.607 -1.2652 -0.1369 -1.3136
18657TIP3   OH277461   1.398   2.230   4.219  0.7008  0.0286  0.0366
18657TIP3    H177462   1.385   2.310   4.168  1.7875  0.1120 -0.1306
18657TIP3    H277463   1.399   2.159   4.154  0.9824  0.0179  0.0501
18658TIP3   OH277464   6.658   3.557   3.886 -0.6258 -0.0151  0.2580
18658TIP3    H177465   6.641   3.507   3.806 -1.0073  1.5481 -0.6907
18658TIP3    H277466   6.752   3.545   3.902 -0.7956 -1.4133  0.3660
18659TIP3   OH277467   3.405   2.378   3.504  0.3685  0.1406 -0.3992
18659TIP3    H177468   3.441   2.295   3.472  0.0589  0.3226 -1.2221
18659TIP3    H277469   3.391   2.431   3.426 -1.2480  0.2641 -0.0638
18660TIP3   OH277470   2.668   2.749  14.531  0.4792  0.2145  0.2745
18660TIP3    H177471   2.584   2.791  14.553  0.0053  0.3937 -1.6832
18660TIP3    H277472   2.734   2.810  14.563 -0.0908 -0.1461  2.2829
18661TIP3   OH277473   0.656   4.447  15.607  0.1299 -0.0359 -0.3932
18661TIP3    H177474   0.574   4.403  15.626  0.8539 -0.5971  1.7942
18661TIP3    H277475   0.704   4.386  15.552  1.1028 -2.1681  2.5681
18662TIP3   OH277476   4.663   2.333   4.807 -0.3958  0.2309  0.4195
18662TIP3    H177477   4.600   2.297   4.745  0.1518 -0.0538  0.0233
18662TIP3    H277478   4.610   2.384   4.868 -0.6873  3.1311 -2.0207
18663TIP3   OH277479   0.316   4.338  14.835 -0.3853  0.0160  0.0832
18663TIP3    H177480   0.241   4.372  14.787  0.5976  4.2888  1.0691
18663TIP3    H277481   0.386   4.334  14.770 -0.4812  0.0917 -0.0242
18664TIP3   OH277482   6.724   4.450  14.793  0.5577 -0.2380  0.2102
18664TIP3    H177483   6.666   4.410  14.729  1.9373 -2.7881  0.4201
18664TIP3    H277484   6.729   4.542  14.767  0.9138 -1.1092 -3.2530
18665TIP3   OH277485   3.007   4.237  16.758 -0.7998  0.3975  0.1243
18665TIP3    H177486   2.989   4.145  16.740 -1.0693  0.0546  1.9927
18665TIP3    H277487   2.946   4.261  16.827  1.1907  1.1357  1.7458
18666TIP3   OH277488   5.233   6.760  15.242  0.0463 -0.3494  0.1901
18666TIP3    H177489   5.193   6.765  15.329 -1.0730  1.5266 -0.3587
18666TIP3    H277490   5.296   6.832  15.240  0.1491 -0.4495 -0.5097
18667TIP3   OH277491   3.542   2.749   4.700 -0.3078 -0.1235 -0.0760
18667TIP3    H177492   3.632   2.724   4.679 -0.5970 -0.5095 -0.9110
18667TIP3    H277493   3.542   2.845   4.695 -0.6430 -0.1844 -3.2927
18668TIP3   OH277494   5.918   0.876   5.165  0.2496  0.0160  0.1571
18668TIP3    H177495   6.008   0.901   5.186  0.8318 -2.5721  1.1133
18668TIP3    H277496   5.927   0.794   5.116 -1.4156  2.2334 -4.4572
18669TIP3   OH277497   4.852   2.174   1.457 -0.0265  0.1236 -0.1408
18669TIP3    H177498   4.817   2.261   1.437  1.7553  0.5107 -1.7607
18669TIP3    H277499   4.856   2.129   1.373  0.0824 -1.1696  0.5213
18670TIP3   OH277500   0.810   4.955  14.107 -0.1203  0.4117  0.1735
18670TIP3    H177501   0.779   4.865  14.108 -3.0045  1.3087  0.4481
18670TIP3    H277502   0.773   4.992  14.027 -0.6647  1.8340  1.0466
18671TIP3   OH277503   2.098   5.691   5.408 -0.5062 -0.4621 -0.2647
18671TIP3    H177504   2.067   5.601   5.397  1.4923 -1.2422  0.0051
18671TIP3    H277505   2.144   5.711   5.327  0.2774 -0.2329  0.2210
18672TIP3   OH277506   6.191   5.167   2.310 -0.0360 -0.8231  0.0703
18672TIP3    H177507   6.116   5.178   2.367 -0.6556  0.1589 -0.8877
18672TIP3    H277508   6.249   5.241   2.332  0.2894 -1.1382  0.2743
18673TIP3   OH277509   4.902   3.600  11.006 -0.6213  0.7012  0.2196
18673TIP3    H177510   4.833   3.534  11.016  0.0483 -0.0944 -0.3082
18673TIP3    H277511   4.919   3.603  10.912  2.2259 -1.4241  0.5626
18674TIP3   OH277512   0.716   3.363   2.727  0.5452 -0.3542  0.2300
18674TIP3    H177513   0.683   3.303   2.794  2.7593 -2.5461 -0.4643
18674TIP3    H277514   0.805   3.383   2.755  0.9831 -0.0963 -1.2667
18675TIP3   OH277515   1.998   6.665  15.252 -0.3555  0.1800  0.3853
18675TIP3    H177516   1.944   6.602  15.298  0.7649 -0.4959  0.8244
18675TIP3    H277517   1.937   6.713  15.196 -1.3387 -0.7930  0.5880
18676TIP3   OH277518   3.454   5.619  10.538  0.4879 -0.1110  0.2597
18676TIP3    H177519   3.527   5.668  10.501 -0.8367  1.9434  0.2418
18676TIP3    H277520   3.413   5.678  10.601 -1.4858 -0.9512 -0.1308
18677TIP3   OH277521   4.228   0.605   3.475  0.1466  0.3560  0.0517
18677TIP3    H177522   4.162   0.540   3.449 -0.7518  0.0522  2.7805
18677TIP3    H277523   4.271   0.567   3.552  2.3844  1.3105 -0.6501
18678TIP3   OH277524   4.522   5.480  16.149 -0.2922 -0.4695 -0.3060
18678TIP3    H177525   4.587   5.531  16.198  0.5568 -1.3081 -0.5417
18678TIP3    H277526   4.571   5.405  16.115 -0.7553  0.2330 -2.7212
18679TIP3   OH277527   3.861   1.640  16.015  0.1959  0.1710 -0.2667
18679TIP3    H177528   3.841   1.695  16.090  0.2901 -1.2778  0.8811
18679TIP3    H277529   3.778   1.597  15.994  0.5334 -0.6750  0.0904
18680TIP3   OH277530   5.516   2.991  11.855 -0.4420  0.3338 -0.6023
18680TIP3    H177531   5.539   2.947  11.936  0.1837  0.6588 -0.6041
18680TIP3    H277532   5.530   3.084  11.873  1.9348  0.2763 -1.7752
18681TIP3   OH277533   1.265   5.938   5.257  0.4749  0.2121 -0.4083
18681TIP3    H177534   1.217   5.860   5.230 -0.7051  1.6192 -2.5882
18681TIP3    H277535   1.216   6.012   5.221  1.2842  2.0618  1.9453
18682TIP3   OH277536   1.392   4.304   6.143 -0.1274 -0.2247 -0.3840
18682TIP3    H177537   1.361   4.388   6.108 -0.7988 -0.2360  0.1747
18682TIP3    H277538   1.344   4.293   6.225  2.0359  0.1997  1.0139
18683TIP3   OH277539   4.182   2.083   5.702  0.1089 -0.4944 -0.1298
18683TIP3    H177540   4.120   2.014   5.725 -1.2292  0.5286 -0.5066
18683TIP3    H277541   4.132   2.142   5.646  1.7002 -0.0753 -1.1638
18684TIP3   OH277542   6.016   2.696  10.690  0.4066  0.0850 -0.6449
18684TIP3    H177543   6.055   2.686  10.603  0.5509  0.8159 -0.6670
18684TIP3    H277544   6.011   2.606  10.724  0.0507 -0.2432 -1.5303
18685TIP3   OH277545   3.927   4.247   4.310  0.2369 -0.5895 -0.4555
18685TIP3    H177546   4.003   4.210   4.356  1.6171  1.7577 -0.6851
18685TIP3    H277547   3.874   4.171   4.286  1.6733 -2.1968  1.1670
18686TIP3   OH277548   5.205   4.597   2.400  0.2923 -0.5679  0.2192
18686TIP3    H177549   5.192   4.537   2.475  1.8488 -1.4362 -0.1682
18686TIP3    H277550   5.271   4.659   2.430  1.2023 -1.1483 -0.5415
18687TIP3   OH277551   5.735   1.311   1.421  0.0944 -0.2851  0.3403
18687TIP3    H177552   5.830   1.316   1.405 -0.2432  1.6047 -1.4394
18687TIP3    H277553   5.728   1.277   1.511  2.4533 -0.2443  0.6026
18688TIP3   OH277554   6.790   2.691  13.570  0.0040 -0.0745  0.0944
18688TIP3    H177555   6.771   2.651  13.655  0.2540  0.4897  0.4235
18688TIP3    H277556   6.883   2.676  13.556  0.7348  2.5024  1.4186
18689TIP3   OH277557   0.400   3.839  15.553 -0.5478 -0.5585  0.0312
18689TIP3    H177558   0.317   3.812  15.515 -0.8105 -0.0304  0.2174
18689TIP3    H277559   0.414   3.778  15.626 -0.1013 -1.4988 -0.8101
18690TIP3   OH277560   3.383   3.930   2.600 -0.2613  0.0936  0.0697
18690TIP3    H177561   3.406   3.894   2.515  0.9471 -1.0812  0.8505
18690TIP3    H277562   3.302   3.885   2.625 -0.9966  0.9358 -0.7220
18691TIP3   OH277563   2.506   0.388  12.793 -0.2100 -0.1829  0.0637
18691TIP3    H177564   2.507   0.320  12.726  0.1415 -0.4578  0.3401
18691TIP3    H277565   2.464   0.463  12.751 -2.8833 -1.3232  0.4899
18692TIP3   OH277566   5.659   6.592  16.880  0.3076 -0.9080 -0.1173
18692TIP3    H177567   5.580   6.561  16.926 -0.5690  0.3884 -0.6964
18692TIP3    H277568   5.636   6.586  16.788  0.6003  0.2260 -0.2722
18693TIP3   OH277569   0.089   2.180  14.920 -0.5006  0.4048 -0.1436
18693TIP3    H177570   0.116   2.123  14.992 -0.9441 -0.6727 -0.8169
18693TIP3    H277571   0.152   2.160  14.850  0.2301  1.7950  0.0824
18694TIP3   OH277572   6.235   1.539  16.575  0.7110  0.7282 -0.6493
18694TIP3    H177573   6.238   1.553  16.669  1.2050 -0.7513 -0.4213
18694TIP3    H277574   6.325   1.516  16.551  0.2614 -0.6029 -1.1719
18695TIP3   OH277575   1.751   5.940   2.779  0.0570  0.0082  0.5454
18695TIP3    H177576   1.661   5.947   2.811 -0.4173 -1.6642 -0.3199
18695TIP3    H277577   1.778   6.031   2.765 -1.6137  0.5374  0.5008
18696TIP3   OH277578   6.680   4.393  12.302 -0.2464  0.1164  0.5746
18696TIP3    H177579   6.625   4.433  12.369 -0.0473 -0.8709  1.3565
18696TIP3    H277580   6.650   4.302  12.297 -0.6797  0.3256 -1.1477
18697TIP3   OH277581   2.370   4.486  12.006  0.0323  0.4284  0.3322
18697TIP3    H177582   2.427   4.419  12.043 -0.7715 -1.0580 -0.9962
18697TIP3    H277583   2.283   4.466  12.040  0.1990  2.7641  2.4635
18698TIP3   OH277584   2.198   0.998   4.835  0.2607 -0.5523  0.0867
18698TIP3    H177585   2.113   1.005   4.879  0.5202  0.7092  0.4145
18698TIP3    H277586   2.258   0.967   4.903  0.3373 -0.1104  0.2260
18699TIP3   OH277587   5.702   0.216  12.365  0.2631 -0.2586 -0.1056
18699TIP3    H177588   5.682   0.245  12.276 -0.7175 -0.5281  0.0081
18699TIP3    H277589   5.626   0.164  12.390  1.7857 -2.6853 -0.1780
18700TIP3   OH277590   2.416   2.906   5.862  0.2927  0.1686 -0.1917
18700TIP3    H177591   2.492   2.925   5.917 -1.1107  0.2127  1.8209
18700TIP3    H277592   2.395   2.990   5.820  0.6628  0.4358  0.1498
18701TIP3   OH277593   0.183   4.154   5.333 -0.4310  0.0734 -0.0625
18701TIP3    H177594   0.258   4.141   5.275 -0.4335 -0.0979 -0.0285
18701TIP3    H277595   0.148   4.240   5.310  0.1396  0.4192  0.3258
18702TIP3   OH277596   5.468   1.468   0.083 -0.5559  0.1963 -0.3471
18702TIP3    H177597   5.430   1.480  -0.004  1.3033 -1.0885 -1.4256
18702TIP3    H277598   5.467   1.374   0.097  0.6301  0.2529  0.2892
18703TIP3   OH277599   5.790   6.797   3.139 -0.2269 -0.5204  0.0757
18703TIP3    H177600   5.793   6.739   3.063  1.7277  0.1549 -0.4164
18703TIP3    H277601   5.849   6.757   3.202  0.0171  0.1692  0.2921
18704TIP3   OH277602   0.574   3.538  14.847  0.1653 -0.8874  0.1712
18704TIP3    H177603   0.571   3.567  14.939  0.6685  0.7586 -0.2992
18704TIP3    H277604   0.652   3.580  14.811 -1.2133  0.3436 -1.5815
18705TIP3   OH277605   2.021   2.500  15.596 -0.0674  0.3218 -0.1545
18705TIP3    H177606   2.006   2.590  15.565  0.3117 -0.0102 -1.3648
18705TIP3    H277607   1.945   2.451  15.563 -0.6595  0.3277  1.1514
18706TIP3   OH277608   2.340   3.735  11.832  0.5242 -0.4736  0.3330
18706TIP3    H177609   2.266   3.676  11.839  0.8764 -1.1346 -1.2329
18706TIP3    H277610   2.414   3.686  11.868  1.0453 -1.4808 -1.9416
18707TIP3   OH277611   3.946   4.163  13.152 -0.0422 -0.2349 -0.3513
18707TIP3    H177612   3.856   4.134  13.167 -0.5735  0.4472 -1.9998
18707TIP3    H277613   3.987   4.090  13.106  0.7515 -1.1746  1.7179
18708TIP3   OH277614   1.232   3.321   4.019 -0.3424  0.5561 -0.1838
18708TIP3    H177615   1.223   3.360   4.105 -0.7648 -0.7753  0.4132
18708TIP3    H277616   1.323   3.335   3.995 -0.4547  1.7732  0.0382
18709TIP3   OH277617   1.757   1.072   1.536 -0.0113 -0.5300 -0.1219
18709TIP3    H177618   1.695   1.135   1.498 -1.2381  0.3577  3.0136
18709TIP3    H277619   1.843   1.102   1.507 -0.6530  1.9563  0.3722
18710TIP3   OH277620   1.036   4.041  16.121  0.4266 -0.1935 -0.0486
18710TIP3    H177621   0.992   4.114  16.163 -0.0741 -0.6576  0.2455
18710TIP3    H277622   0.966   3.992  16.078  0.8275 -0.1872 -0.7304
18711TIP3   OH277623   4.512   1.176  15.853 -0.8006 -0.2604 -0.3995
18711TIP3    H177624   4.533   1.263  15.820 -1.7713  0.4566  0.8353
18711TIP3    H277625   4.597   1.136  15.871 -0.3728  1.2184  1.0059
18712TIP3   OH277626   1.490   1.506  12.182 -0.3278 -0.2585  0.1098
18712TIP3    H177627   1.480   1.575  12.247  1.6530  0.5655 -0.3707
18712TIP3    H277628   1.584   1.486  12.184 -0.5524 -1.5636 -1.1466
18713TIP3   OH277629   4.269   4.843  15.138  0.3735 -0.3116 -0.1156
18713TIP3    H177630   4.175   4.840  15.153  0.2743 -2.0213 -0.8336
18713TIP3    H277631   4.279   4.888  15.054  0.1914 -0.1900 -0.0729
18714TIP3   OH277632   5.555   1.829  16.902  0.3654 -0.0864  0.3704
18714TIP3    H177633   5.535   1.786  16.985  0.6347 -2.3851 -0.6754
18714TIP3    H277634   5.622   1.774  16.862  2.0054  2.2625 -0.3699
18715TIP3   OH277635   3.670   2.946  14.419 -0.2398  0.7750 -0.2812
18715TIP3    H177636   3.646   2.961  14.511  0.9844  0.7738  0.0580
18715TIP3    H277637   3.744   2.886  14.423  0.3959  1.4663 -1.2276
18716TIP3   OH277638   4.339   6.835  15.845  0.0017  0.1174 -0.6582
18716TIP3    H177639   4.388   6.798  15.918  0.2978  2.8938  0.6528
18716TIP3    H277640   4.251   6.850  15.880 -0.2484  0.2371 -1.3111
18717TIP3   OH277641   2.713   1.960  11.808  0.1943  0.2402 -0.6055
18717TIP3    H177642   2.719   1.868  11.836  2.9280  0.1862 -1.0556
18717TIP3    H277643   2.721   1.956  11.713  0.3077  0.9487 -0.6288
18718TIP3   OH277644   2.302   6.558   1.191  0.9171  0.1441  0.3996
18718TIP3    H177645   2.288   6.562   1.096  0.6253 -0.3605  0.4188
18718TIP3    H277646   2.388   6.597   1.204  1.9434 -1.7696 -0.3074
18719TIP3   OH277647   2.160   0.191   5.666  0.5398 -0.3082 -0.1694
18719TIP3    H177648   2.120   0.262   5.615 -0.6433  0.1312  1.2998
18719TIP3    H277649   2.253   0.196   5.646  0.4621  1.5692 -0.2050
18720TIP3   OH277650   1.038   2.487   6.452  0.5841 -0.5431 -0.9664
18720TIP3    H177651   1.036   2.504   6.358 -1.9673  0.3189 -0.8344
18720TIP3    H277652   1.061   2.394   6.459 -0.2208 -0.8983 -2.5227
18721TIP3   OH277653   2.660   2.340  16.684 -0.2919  0.3908 -0.3043
18721TIP3    H177654   2.598   2.341  16.757  1.7540  0.1098  1.5298
18721TIP3    H277655   2.696   2.429  16.681  0.6440  0.0336 -0.0401
18722TIP3   OH277656   5.870   4.688  16.375 -0.4848 -0.5785 -0.6484
18722TIP3    H177657   5.912   4.683  16.289  0.2535 -0.5163 -0.3039
18722TIP3    H277658   5.880   4.601  16.411  0.4648 -0.2470 -0.0672
18723TIP3   OH277659   4.528   4.671  13.182 -0.0977 -0.4805  0.7871
18723TIP3    H177660   4.571   4.597  13.138 -0.6620  0.3118 -1.2416
18723TIP3    H277661   4.469   4.630  13.245  0.3412 -1.7376  0.4139
18724TIP3   OH277662   0.886   5.562   2.476  0.3552  0.5028 -0.4646
18724TIP3    H177663   0.874   5.470   2.502  0.4570  0.6546  0.1404
18724TIP3    H277664   0.949   5.596   2.539 -0.3423  1.2267 -0.1489
18725TIP3   OH277665   0.466   6.784  14.963  0.3096 -0.1528  0.3041
18725TIP3    H177666   0.467   6.878  14.982  1.3192 -0.0042 -0.3748
18725TIP3    H277667   0.402   6.748  15.024 -1.4039  1.2168 -0.5691
18726TIP3   OH277668   4.422   0.394   2.060  0.2116 -0.3338 -0.1020
18726TIP3    H177669   4.476   0.466   2.093  0.1458  0.2154 -1.1422
18726TIP3    H277670   4.484   0.324   2.042  0.1454 -0.9948  2.0098
18727TIP3   OH277671   0.103   1.496  10.612 -0.2185 -0.3382 -0.2746
18727TIP3    H177672   0.068   1.467  10.528  2.5831  0.6673 -1.9150
18727TIP3    H277673   0.166   1.564  10.590  0.8016 -0.2068  2.6312
18728TIP3   OH277674   4.307   1.628  16.264  0.1362  0.1799 -0.5462
18728TIP3    H177675   4.285   1.609  16.355 -0.7903 -0.5111 -0.9052
18728TIP3    H277676   4.308   1.723  16.258  0.3374  0.2294  0.2142
18729TIP3   OH277677   6.770   1.385  14.735  0.2646 -0.9358  0.3563
18729TIP3    H177678   6.760   1.409  14.827  2.1287  1.2946  0.0775
18729TIP3    H277679   6.683   1.398  14.698  0.0226  0.6131  1.3473
18730TIP3   OH277680   6.074   1.750   5.785 -0.1148  0.5517 -1.0596
18730TIP3    H177681   6.161   1.712   5.784  0.4500  1.7787 -0.4382
18730TIP3    H277682   6.059   1.778   5.694  0.3819  0.8581 -1.0489
18731TIP3   OH277683   5.999   4.140  11.174 -0.1133 -0.2948  0.7645
18731TIP3    H177684   5.940   4.196  11.223  0.0620 -0.5300  1.2559
18731TIP3    H277685   6.003   4.059  11.224 -0.8601 -0.9895 -0.2752
18732TIP3   OH277686   5.516   2.503   6.263  0.2098  0.3259 -0.3538
18732TIP3    H177687   5.606   2.490   6.294 -0.0816  0.4148  0.5674
18732TIP3    H277688   5.507   2.597   6.253 -0.2545  0.4477  1.0753
18733TIP3   OH277689   2.656   5.579   0.884 -0.3696 -0.1105  0.2361
18733TIP3    H177690   2.678   5.533   0.803  1.4120  3.0530 -1.2413
18733TIP3    H277691   2.590   5.643   0.858  0.8610  1.5452  1.0215
18734TIP3   OH277692   0.316   2.415   1.411 -0.1071  0.7313 -0.3944
18734TIP3    H177693   0.222   2.413   1.394  0.0601 -0.5121 -1.3238
18734TIP3    H277694   0.349   2.485   1.354 -0.3801  0.6861 -0.6125
18735TIP3   OH277695   4.733   3.433  11.833 -0.6993  0.4348  0.4874
18735TIP3    H177696   4.702   3.342  11.838 -0.4058  0.3370  0.5176
18735TIP3    H277697   4.762   3.442  11.742 -0.9322  0.5647  0.4255
18736TIP3   OH277698   0.792   1.929  16.685 -0.5700 -0.5210  0.1541
18736TIP3    H177699   0.799   1.834  16.676  0.6452 -0.4623  0.3199
18736TIP3    H277700   0.698   1.946  16.686 -0.8834 -1.4679 -2.5184
18737TIP3   OH277701   3.008   2.406   0.722 -0.1009  0.0218  0.0451
18737TIP3    H177702   3.099   2.379   0.735 -0.3877 -0.8747  0.2215
18737TIP3    H277703   3.014   2.478   0.659  0.8643  1.0610  1.2536
18738TIP3   OH277704   0.032   6.278   3.650  0.4913 -0.2288  0.2514
18738TIP3    H177705   0.075   6.356   3.684  0.3446  0.9740 -2.1124
18738TIP3    H277706  -0.016   6.308   3.573 -0.1852 -2.5222 -0.3151
18739TIP3   OH277707   4.899   6.353   1.225  0.0879  0.7341 -0.0896
18739TIP3    H177708   4.979   6.388   1.265  0.7012 -0.9913  0.2627
18739TIP3    H277709   4.930   6.291   1.159 -0.9494  0.2142 -0.1039
18740TIP3   OH277710   2.296   5.265   5.073 -0.1998  0.5699 -0.1378
18740TIP3    H177711   2.272   5.234   5.160 -1.0455  2.8018  0.5118
18740TIP3    H277712   2.354   5.198   5.038  0.7514 -0.0569  2.4331
18741TIP3   OH277713   0.111   1.699  15.503 -0.0622  0.1030 -0.1787
18741TIP3    H177714   0.046   1.636  15.474  1.0169 -1.4565  0.6590
18741TIP3    H277715   0.061   1.778  15.523 -1.6057 -0.8506 -0.1282
18742TIP3   OH277716   4.450   2.019  14.186  0.4264  0.0903  0.0533
18742TIP3    H177717   4.425   2.068  14.264  0.6248  1.2291 -0.5877
18742TIP3    H277718   4.546   2.028  14.181  0.3202  0.7980 -0.8248
18743TIP3   OH277719   0.988   4.153   2.728  0.4896 -0.1158  0.0155
18743TIP3    H177720   1.012   4.185   2.641  0.1162 -0.6180 -0.2809
18743TIP3    H277721   1.048   4.196   2.788  1.6249 -0.7710 -0.6247
18744TIP3   OH277722   3.053   2.518  11.667  0.1611 -0.8463  0.4958
18744TIP3    H177723   3.020   2.431  11.643 -1.3512  0.1412 -1.2428
18744TIP3    H277724   3.131   2.500  11.721  0.0647 -3.2601 -0.0603
18745TIP3   OH277725   0.305   2.176   4.602 -0.0020  0.6583  0.7326
18745TIP3    H177726   0.271   2.241   4.540  0.7910  0.6735  0.2972
18745TIP3    H277727   0.242   2.175   4.674  0.4066  2.5565  1.1776
18746TIP3   OH277728   3.465   4.384  15.410  0.1273 -0.3942 -0.0291
18746TIP3    H177729   3.502   4.308  15.456  0.4580 -0.3739 -0.2576
18746TIP3    H277730   3.429   4.348  15.329 -1.7839 -0.6707  0.8858
18747TIP3   OH277731   6.242   3.619  16.158 -0.3197  0.1250 -0.1372
18747TIP3    H177732   6.250   3.713  16.172 -0.3888  0.5073 -2.3558
18747TIP3    H277733   6.329   3.584  16.178  0.5804  1.1007 -2.1661
18748TIP3   OH277734   2.556   6.400  12.106 -0.2020 -0.1897 -0.0907
18748TIP3    H177735   2.488   6.450  12.149 -2.7294 -1.4053 -2.3951
18748TIP3    H277736   2.602   6.463  12.051 -1.2630  0.1774 -0.5728
18749TIP3   OH277737   4.821   6.213   4.146 -0.2585  0.4714  0.5303
18749TIP3    H177738   4.859   6.208   4.059 -1.8831  2.1683 -0.3531
18749TIP3    H277739   4.727   6.213   4.132 -0.6175 -1.1762  2.4651
18750TIP3   OH277740   0.517   5.922   0.487  0.2044  0.9066  0.6236
18750TIP3    H177741   0.442   5.864   0.501  0.6113  1.0021  3.8370
18750TIP3    H277742   0.573   5.875   0.425 -1.4891 -0.1064 -0.2016
18751TIP3   OH277743   1.566   5.037   4.807 -0.2875 -0.5485  0.2134
18751TIP3    H177744   1.518   5.066   4.730  0.2367 -1.6656 -0.5574
18751TIP3    H277745   1.546   4.944   4.814 -1.1777 -0.2593  2.0629
18752TIP3   OH277746   5.626   0.868   2.288  0.0824  0.1233 -0.0491
18752TIP3    H177747   5.541   0.852   2.248 -0.1897  2.5405 -0.5945
18752TIP3    H277748   5.611   0.856   2.382 -0.7476  0.1085 -0.1774
18753TIP3   OH277749   4.284   5.449   2.800 -0.2436  0.3919  0.5518
18753TIP3    H177750   4.371   5.466   2.765 -1.4292 -0.7348 -3.3708
18753TIP3    H277751   4.291   5.362   2.839  0.4024  0.3918  0.4569
18754TIP3   OH277752   5.357   2.219  14.095  0.8011  0.1814  0.0271
18754TIP3    H177753   5.343   2.229  14.189  0.4789  0.9122 -0.0912
18754TIP3    H277754   5.302   2.144  14.071 -1.0062  1.4591  0.0143
18755TIP3   OH277755   1.050   5.322   0.461  0.0119 -0.5578 -0.9338
18755TIP3    H177756   1.102   5.351   0.535 -0.3249 -0.7881 -0.6016
18755TIP3    H277757   1.108   5.331   0.385 -0.5412  2.4452 -1.1186
18756TIP3   OH277758   3.828   0.447   5.929 -0.3649  0.4565 -0.1874
18756TIP3    H177759   3.921   0.426   5.925 -0.5630 -0.7031  0.8150
18756TIP3    H277760   3.808   0.456   6.022 -1.0926  1.5431 -0.4239
18757TIP3   OH277761   4.498   4.294   2.535 -0.0535  0.1522 -0.3765
18757TIP3    H177762   4.553   4.258   2.465 -1.2893  0.4411 -1.5455
18757TIP3    H277763   4.419   4.324   2.490 -0.0975  2.0913  0.8874
18758TIP3   OH277764   1.540   0.538   3.272  0.6546  0.4215  0.0868
18758TIP3    H177765   1.586   0.491   3.341  0.6327  1.2096  0.6381
18758TIP3    H277766   1.451   0.551   3.306  0.3040 -0.1729 -0.5516
18759TIP3   OH277767   5.401   0.560  14.397  0.6980  0.8644 -0.5153
18759TIP3    H177768   5.474   0.601  14.445  2.0618 -1.4627 -0.4584
18759TIP3    H277769   5.408   0.596  14.308  3.8269 -1.3596 -1.3401
18760TIP3   OH277770   0.803   5.154   2.719 -0.4658  0.2932 -0.0262
18760TIP3    H177771   0.757   5.085   2.671  1.1769  0.1977 -1.5599
18760TIP3    H277772   0.833   5.112   2.799  2.3796 -1.5644 -1.8622
18761TIP3   OH277773   1.118   2.552  16.269 -0.9201 -0.2352  0.5318
18761TIP3    H177774   1.113   2.644  16.295  0.7837  0.1703 -0.3762
18761TIP3    H277775   1.103   2.554  16.174  0.3105 -0.7032  0.3065
18762TIP3   OH277776   3.321   5.674   4.419 -0.9231  0.0207 -0.1896
18762TIP3    H177777   3.244   5.621   4.438 -1.8887  1.1132 -0.9158
18762TIP3    H277778   3.391   5.611   4.407 -1.5953 -0.9811  0.9181
18763TIP3   OH277779   3.437   6.274   4.498  0.2458 -0.0445  0.2582
18763TIP3    H177780   3.347   6.250   4.476  0.5089 -1.3007  0.4897
18763TIP3    H277781   3.491   6.224   4.437  0.8287 -0.2670  0.9424
18764TIP3   OH277782   6.215   3.982  12.254  0.6516  0.4799  0.5435
18764TIP3    H177783   6.152   4.053  12.258 -0.8735 -0.7889  0.0279
18764TIP3    H277784   6.278   4.009  12.187  0.8479  1.8818  1.2662
18765TIP3   OH277785   4.678   2.907  14.123  0.3831  0.5396 -0.4210
18765TIP3    H177786   4.691   2.915  14.218  0.3634  1.1801 -0.4635
18765TIP3    H277787   4.586   2.883  14.113  0.0411  1.7411 -0.3130
18766TIP3   OH277788   5.782   0.304   0.116  0.2954 -0.2004  0.1713
18766TIP3    H177789   5.807   0.230   0.171 -1.4499 -1.5100 -0.6948
18766TIP3    H277790   5.687   0.302   0.115  0.2389  1.3133 -0.8914
18767TIP3   OH277791   6.716   4.555  11.640 -0.1887  0.3128 -0.0789
18767TIP3    H177792   6.760   4.473  11.663 -1.2077 -0.1688  0.2004
18767TIP3    H277793   6.780   4.602  11.586  0.3801 -0.7013 -0.3073
18768TIP3   OH277794   1.542   1.038  11.739 -0.7425 -0.1225 -0.8368
18768TIP3    H177795   1.496   0.980  11.679  0.1963 -1.5852 -0.1778
18768TIP3    H277796   1.494   1.030  11.821  0.0227 -0.8109 -0.4472
18769TIP3   OH277797   1.855   3.804  16.943  0.0794  0.2407  0.0547
18769TIP3    H177798   1.792   3.876  16.942 -0.4562 -0.1912  0.8869
18769TIP3    H277799   1.929   3.837  16.993 -0.4073  0.0408  0.9360
18770TIP3   OH277800   2.008   4.967   5.429 -0.1399 -0.0517 -0.3753
18770TIP3    H177801   2.067   4.894   5.446 -1.8474 -1.3527  0.3223
18770TIP3    H277802   1.957   4.976   5.510 -3.2002 -1.2906 -1.9870
18771TIP3   OH277803   5.507   4.172   0.783  0.1259 -0.4309  0.0422
18771TIP3    H177804   5.592   4.211   0.799  0.1521 -0.0173 -0.9982
18771TIP3    H277805   5.480   4.136   0.867  0.8805  0.3029  0.6069
18772TIP3   OH277806   5.377   5.211   3.649  0.0202  0.0771  0.1334
18772TIP3    H177807   5.288   5.176   3.658  0.1537 -0.8631 -1.7672
18772TIP3    H277808   5.387   5.269   3.724 -1.8956 -0.4350  0.8511
18773TIP3   OH277809   0.936   1.728  11.286  0.1146  0.8059 -0.3688
18773TIP3    H177810   0.862   1.741  11.346  0.3048 -0.4462  0.1635
18773TIP3    H277811   0.921   1.642  11.248 -0.2697  1.7802 -2.5528
18774TIP3   OH277812   3.882   4.409   5.387  0.2528 -0.0928 -0.1603
18774TIP3    H177813   3.958   4.415   5.444 -1.1152  1.9632  1.6198
18774TIP3    H277814   3.846   4.498   5.386 -2.1093 -0.9725 -0.9462
18775TIP3   OH277815   5.522   1.212   1.260  0.3142 -0.3602  0.2571
18775TIP3    H177816   5.594   1.226   1.321  0.4102 -0.4496  0.1653
18775TIP3    H277817   5.556   1.241   1.175  0.2604 -0.4519  0.2040
18776TIP3   OH277818   6.638   4.174   0.363  0.6850 -0.8310 -0.3982
18776TIP3    H177819   6.623   4.269   0.369  0.1442 -0.9755  0.8727
18776TIP3    H277820   6.556   4.135   0.393  0.4425 -1.7319 -2.1259
18777TIP3   OH277821   4.591   3.826   0.456 -0.7424 -0.5052  0.0747
18777TIP3    H177822   4.616   3.762   0.523  0.7696 -1.1887 -1.0656
18777TIP3    H277823   4.583   3.774   0.376  0.8707  0.7295 -0.9639
18778TIP3   OH277824   0.021   4.063   5.105  0.1774  0.1010 -0.0295
18778TIP3    H177825  -0.050   4.038   5.164  0.1631 -1.6166 -0.7167
18778TIP3    H277826   0.082   4.112   5.160 -0.6768  0.0702  0.9748
18779TIP3   OH277827   6.821   5.253   4.803  0.1523 -0.1409  0.3817
18779TIP3    H177828   6.877   5.182   4.771  0.4752 -1.0886  2.8291
18779TIP3    H277829   6.846   5.263   4.895 -2.6929  0.4036  1.1858
18780TIP3   OH277830   6.648   6.588   1.818 -0.4323  0.7448 -0.2085
18780TIP3    H177831   6.591   6.663   1.801  0.0185  0.7193 -2.0435
18780TIP3    H277832   6.602   6.513   1.779 -0.6322  0.1302  1.1396
18781TIP3   OH277833   4.030   5.804   3.688  0.1842 -0.0343 -0.5947
18781TIP3    H177834   4.082   5.851   3.622 -0.1952 -1.8534 -2.2888
18781TIP3    H277835   4.095   5.757   3.740  0.4101  0.2905 -0.5798
18782TIP3   OH277836   2.112   4.588  14.423 -0.2039 -0.7566 -0.3346
18782TIP3    H177837   2.048   4.527  14.387 -0.4818 -0.5031 -0.2772
18782TIP3    H277838   2.180   4.595  14.355 -0.3043 -0.9269 -0.4526
18783TIP3   OH277839   2.862   0.359   3.230 -0.5201 -0.4434 -0.0658
18783TIP3    H177840   2.860   0.317   3.144 -1.9974 -0.1572 -0.1832
18783TIP3    H277841   2.953   0.387   3.240 -0.7670  1.6247 -2.5717
18784TIP3   OH277842   6.698   0.691  12.492 -0.0178 -0.8750 -0.4258
18784TIP3    H177843   6.693   0.756  12.563 -0.6394 -0.7818 -0.5482
18784TIP3    H277844   6.786   0.655  12.500  0.0470 -0.6141  0.1757
18785TIP3   OH277845   5.985   6.671   0.162  0.5695  0.5010 -0.0105
18785TIP3    H177846   6.016   6.656   0.073 -0.9011 -2.0688 -0.1957
18785TIP3    H277847   5.896   6.635   0.162 -1.1549  4.3108  1.3994
18786TIP3   OH277848   4.931   6.101   4.941 -0.3961  0.1758  0.4140
18786TIP3    H177849   4.923   6.080   4.847 -0.3872  1.6741  0.0513
18786TIP3    H277850   5.020   6.135   4.950 -0.4341  0.1348  0.9388
18787TIP3   OH277851   4.674   0.807   2.845  0.4993 -0.1147 -0.3789
18787TIP3    H177852   4.629   0.874   2.793 -0.9298  0.2610  1.2446
18787TIP3    H277853   4.633   0.725   2.819 -1.7296  0.2877  1.5468
18788TIP3   OH277854   0.452   5.257  12.609  0.0440  0.1194  0.8387
18788TIP3    H177855   0.509   5.312  12.556  1.4253 -2.3593 -0.4454
18788TIP3    H277856   0.493   5.255  12.695  0.6650  0.1569  0.5505
18789TIP3   OH277857   3.758   3.672   6.079  0.1098  0.2338 -0.2952
18789TIP3    H177858   3.714   3.589   6.062 -0.8547  0.5607  0.4812
18789TIP3    H277859   3.728   3.698   6.167 -0.0550  1.6633 -0.7398
18790TIP3   OH277860   0.724   2.071  12.512  0.1794  0.0232 -0.3979
18790TIP3    H177861   0.719   2.152  12.563 -0.9101 -0.1798 -0.1567
18790TIP3    H277862   0.745   2.100  12.424 -1.2667  0.6863 -0.5528
18791TIP3   OH277863   6.675   4.753   0.149  0.1168  0.4845 -0.0104
18791TIP3    H177864   6.620   4.702   0.208  0.8029  0.7376  0.8774
18791TIP3    H277865   6.730   4.805   0.208  0.1032  1.5143 -0.8922
18792TIP3   OH277866   0.103   6.513  15.039 -0.0988  0.6725 -0.3136
18792TIP3    H177867   0.039   6.499  15.108 -0.3404  0.1992 -0.6256
18792TIP3    H277868   0.094   6.606  15.016  0.8487  1.1412  1.1269
18793TIP3   OH277869   0.846   4.618  15.312  0.0589 -0.6680 -0.4660
18793TIP3    H177870   0.875   4.528  15.326 -0.5109 -0.6169  1.3436
18793TIP3    H277871   0.791   4.614  15.234  2.4397 -1.2987 -2.2092
18794TIP3   OH277872   5.255   5.540  10.867 -0.5028  0.1011  0.2161
18794TIP3    H177873   5.185   5.606  10.863 -0.6518 -0.1018 -1.0357
18794TIP3    H277874   5.211   5.458  10.842  0.5498  0.3239 -2.7610
18795TIP3   OH277875   0.248   3.950  11.716 -0.6221 -0.1723  0.5240
18795TIP3    H177876   0.330   3.928  11.761 -0.9028 -0.2859  0.9864
18795TIP3    H277877   0.204   4.012  11.774  0.0948  1.5717 -0.7022
18796TIP3   OH277878   4.276   5.103   0.643  0.1600  0.6788  0.3288
18796TIP3    H177879   4.260   5.110   0.737  0.2589 -2.0722  0.6359
18796TIP3    H277880   4.371   5.108   0.635  0.0891  2.0331  0.2295
18797TIP3   OH277881   2.012   4.673   5.064  0.0385  0.4338 -0.1658
18797TIP3    H177882   2.097   4.708   5.090 -1.3520  2.1608  2.5275
18797TIP3    H277883   1.966   4.658   5.146 -2.3857 -0.1273 -1.5298
18798TIP3   OH277884   1.548   1.760  16.180 -0.0852  0.2868 -0.0184
18798TIP3    H177885   1.457   1.787  16.192 -0.0680  0.4569 -0.2791
18798TIP3    H277886   1.577   1.735  16.268 -0.8454 -1.2054 -0.1569
18799TIP3   OH277887   2.162   3.304  14.232  0.4823  0.2421  0.0326
18799TIP3    H177888   2.106   3.381  14.240 -1.3053 -0.9661 -0.2798
18799TIP3    H277889   2.238   3.335  14.182 -0.0537  1.8495  0.1594
18800TIP3   OH277890   1.221   0.839   3.876 -0.3336 -0.0851  0.0959
18800TIP3    H177891   1.177   0.923   3.865  1.7885  0.9420 -1.3765
18800TIP3    H277892   1.237   0.832   3.970 -1.5792  0.5809  0.3629
18801TIP3   OH277893   3.731   0.101  13.353  0.0604  0.3917  0.7537
18801TIP3    H177894   3.660   0.037  13.347 -0.8904  1.4438  0.4353
18801TIP3    H277895   3.754   0.104  13.446  0.0299 -0.3115  0.7855
18802TIP3   OH277896   0.050   1.435   5.346 -0.1313  0.2989 -0.0092
18802TIP3    H177897   0.055   1.344   5.376  0.6704  0.7285  1.2093
18802TIP3    H277898   0.121   1.442   5.282 -0.5274 -0.0637 -0.4974
18803TIP3   OH277899   4.090   2.194   5.195  0.2150 -0.0773  0.4296
18803TIP3    H177900   4.060   2.104   5.211 -2.5025  0.8307  0.9855
18803TIP3    H277901   4.097   2.199   5.100 -1.5744 -0.3675  0.2416
18804TIP3   OH277902   2.676   3.637  15.437 -0.1172 -0.3225 -0.9705
18804TIP3    H177903   2.735   3.681  15.375  0.5591 -0.2253 -0.2634
18804TIP3    H277904   2.599   3.693  15.441  0.4544  0.4496 -0.6007
18805TIP3   OH277905   4.579   3.847  11.830 -0.8573  0.2720 -0.2449
18805TIP3    H177906   4.581   3.943  11.824  3.2049  0.3036 -3.2194
18805TIP3    H277907   4.643   3.826  11.898  0.3742 -0.2105 -1.4937
18806TIP3   OH277908   0.394   6.812   3.631 -0.0795 -0.2517  0.1882
18806TIP3    H177909   0.358   6.806   3.543 -0.5490 -0.7645  0.4076
18806TIP3    H277910   0.485   6.782   3.622 -0.5123 -1.6134  0.1030
18807TIP3   OH277911   5.864   2.674  14.743 -0.1533  0.2335 -0.4378
18807TIP3    H177912   5.801   2.635  14.804 -0.5672 -0.5391 -1.3292
18807TIP3    H277913   5.923   2.602  14.720  1.1262  0.9649  0.4395
18808TIP3   OH277914   4.473   5.712   4.671  0.5662 -0.9839 -0.4624
18808TIP3    H177915   4.407   5.774   4.700  0.9604  1.0154 -3.3804
18808TIP3    H277916   4.512   5.677   4.752 -1.0389  1.0576  1.2921
18809TIP3   OH277917   1.248   6.803  16.760  0.1506  0.5205 -0.4787
18809TIP3    H177918   1.239   6.833  16.850  1.7595 -0.1703 -0.0417
18809TIP3    H277919   1.281   6.879  16.712  1.1454  0.3688 -0.0579
18810TIP3   OH277920   2.251   4.704   3.365  0.5675 -0.1733  0.0714
18810TIP3    H177921   2.173   4.734   3.412  1.3257 -1.1926  2.1032
18810TIP3    H277922   2.238   4.609   3.357 -0.9319  0.2005 -4.5750
18811TIP3   OH277923   1.053   4.247   2.476  0.1085  0.3353 -0.1918
18811TIP3    H177924   1.011   4.169   2.437 -0.8263  1.0805 -0.7125
18811TIP3    H277925   1.146   4.233   2.461  0.3028 -2.1441  2.4102
18812TIP3   OH277926   4.521   5.954   1.620  0.2062 -0.3792 -0.4433
18812TIP3    H177927   4.436   5.996   1.635 -0.5803 -1.7154 -0.9378
18812TIP3    H277928   4.545   5.981   1.531  0.2920 -0.0414 -0.3217
18813TIP3   OH277929   6.059   6.368  16.233 -0.2776 -0.3191 -0.1094
18813TIP3    H177930   5.995   6.317  16.283  0.2261 -1.5007 -0.6262
18813TIP3    H277931   6.111   6.413  16.299 -0.0045 -1.3874  0.4224
18814TIP3   OH277932   2.401   6.030   1.793 -0.1041 -0.1436  0.0854
18814TIP3    H177933   2.450   5.962   1.840 -0.3497  0.2357  0.9166
18814TIP3    H277934   2.468   6.081   1.747  0.0532 -1.1530 -0.8484
18815TIP3   OH277935   1.274   3.036  16.378 -0.8349  0.2322  0.1542
18815TIP3    H177936   1.241   3.115  16.422  3.7197  2.2369  0.5252
18815TIP3    H277937   1.334   2.997  16.441 -0.0468 -1.3430 -1.4905
18816TIP3   OH277938   3.341   6.578   4.177 -0.1411  0.0232 -0.0379
18816TIP3    H177939   3.403   6.512   4.208 -0.6878 -0.2880  0.4030
18816TIP3    H277940   3.383   6.615   4.099  0.0905 -0.9551 -0.3883
18817TIP3   OH277941   4.972   0.998  15.056  0.4138  0.1777  0.1202
18817TIP3    H177942   4.938   1.017  14.969 -2.2628  0.8997  1.2162
18817TIP3    H277943   4.919   1.053  15.115  1.9406 -0.4699  2.2348
18818TIP3   OH277944   4.212   6.490   1.249 -0.7242 -0.0382 -0.2635
18818TIP3    H177945   4.203   6.499   1.154  0.9624 -2.7373 -0.7941
18818TIP3    H277946   4.144   6.427   1.273 -0.7787  0.2033  0.2198
18819TIP3   OH277947   1.982   1.352   0.396  0.2717  0.2596  0.6759
18819TIP3    H177948   2.038   1.369   0.471  0.8359  0.9714  0.1157
18819TIP3    H277949   1.911   1.415   0.405  0.6623  0.7623  0.3000
18820TIP3   OH277950   3.432   3.699  15.502  0.0457  0.3761 -0.0015
18820TIP3    H177951   3.412   3.791  15.484  0.3707  0.6378  0.9297
18820TIP3    H277952   3.449   3.696  15.596 -1.9878 -1.0072  0.3977
18821TIP3   OH277953   0.358   0.545   1.422 -0.4457  0.3197  0.6414
18821TIP3    H177954   0.377   0.606   1.493  2.1827 -0.6216  0.8465
18821TIP3    H277955   0.385   0.459   1.456  1.8348 -0.0229 -1.7539
18822TIP3   OH277956   4.873   4.154  14.380  0.3099 -0.1373 -0.0046
18822TIP3    H177957   4.932   4.219  14.419  2.6279 -2.6336  0.9774
18822TIP3    H277958   4.919   4.123  14.302 -0.1103 -1.4491  0.2402
18823TIP3   OH277959   5.224   3.245   3.538  0.3721 -0.1774 -0.0466
18823TIP3    H177960   5.242   3.169   3.482 -1.8844 -0.7179 -0.1567
18823TIP3    H277961   5.277   3.316   3.500  1.7103 -1.4181 -0.5838
18824TIP3   OH277962   1.825   3.238  14.796 -0.2380 -0.3628  0.4898
18824TIP3    H177963   1.903   3.289  14.816  1.6023 -2.0309 -1.8110
18824TIP3    H277964   1.770   3.297  14.744  1.5400 -0.3813 -1.5611
18825TIP3   OH277965   0.617   0.202   5.091 -0.3549 -0.1072 -0.1029
18825TIP3    H177966   0.697   0.217   5.040  0.0800  0.2850  0.6676
18825TIP3    H277967   0.638   0.235   5.178 -1.9188  1.5199 -0.2973
18826TIP3   OH277968   3.052   5.115   4.812 -0.3814 -0.4225  0.3873
18826TIP3    H177969   2.991   5.177   4.771 -1.6956 -1.7284  0.2731
18826TIP3    H277970   3.010   5.091   4.894  1.3468  0.7332  1.6913
18827TIP3   OH277971   4.429   0.273   4.264 -0.7179  0.1785  0.3294
18827TIP3    H177972   4.479   0.352   4.242 -0.9632  0.9075  2.2414
18827TIP3    H277973   4.389   0.293   4.348 -2.1820 -1.3660  0.0371
18828TIP3   OH277974   2.932   1.389  14.021  0.1551  0.1115 -0.3441
18828TIP3    H177975   2.854   1.425  13.978  0.5026  2.5452  0.8666
18828TIP3    H277976   2.919   1.408  14.114  1.9223  0.0293 -0.0530
18829TIP3   OH277977   1.702   5.183   2.200 -0.3520 -0.0658  0.5930
18829TIP3    H177978   1.658   5.262   2.168  0.7159 -0.0935 -1.0495
18829TIP3    H277979   1.676   5.115   2.137 -0.1472 -0.7115  1.1953
18830TIP3   OH277980   1.432   2.401   5.457 -0.0201  0.0915 -1.0006
18830TIP3    H177981   1.420   2.309   5.483  0.3656  0.2631 -0.1974
18830TIP3    H277982   1.374   2.412   5.382 -1.9475 -0.1760  0.3552
18831TIP3   OH277983   0.533   5.496  15.299  0.1839 -0.0194 -0.4059
18831TIP3    H177984   0.470   5.567  15.300 -1.6382 -1.5263 -1.3053
18831TIP3    H277985   0.555   5.481  15.391 -1.8868 -0.3650  0.0678
18832TIP3   OH277986   0.610   5.448  10.798  0.2686 -0.0382  0.1112
18832TIP3    H177987   0.598   5.394  10.720  0.4822 -0.3572  0.2979
18832TIP3    H277988   0.598   5.388  10.871  1.2164  0.0080  0.3194
18833TIP3   OH277989   5.970   6.433   2.053 -0.1093 -0.2756  0.2997
18833TIP3    H177990   5.879   6.404   2.055  0.0561 -0.7611  1.4326
18833TIP3    H277991   6.015   6.368   1.999 -0.7784  1.1439 -2.1650
18834TIP3   OH277992   3.908   0.776  16.729  0.4883  0.6656 -0.0423
18834TIP3    H177993   3.829   0.794  16.678  0.4688 -1.1461 -0.7654
18834TIP3    H277994   3.974   0.755  16.663  1.2274  0.9602  0.5931
18835TIP3   OH277995   4.983   5.162   5.788  0.0263 -0.3896 -0.1986
18835TIP3    H177996   5.023   5.178   5.702 -1.4594  0.2763 -0.8099
18835TIP3    H277997   4.982   5.248   5.830  0.7327 -0.7103  0.5031
18836TIP3   OH277998   1.297   0.282   4.107  0.4042 -0.8616 -0.0023
18836TIP3    H177999   1.217   0.243   4.071  0.0508  0.4094 -0.6258
18836TIP3    H278000   1.351   0.206   4.129 -1.9187 -1.8882  2.7916
18837TIP3   OH278001   3.218   0.151  11.698 -0.0611 -0.4015  0.2801
18837TIP3    H178002   3.190   0.233  11.657  1.1528  0.2679  0.7258
18837TIP3    H278003   3.286   0.118  11.640  0.0074 -0.6785  0.5171
18838TIP3   OH278004   3.331   6.852  12.924  0.1733 -0.5776  0.1502
18838TIP3    H178005   3.331   6.947  12.935 -0.1232 -0.5492 -0.0867
18838TIP3    H278006   3.423   6.829  12.908  0.3974 -0.4445  1.1534
18839TIP3   OH278007   2.420   0.747   1.834  0.2667 -0.0232 -0.4233
18839TIP3    H178008   2.492   0.780   1.888 -0.2560 -1.4142  1.2230
18839TIP3    H278009   2.374   0.685   1.891 -0.8269 -0.9532 -2.2347
18840TIP3   OH278010   6.714   0.052   0.784  0.1845 -0.1521 -0.4119
18840TIP3    H178011   6.733   0.142   0.810  2.9917 -0.6030 -0.5751
18840TIP3    H278012   6.655   0.060   0.709  1.1436  1.6023 -1.0284
18841TIP3   OH278013   1.700   0.784  11.882  0.3148  0.7532 -0.1750
18841TIP3    H178014   1.778   0.728  11.884 -0.8845 -1.0175  1.5636
18841TIP3    H278015   1.667   0.776  11.792  1.1061 -0.0023 -0.4165
18842TIP3   OH278016   6.763   6.636  14.744 -0.4454  0.4399  0.0635
18842TIP3    H178017   6.709   6.666  14.817  1.4362  1.0979  1.2464
18842TIP3    H278018   6.841   6.691  14.747  0.4858 -0.7261 -1.3346
18843TIP3   OH278019   5.452   0.862   1.867 -0.1335  0.5857 -0.0146
18843TIP3    H178020   5.408   0.905   1.793  0.9106  4.6064  1.4531
18843TIP3    H278021   5.536   0.833   1.831 -0.9626 -0.6262 -1.1020
18844TIP3   OH278022   5.594   5.445   4.095  0.1709  0.3691  0.1238
18844TIP3    H178023   5.638   5.366   4.063 -0.6291 -0.1907  0.3800
18844TIP3    H278024   5.652   5.479   4.163  0.8157  0.3463 -0.4083
18845TIP3   OH278025   5.541   5.706   3.997 -0.3617  0.3238  0.4469
18845TIP3    H178026   5.596   5.712   3.919 -0.0433  0.1783  0.6543
18845TIP3    H278027   5.558   5.618   4.031 -0.4161  0.4243  0.7377
18846TIP3   OH278028   3.244   4.521  11.849  0.5917  0.4362 -0.1457
18846TIP3    H178029   3.217   4.499  11.760 -2.3043  0.4178  0.6600
18846TIP3    H278030   3.185   4.591  11.877  1.8550  0.9081  1.5570
18847TIP3   OH278031   0.607   0.416  14.164 -0.0589 -0.1830  0.0379
18847TIP3    H178032   0.624   0.382  14.252  1.4380  0.1036 -0.1175
18847TIP3    H278033   0.608   0.511  14.174 -1.3843 -0.1343 -0.0498
18848TIP3   OH278034   1.202   2.750   0.241  0.2432 -0.5018 -0.9034
18848TIP3    H178035   1.192   2.823   0.179 -1.6775 -1.6661 -2.0797
18848TIP3    H278036   1.167   2.784   0.324  1.2612  0.5378 -0.8769
18849TIP3   OH278037   4.282   2.486   6.334  0.2758  0.1962  0.4092
18849TIP3    H178038   4.287   2.536   6.416  2.0655 -1.1119  1.1593
18849TIP3    H278039   4.372   2.456   6.319 -0.1262 -0.0488 -1.7725
18850TIP3   OH278040   0.030   5.224  14.305 -0.2046  0.5327 -0.0703
18850TIP3    H178041   0.018   5.160  14.235  0.5772  0.2220  0.0710
18850TIP3    H278042  -0.037   5.201  14.370  0.0920 -0.1646 -0.0031
18851TIP3   OH278043   1.980   5.215  10.734 -0.3620 -0.3475 -0.6166
18851TIP3    H178044   1.905   5.207  10.675 -0.8104  0.3924 -0.1627
18851TIP3    H278045   2.048   5.257  10.680 -0.5678 -0.2260 -0.7843
18852TIP3   OH278046   5.349   2.734   5.647  0.5352  0.6917 -0.9801
18852TIP3    H178047   5.280   2.710   5.709  1.3880  0.2105 -0.2032
18852TIP3    H278048   5.340   2.671   5.576  1.1414 -0.3773 -0.1443
18853TIP3   OH278049   5.464   4.554   0.850 -0.2211  0.1506  0.0813
18853TIP3    H178050   5.413   4.523   0.775  2.0655 -1.2236 -0.9844
18853TIP3    H278051   5.460   4.482   0.913 -1.1753  0.8399  0.8403
18854TIP3   OH278052   4.767   3.051   3.530  0.0439 -0.3306 -0.3000
18854TIP3    H178053   4.783   2.966   3.571 -1.4197  0.3667  1.8654
18854TIP3    H278054   4.680   3.042   3.492 -0.5168  0.4552  0.7546
18855TIP3   OH278055   4.578   3.494   3.847 -0.0344  0.4949  0.1188
18855TIP3    H178056   4.622   3.422   3.891 -0.9000  0.1283  0.4164
18855TIP3    H278057   4.592   3.479   3.754  0.3888  0.3455  0.2043
18856TIP3   OH278058   3.097   1.100  15.113  0.1852 -0.3536 -0.1144
18856TIP3    H178059   3.070   1.139  15.196 -4.6327 -0.3085 -1.4002
18856TIP3    H278060   3.105   1.007  15.132 -0.3944 -0.2815  0.5426
18857TIP3   OH278061   5.622   4.045  11.580 -0.4503 -0.2682 -0.0091
18857TIP3    H178062   5.677   3.978  11.540 -0.0094  1.2881 -2.1899
18857TIP3    H278063   5.600   4.010  11.666  0.0982 -2.9945 -0.8852
18858TIP3   OH278064   5.185   2.971   3.921 -0.6838 -0.6075  0.6407
18858TIP3    H178065   5.126   2.898   3.940 -2.1064 -0.3832 -2.3452
18858TIP3    H278066   5.127   3.047   3.911  0.4869  0.3435  0.8504
18859TIP3   OH278067   0.100   0.227   0.520  0.1035  0.1145 -0.1588
18859TIP3    H178068   0.088   0.141   0.479 -0.6632  0.4346 -0.6316
18859TIP3    H278069   0.077   0.290   0.451 -0.6097  0.6690  0.5674
18860TIP3   OH278070   4.891   6.758  15.700 -0.4576 -0.2983  0.2329
18860TIP3    H178071   4.982   6.734  15.717 -0.3876  0.3048  0.7426
18860TIP3    H278072   4.840   6.701  15.757 -0.4559 -1.1529 -0.5844
18861TIP3   OH278073   2.586   6.758  11.222  0.2080 -0.7828  0.2246
18861TIP3    H178074   2.615   6.725  11.137  0.9050  2.2450 -0.8417
18861TIP3    H278075   2.493   6.779  11.209  0.8487  1.9074 -0.6823
18862TIP3   OH278076   3.117   6.787  13.844 -0.2437  0.1577 -0.0361
18862TIP3    H178077   3.149   6.703  13.876 -1.0461  0.3858  1.4377
18862TIP3    H278078   3.026   6.792  13.874  0.0375  1.9101  0.6900
18863TIP3   OH278079   6.847   5.472  13.673 -0.1412  0.4368 -0.1815
18863TIP3    H178080   6.888   5.536  13.732 -1.0467  0.7674  0.1134
18863TIP3    H278081   6.754   5.493  13.677 -0.3282 -0.2209 -0.9250
18864TIP3   OH278082   4.087   0.765  16.282 -0.1709  0.3364 -1.0799
18864TIP3    H178083   4.055   0.847  16.321 -0.1704 -0.7844  1.5330
18864TIP3    H278084   4.007   0.713  16.268 -0.0755  0.3229 -1.5767
18865TIP3   OH278085   3.009   1.095  14.024 -0.4714  0.2271  0.1511
18865TIP3    H178086   2.972   1.103  13.936 -0.9797 -1.3315  0.2047
18865TIP3    H278087   2.973   1.170  14.072  1.3009  2.2555 -1.4190
18866TIP3   OH278088   0.018   1.052  17.041 -0.8270  0.0187 -0.1398
18866TIP3    H178089   0.059   0.966  17.042 -1.0352 -0.0943  1.2479
18866TIP3    H278090  -0.047   1.048  16.971  1.2898  0.1211 -2.2393
18867TIP3   OH278091   1.421   0.034   6.033  0.3852 -0.2782 -0.4948
18867TIP3    H178092   1.479   0.004   6.102  1.5238  0.4044 -1.1222
18867TIP3    H278093   1.399   0.124   6.057 -1.6949 -0.9969  0.5328
18868TIP3   OH278094   1.444   4.248  12.238 -0.0662 -0.0836  0.1223
18868TIP3    H178095   1.477   4.330  12.201 -0.3434 -0.3907 -0.8168
18868TIP3    H278096   1.363   4.274  12.283 -1.5983 -0.2204 -2.3967
18869TIP3   OH278097   6.797   0.575   0.769  0.5824 -0.7675 -0.5744
18869TIP3    H178098   6.753   0.620   0.697 -0.6340 -0.0480  0.5860
18869TIP3    H278099   6.831   0.645   0.824  0.2517 -1.2894  0.3133
18870TIP3   OH278100   0.933   5.076  12.103  0.1672 -0.1015 -0.0002
18870TIP3    H178101   0.930   5.121  12.019 -1.0145  0.7530  0.4597
18870TIP3    H278102   1.026   5.060  12.119  0.5588  1.4575 -0.5681
18871TIP3   OH278103   5.522   0.794   4.478 -0.2060  0.2432  0.1771
18871TIP3    H178104   5.486   0.852   4.411 -1.5594 -1.4075 -0.6172
18871TIP3    H278105   5.538   0.711   4.431  1.1153 -0.2181  1.3822
18872TIP3   OH278106   3.033   6.047  11.362 -0.1133  0.0197 -0.9894
18872TIP3    H178107   3.058   5.972  11.308 -1.2451 -0.2068 -1.2258
18872TIP3    H278108   3.113   6.099  11.369  0.9071 -1.5444 -0.2505
18873TIP3   OH278109   1.594   3.541  14.498 -0.0706 -0.1160  0.1298
18873TIP3    H178110   1.675   3.587  14.475  0.2492 -0.7869 -0.1018
18873TIP3    H278111   1.526   3.588  14.450  0.3862 -0.4961 -0.9181
18874TIP3   OH278112   2.537   4.909  11.758 -0.0077 -0.3887 -0.0928
18874TIP3    H178113   2.505   4.822  11.782 -1.3434  0.3407  0.9434
18874TIP3    H278114   2.627   4.895  11.728 -0.4452 -2.2106 -0.6726
18875TIP3   OH278115   0.250   5.527  13.587 -0.1373  0.0012  0.2609
18875TIP3    H178116   0.185   5.583  13.630  0.6877  1.7407 -0.6275
18875TIP3    H278117   0.288   5.583  13.519  1.1027 -1.5115 -0.3534
18876TIP3   OH278118   1.996   1.058   5.045 -0.4032  0.2985  0.5632
18876TIP3    H178119   1.929   1.126   5.054 -0.9171 -0.2877  1.3971
18876TIP3    H278120   1.999   1.017   5.131 -0.7012 -1.2706 -0.1345
18877TIP3   OH278121   5.895   3.614   4.717  0.7175  0.1098  0.3268
18877TIP3    H178122   5.917   3.521   4.731 -0.6786 -0.7743 -2.5428
18877TIP3    H278123   5.854   3.616   4.631  0.0791  3.3516  0.5832
18878TIP3   OH278124   3.315   3.241   4.245 -0.2772  0.3011  0.2868
18878TIP3    H178125   3.231   3.211   4.210  0.8847 -0.9017 -1.5921
18878TIP3    H278126   3.350   3.299   4.178  1.6055 -1.3579 -0.2535
18879TIP3   OH278127   4.503   3.756  12.539  0.6836 -0.4951 -0.4347
18879TIP3    H178128   4.565   3.775  12.469  1.7292  0.3456  0.6764
18879TIP3    H278129   4.515   3.663  12.557  1.1227 -0.4960 -0.7078
18880TIP3   OH278130   1.088   0.917   0.777 -0.5564 -0.1267 -0.0473
18880TIP3    H178131   1.177   0.916   0.810 -1.1765  0.1541  1.7501
18880TIP3    H278132   1.076   0.831   0.736  0.9075  0.3067 -1.5188
18881TIP3   OH278133   5.330   0.951  13.750 -0.6803  0.2966  0.8678
18881TIP3    H178134   5.239   0.940  13.779 -0.5287 -2.2782  0.6123
18881TIP3    H278135   5.374   0.871  13.780  1.2519  1.0115  0.0608
18882TIP3   OH278136   6.544   6.693  14.907 -0.4608  0.4724  0.0282
18882TIP3    H178137   6.531   6.744  14.987  0.6844  0.6951  0.0945
18882TIP3    H278138   6.507   6.748  14.838 -1.1559  0.4292  0.3566
18883TIP3   OH278139   4.855   3.777   4.242  0.3108  0.4368  0.0653
18883TIP3    H178140   4.919   3.721   4.198  0.9309 -0.1663  1.6494
18883TIP3    H278141   4.770   3.741   4.218  0.6914 -1.0646  0.8400
18884TIP3   OH278142   5.003   3.555  14.208  0.5934 -0.5850 -0.1400
18884TIP3    H178143   5.036   3.611  14.278  1.4965 -1.2024 -0.0517
18884TIP3    H278144   5.013   3.466  14.241 -1.1529 -0.8114 -0.1345
18885TIP3   OH278145   1.123   4.149   3.538  0.5475 -0.6084  0.1417
18885TIP3    H178146   1.131   4.203   3.459 -0.2948 -0.8126 -0.0858
18885TIP3    H278147   1.109   4.060   3.505  0.4718 -0.7405  0.5256
18886TIP3   OH278148   5.718   2.511  12.386  0.0349  0.8273 -0.1136
18886TIP3    H178149   5.785   2.508  12.318  0.4757  0.6375  0.3189
18886TIP3    H278150   5.649   2.453  12.354 -0.1952  1.4850 -0.8347
18887TIP3   OH278151   0.134   2.495   5.382  0.3031 -0.8314  0.5864
18887TIP3    H178152   0.225   2.523   5.374 -0.2601  1.4986  1.5596
18887TIP3    H278153   0.121   2.486   5.477 -1.0821  1.2801  0.6621
18888TIP3   OH278154   5.447   1.722  12.427  0.2337 -0.0049  0.7270
18888TIP3    H178155   5.398   1.799  12.456 -0.2103 -0.8333  2.2780
18888TIP3    H278156   5.490   1.750  12.346 -0.8922  1.4804  0.6054
18889TIP3   OH278157   2.278   3.038   5.217 -0.2663  0.0865 -0.3256
18889TIP3    H178158   2.286   3.077   5.130 -0.9178 -0.3843 -0.6029
18889TIP3    H278159   2.188   3.007   5.221 -0.2838  0.2346  0.5763
18890TIP3   OH278160   0.549   1.554   0.584  0.2119 -0.5811 -0.5599
18890TIP3    H178161   0.513   1.602   0.510 -0.9814 -1.5790 -0.6552
18890TIP3    H278162   0.512   1.467   0.577  2.4222 -1.6090 -0.4679
18891TIP3   OH278163   5.555   1.701  14.525  0.2173  0.5732  0.7124
18891TIP3    H178164   5.498   1.680  14.451  0.7120  3.0212 -0.4482
18891TIP3    H278165   5.580   1.615  14.560 -0.4815 -0.6736 -1.5920
18892TIP3   OH278166   6.784   0.180   4.279 -0.4317  0.0609 -0.9818
18892TIP3    H178167   6.866   0.206   4.239 -0.1506  0.1038 -0.3914
18892TIP3    H278168   6.765   0.250   4.342  0.0315 -0.8399  0.2033
18893TIP3   OH278169   2.250   0.013   5.157 -0.3279 -0.5047 -0.0337
18893TIP3    H178170   2.164  -0.011   5.191  0.3045 -1.0468  1.2669
18893TIP3    H278171   2.253   0.108   5.166  0.1691 -0.6813  2.4509
18894TIP3   OH278172   3.629   1.793   1.542 -0.0639  0.2259  0.0968
18894TIP3    H178173   3.579   1.859   1.495  0.3807  1.7485  1.6554
18894TIP3    H278174   3.721   1.813   1.523  0.0645 -1.2778 -1.0809
18895TIP3   OH278175   5.917   1.064  16.334 -0.1572  0.0081  0.4102
18895TIP3    H178176   5.847   1.128  16.342 -1.5126 -1.6319  3.3284
18895TIP3    H278177   5.874   0.984  16.303  0.9532 -0.2949 -0.4355
18896TIP3   OH278178   4.997   4.177  16.258  0.2753 -0.2739  0.3346
18896TIP3    H178179   4.919   4.201  16.309  0.1625 -2.0702  1.0658
18896TIP3    H278180   5.070   4.210  16.310  0.0492  1.1553 -0.2069
18897TIP3   OH278181   2.829   1.617  16.531  0.3030  0.3212  0.2813
18897TIP3    H178182   2.746   1.656  16.504 -0.6333 -0.9852  1.1375
18897TIP3    H278183   2.838   1.639  16.624  0.4319 -0.3361  0.4342
18898TIP3   OH278184   3.606   6.117  14.068 -0.1857 -0.5512  0.0538
18898TIP3    H178185   3.621   6.187  14.005  1.4637 -0.6846  0.2517
18898TIP3    H278186   3.526   6.074  14.038 -0.8462  0.9672 -0.4629
18899TIP3   OH278187   4.846   6.231   1.971 -0.4683  0.3801  0.4026
18899TIP3    H178188   4.826   6.263   1.883 -0.7399  2.7202  1.2371
18899TIP3    H278189   4.919   6.285   2.000  1.1682 -1.8987  0.8254
18900TIP3   OH278190   2.275   5.668  16.539  0.9630 -0.0655 -0.4361
18900TIP3    H178191   2.184   5.679  16.512  1.3996  1.3500 -1.4363
18900TIP3    H278192   2.277   5.583  16.583 -0.7260 -0.3464 -0.8417
18901TIP3   OH278193   4.992   3.399  17.097  0.4282 -0.3081 -0.5234
18901TIP3    H178194   5.048   3.345  17.152  2.2095 -0.3031 -2.2046
18901TIP3    H278195   4.987   3.483  17.142  1.0782 -0.5790  0.0605
18902TIP3   OH278196   4.220   6.332   4.524  0.4477  0.0024  0.1281
18902TIP3    H178197   4.315   6.331   4.522  0.5383 -0.4460  2.2164
18902TIP3    H278198   4.197   6.285   4.604 -1.3961  2.9702  1.5400
18903TIP3   OH278199   2.096   0.346   0.697 -0.0357 -0.8016 -0.1592
18903TIP3    H178200   2.054   0.313   0.777  0.2892  0.0950  0.3964
18903TIP3    H278201   2.159   0.411   0.728  0.7466 -1.0835 -1.0829
18904TIP3   OH278202   6.024   2.472  12.657  0.3165  0.2671 -0.3679
18904TIP3    H178203   6.077   2.435  12.728 -0.0896  1.1337  0.3976
18904TIP3    H278204   6.016   2.565  12.679 -0.2115  0.4520 -1.3083
18905TIP3   OH278205   1.075   5.453   0.869  0.1341  0.1620  0.4163
18905TIP3    H178206   1.160   5.487   0.898 -0.4021  1.0721  0.9752
18905TIP3    H278207   1.048   5.513   0.800 -1.3144  1.5951  2.1279
18906TIP3   OH278208   1.628   5.309   3.433 -0.0534 -0.4499 -0.1079
18906TIP3    H178209   1.600   5.261   3.355 -1.0959  1.3334 -0.8811
18906TIP3    H278210   1.675   5.385   3.400  0.2216 -0.0964  1.0355
18907TIP3   OH278211   3.009   2.779   1.732  0.2131  0.2791 -0.4119
18907TIP3    H178212   2.915   2.760   1.737 -0.2295  2.1766 -0.8397
18907TIP3    H278213   3.040   2.724   1.660 -0.3592 -1.0502  0.3180
18908TIP3   OH278214   4.539   6.719  12.135  0.5329 -0.3753 -0.1221
18908TIP3    H178215   4.467   6.657  12.129 -0.2135  0.0719  2.8001
18908TIP3    H278216   4.615   6.665  12.158 -0.1259 -0.3186  2.4789
18909TIP3   OH278217   5.396   5.170  13.981 -0.0994 -0.2811  0.5865
18909TIP3    H178218   5.484   5.133  13.978 -0.0334 -0.2107  1.4072
18909TIP3    H278219   5.372   5.183  13.889 -0.1470 -2.3822  0.2568
18910TIP3   OH278220   3.133   5.512  15.310 -0.1051  0.3745 -0.1362
18910TIP3    H178221   3.052   5.497  15.360 -0.3060 -0.6426 -0.7441
18910TIP3    H278222   3.184   5.571  15.365 -1.1092  0.7470  0.4227
18911TIP3   OH278223   5.217   4.128   2.121 -0.0478  0.1042  0.3296
18911TIP3    H178224   5.278   4.191   2.159 -0.4276  1.3956 -1.0885
18911TIP3    H278225   5.186   4.076   2.195 -0.6287  2.3826  1.7709
18912TIP3   OH278226   1.142   6.623   2.967  0.0320  0.2021  0.0210
18912TIP3    H178227   1.093   6.651   2.889 -0.4082  0.7041  0.4618
18912TIP3    H278228   1.104   6.538   2.990  0.0237  0.1469 -0.1993
18913TIP3   OH278229   4.382   0.020   3.898 -0.0521  0.0973 -0.0896
18913TIP3    H178230   4.385  -0.076   3.898  0.7950  0.1047  0.5436
18913TIP3    H278231   4.292   0.041   3.872 -0.1659 -0.8577 -0.5339
18914TIP3   OH278232   2.660   4.282   3.633  0.3121 -0.0776  0.0108
18914TIP3    H178233   2.648   4.286   3.538 -0.8866 -0.3274  0.1453
18914TIP3    H278234   2.629   4.196   3.658  1.3445 -0.3156  0.5537
18915TIP3   OH278235   0.720   4.383  14.762  0.1918  0.4484  0.3589
18915TIP3    H178236   0.683   4.348  14.843 -1.1651  0.4746 -0.2222
18915TIP3    H278237   0.707   4.313  14.698  1.2544  0.4275  0.1543
18916TIP3   OH278238   2.009   1.015  12.453  0.1559  0.3489  0.2926
18916TIP3    H178239   1.996   1.110  12.449  0.5915  0.4372  0.8180
18916TIP3    H278240   1.929   0.981  12.494 -1.1452  0.1930 -2.1609
18917TIP3   OH278241   4.047   1.754  13.583 -0.4145  0.7405  0.2031
18917TIP3    H178242   4.132   1.738  13.625  1.1662  0.3413 -2.8393
18917TIP3    H278243   3.983   1.723  13.646  1.8477 -2.3750  1.2608
18918TIP3   OH278244   5.621   0.365  14.413  0.2442 -0.5102 -0.2094
18918TIP3    H178245   5.613   0.287  14.359 -1.2535  0.0462 -0.8264
18918TIP3    H278246   5.542   0.416  14.395  0.8179  0.7899  0.7615
18919TIP3   OH278247   3.469   6.374  15.447  0.0565 -0.7573  0.5607
18919TIP3    H178248   3.494   6.392  15.357 -1.4604 -0.5838  0.1550
18919TIP3    H278249   3.435   6.285  15.446  0.6163 -0.9833  1.0890
18920TIP3   OH278250   0.491   5.835  13.646  0.3093 -0.1774  0.1350
18920TIP3    H178251   0.473   5.750  13.685  1.8467 -0.4088  0.3937
18920TIP3    H278252   0.450   5.831  13.560  0.8639 -1.4053 -0.0895
18921TIP3   OH278253   3.596   2.906   2.690  0.3143  0.2653  0.3353
18921TIP3    H178254   3.644   2.862   2.759 -1.0349 -1.4678  0.2241
18921TIP3    H278255   3.651   2.982   2.667  2.9865 -1.5669  0.2013
18922TIP3   OH278256   3.844   3.456   3.732 -0.3362 -0.1804  0.2791
18922TIP3    H178257   3.793   3.537   3.740 -1.3202 -0.9182  1.6054
18922TIP3    H278258   3.833   3.431   3.640 -0.6513  0.7626  0.0412
18923TIP3   OH278259   4.553   0.667   5.240  0.4008  0.1191  0.2897
18923TIP3    H178260   4.525   0.728   5.172 -0.2211  0.2963  0.6949
18923TIP3    H278261   4.489   0.679   5.311  0.9763 -0.1306  0.8661
18924TIP3   OH278262   1.925   0.721  16.318 -0.8214  0.4598 -0.2285
18924TIP3    H178263   2.019   0.737  16.312 -0.9377  0.9207 -0.8943
18924TIP3    H278264   1.895   0.718  16.227 -1.3368 -0.3827 -0.0378
18925TIP3   OH278265   5.379   3.493  11.590  0.2977  0.0213  0.1866
18925TIP3    H178266   5.389   3.512  11.496 -1.9434  0.9751  0.0831
18925TIP3    H278267   5.378   3.579  11.631  0.3357 -0.3524  0.9782
18926TIP3   OH278268   0.027   5.067   6.035 -0.6243 -0.2275 -0.0686
18926TIP3    H178269  -0.049   5.110   5.996  0.5304  1.1273 -0.8854
18926TIP3    H278270   0.029   4.981   5.993 -2.3097 -0.7364  0.7768
18927TIP3   OH278271   6.240   0.128  14.478  0.5267  0.7250 -0.0117
18927TIP3    H178272   6.210   0.052  14.428 -1.4941  2.1223 -1.0475
18927TIP3    H278273   6.184   0.130  14.555  2.4061 -0.3470  1.4635
18928TIP3   OH278274   2.979   6.401  12.461 -0.3986  0.4615  0.1523
18928TIP3    H178275   2.941   6.313  12.462 -0.2253  0.3860  0.4098
18928TIP3    H278276   2.909   6.457  12.427 -0.1971  0.0873 -0.9260
18929TIP3   OH278277   5.699   3.982  16.181  0.2760  0.4500  0.2637
18929TIP3    H178278   5.631   3.970  16.247  1.1785  1.6304  1.4562
18929TIP3    H278279   5.668   4.055  16.127  0.3137  0.5725  0.4104
18930TIP3   OH278280   3.859   6.434   3.576  0.4333  0.1013  0.6705
18930TIP3    H178281   3.821   6.355   3.540  2.6330 -1.8490  2.2606
18930TIP3    H278282   3.940   6.447   3.526  0.9643  0.2743  1.5366
18931TIP3   OH278283   5.151   5.397   3.537 -0.1848 -0.0312  0.3037
18931TIP3    H178284   5.194   5.318   3.571  0.3526 -0.5274 -1.4329
18931TIP3    H278285   5.065   5.367   3.510  0.2169 -0.1815 -0.8724
18932TIP3   OH278286   2.642   2.108   6.610 -0.0178 -0.0862 -0.2761
18932TIP3    H178287   2.738   2.105   6.613 -0.0393 -0.0562  0.7282
18932TIP3    H278288   2.621   2.093   6.518  0.9333 -0.6943 -0.4125
18933TIP3   OH278289   2.787   2.283  12.259  0.5098 -0.3150 -0.0629
18933TIP3    H178290   2.692   2.294  12.248  0.7121  0.4968 -1.2863
18933TIP3    H278291   2.805   2.318  12.346 -0.3352 -0.6216  0.2481
18934TIP3   OH278292   3.437   6.804  16.748 -0.4187 -0.0757 -0.1872
18934TIP3    H178293   3.417   6.832  16.658  1.3566  0.1295 -0.5440
18934TIP3    H278294   3.500   6.733  16.737  1.1310  1.0800  0.9192
18935TIP3   OH278295   3.536   4.480  16.351 -0.1555  0.5514  0.4502
18935TIP3    H178296   3.524   4.559  16.298 -2.5631  0.2839  0.4766
18935TIP3    H278297   3.538   4.408  16.287  1.3371  0.5572  0.4719
18936TIP3   OH278298   6.439   0.028  14.744 -0.4999  0.3894  0.0299
18936TIP3    H178299   6.457   0.079  14.665 -0.6659 -0.4666 -0.5697
18936TIP3    H278300   6.366   0.074  14.786 -0.8746  0.4638 -0.6862
18937TIP3   OH278301   1.793   0.290  15.157  0.4615 -0.7447  0.3926
18937TIP3    H178302   1.881   0.315  15.128  0.1035 -0.1772 -0.2172
18937TIP3    H278303   1.765   0.362  15.213  0.3603 -0.9023  0.5449
18938TIP3   OH278304   5.748   5.269   0.234 -0.3560 -0.4580 -0.0662
18938TIP3    H178305   5.843   5.270   0.234 -0.3548  0.5445 -0.5943
18938TIP3    H278306   5.724   5.231   0.319  0.4956 -3.1357 -0.9118
18939TIP3   OH278307   1.106   6.144  15.780  0.1492  0.2594 -0.2318
18939TIP3    H178308   1.097   6.238  15.766 -0.6352  0.1219 -0.6958
18939TIP3    H278309   1.131   6.109  15.695 -0.7757 -0.0930 -0.3726
18940TIP3   OH278310   2.950   4.734   3.009 -0.4525 -0.9340  0.5689
18940TIP3    H178311   2.905   4.750   2.926 -1.3935  2.3255  1.5678
18940TIP3    H278312   2.920   4.647   3.036 -2.4956 -0.8304 -1.0849
18941TIP3   OH278313   1.152   4.691  15.346  0.1866 -0.4022 -0.1214
18941TIP3    H178314   1.172   4.721  15.258 -0.8383 -0.5328 -0.4068
18941TIP3    H278315   1.061   4.715  15.360  1.1769  2.7189  2.1798
18942TIP3   OH278316   4.026   3.847   3.921 -0.7681  0.9675  0.2324
18942TIP3    H178317   3.980   3.791   3.983  0.6376 -1.1985 -0.5280
18942TIP3    H278318   4.094   3.890   3.973 -2.0112  2.1917  0.8738
18943TIP3   OH278319   3.321   5.904  12.229 -0.0820  0.0714 -0.6571
18943TIP3    H178320   3.247   5.878  12.285  0.0039 -1.0797 -1.0462
18943TIP3    H278321   3.318   5.842  12.156  1.0981  0.1937 -0.8257
18944TIP3   OH278322   0.650   4.578  14.324 -0.1678  0.3041  0.3787
18944TIP3    H178323   0.653   4.491  14.285 -3.0871  0.5577 -0.6566
18944TIP3    H278324   0.577   4.573  14.387  1.2932  1.3092  2.2448
18945TIP3   OH278325   1.248   3.024  11.168  0.0308  0.7261  0.2207
18945TIP3    H178326   1.291   3.092  11.117  2.2377  0.0907  1.0883
18945TIP3    H278327   1.212   3.070  11.244  0.3879  1.1178  0.1572
18946TIP3   OH278328   5.762   3.803  12.178  0.2217  0.0962  0.3625
18946TIP3    H178329   5.796   3.843  12.258  1.4479 -0.2903  0.0537
18946TIP3    H278330   5.826   3.825  12.111 -1.5132  1.6463 -0.8733
18947TIP3   OH278331   2.181   6.844  12.482 -0.0924  0.7330  0.4467
18947TIP3    H178332   2.244   6.861  12.411 -0.4503 -1.7561 -0.5826
18947TIP3    H278333   2.110   6.796  12.440  0.0724 -1.6040  2.5801
18948TIP3   OH278334   6.650   0.968  13.331  0.4815  0.4098 -0.3202
18948TIP3    H178335   6.578   1.027  13.312 -0.5890 -1.1284 -1.3204
18948TIP3    H278336   6.621   0.883  13.297  1.5900 -0.9081  1.7774
18949TIP3   OH278337   6.754   6.770  16.974 -0.0148  1.0111 -0.1596
18949TIP3    H178338   6.739   6.795  16.883 -0.4609 -0.7534 -0.5930
18949TIP3    H278339   6.688   6.819  17.024  0.0727  1.7967 -0.7983
18950TIP3   OH278340   6.613   5.396   3.962  0.5234  0.6175  0.8984
18950TIP3    H178341   6.704   5.376   3.938  0.3158  0.9598 -0.1941
18950TIP3    H278342   6.584   5.460   3.898 -1.3020 -1.3442 -0.3769
18951TIP3   OH278343   1.009   5.112  16.352  0.6237  0.6404  0.4784
18951TIP3    H178344   1.061   5.102  16.432  1.7977  1.1219 -0.1884
18951TIP3    H278345   1.051   5.055  16.289 -1.5923 -1.4170  0.7342
18952TIP3   OH278346   4.995   3.299   5.920  0.2621  0.3986 -0.6738
18952TIP3    H178347   4.962   3.389   5.926  0.5174  0.4972 -0.7378
18952TIP3    H278348   5.090   3.308   5.918  0.2927  0.1147 -0.5049
18953TIP3   OH278349   0.510   1.297   0.664 -0.6979 -0.3474 -0.6990
18953TIP3    H178350   0.574   1.302   0.735 -0.7101  0.8668 -0.7386
18953TIP3    H278351   0.533   1.219   0.615 -0.7386 -1.2696  0.6878
18954TIP3   OH278352   5.817   3.351   4.791 -0.3334 -0.2711 -0.1867
18954TIP3    H178353   5.751   3.285   4.814 -1.4961  0.6238 -0.8527
18954TIP3    H278354   5.900   3.307   4.804 -1.0815 -1.9184 -0.7319
18955TIP3   OH278355   1.427   1.738   1.955  0.5393  0.4627  0.0904
18955TIP3    H178356   1.423   1.816   1.900 -0.9858 -0.5468 -1.3451
18955TIP3    H278357   1.475   1.674   1.903  1.4771  0.3239  1.1085
18956TIP3   OH278358   5.018   4.906  14.605 -0.2102  0.3982 -0.4683
18956TIP3    H178359   5.097   4.922  14.553 -0.3313 -1.8808 -1.4868
18956TIP3    H278360   5.045   4.922  14.696  1.9872 -1.8254 -0.5934
18957TIP3   OH278361   2.615   2.502  15.101 -0.3326 -0.1610  0.3408
18957TIP3    H178362   2.707   2.494  15.076 -0.4783 -0.0951 -0.2427
18957TIP3    H278363   2.568   2.503  15.018 -0.9296 -1.0081  0.6560
18958TIP3   OH278364   4.638   4.927  17.049 -0.1677  0.6908  0.1440
18958TIP3    H178365   4.621   4.876  17.128 -0.5300  0.9529  0.2433
18958TIP3    H278366   4.623   4.866  16.977  0.4347  0.3740  0.2775
18959TIP3   OH278367   5.360   0.362  15.639 -0.4294  0.5226  0.0463
18959TIP3    H178368   5.270   0.376  15.669  0.3081  1.1874  2.1550
18959TIP3    H278369   5.370   0.267  15.637 -1.4278  0.4249 -1.0932
18960TIP3   OH278370   6.701   5.485  15.481 -0.1900 -0.0041 -0.2707
18960TIP3    H178371   6.699   5.547  15.408  2.7795  0.4001 -0.1595
18960TIP3    H278372   6.769   5.422  15.456 -0.1001 -0.6797  1.5324
18961TIP3   OH278373   0.404   6.746  11.737  0.0736  0.6611 -1.0167
18961TIP3    H178374   0.487   6.791  11.752 -0.0434  0.3544  0.7530
18961TIP3    H278375   0.339   6.816  11.730  0.2927  0.8552 -1.1380
18962TIP3   OH278376   5.940   6.519  16.647 -0.1958 -0.3486  0.3685
18962TIP3    H178377   5.967   6.453  16.583 -0.4968 -0.9543  0.8544
18962TIP3    H278378   5.994   6.596  16.627 -0.9922 -0.1694 -1.2523
18963TIP3   OH278379   6.577   4.539  13.076  0.3931 -0.4195 -0.1602
18963TIP3    H178380   6.504   4.589  13.112  1.2853 -0.3437  1.6123
18963TIP3    H278381   6.572   4.555  12.981 -0.2531  1.7838  0.1986
18964TIP3   OH278382   3.362   5.477  10.831  0.1851 -0.2027  0.4436
18964TIP3    H178383   3.442   5.443  10.872  0.6762  2.3795  1.8806
18964TIP3    H278384   3.393   5.521  10.752 -0.1432 -1.0729 -0.1848
18965TIP3   OH278385   0.851   5.887   3.724  0.7808  1.4038  0.1866
18965TIP3    H178386   0.895   5.829   3.661 -2.5229 -0.2779 -0.8000
18965TIP3    H278387   0.920   5.947   3.753  3.4951 -0.5347 -1.7073
18966TIP3   OH278388   0.003   0.273  16.103 -0.4845 -0.0985  0.1295
18966TIP3    H178389   0.066   0.345  16.110 -0.4499  0.0633 -1.4195
18966TIP3    H278390   0.008   0.247  16.011 -2.1805 -0.5449  0.1421
18967TIP3   OH278391   6.342   4.810   2.778  0.2224 -0.5913 -0.6746
18967TIP3    H178392   6.273   4.873   2.757  0.3090 -0.3230 -0.1857
18967TIP3    H278393   6.418   4.864   2.800  0.4700 -0.8785 -0.8249
18968TIP3   OH278394   3.211   4.535  15.577 -0.7285 -0.2231 -0.2087
18968TIP3    H178395   3.237   4.564  15.490 -1.1358 -1.0649 -0.6168
18968TIP3    H278396   3.118   4.558  15.583 -0.8031 -0.5415 -0.1548
18969TIP3   OH278397   1.146   2.507   0.131 -0.1376  0.0082 -0.9642
18969TIP3    H178398   1.058   2.515   0.094 -0.8496  0.3980  0.7457
18969TIP3    H278399   1.164   2.594   0.168  1.0964  0.0217 -1.5551
18970TIP3   OH278400   4.716   2.150  13.386  0.0553 -0.3532 -0.2468
18970TIP3    H178401   4.629   2.119  13.412  1.1350 -2.1380  1.5136
18970TIP3    H278402   4.704   2.244  13.369 -2.2077 -0.5715 -0.1193
18971TIP3   OH278403   5.646   4.492   3.200 -0.7264  0.1655  0.3449
18971TIP3    H178404   5.714   4.456   3.143 -0.2945  3.6754 -1.6565
18971TIP3    H278405   5.594   4.548   3.142 -3.1353  0.3994  2.5656
18972TIP3   OH278406   3.826   2.860   5.032 -0.8873 -0.2088  0.2260
18972TIP3    H178407   3.744   2.818   5.009  0.0848 -2.0398 -0.1074
18972TIP3    H278408   3.891   2.790   5.027  0.6559  1.1175  0.7421
18973TIP3   OH278409   2.414   3.091   6.476 -0.8986  0.4281 -0.1405
18973TIP3    H178410   2.335   3.057   6.432 -0.8801 -1.3772  1.1117
18973TIP3    H278411   2.427   3.032   6.550  3.4789 -1.4147 -2.0297
18974TIP3   OH278412   6.213   0.478   2.603 -0.6295  0.0396  0.7067
18974TIP3    H178413   6.211   0.474   2.507 -0.0928  0.4974  0.6681
18974TIP3    H278414   6.248   0.565   2.622  1.2247 -0.7971  1.2926
18975TIP3   OH278415   4.773   0.425   0.955 -0.3740 -0.4836 -0.2110
18975TIP3    H178416   4.717   0.438   1.032  0.2583 -2.3530  0.6281
18975TIP3    H278417   4.748   0.495   0.895 -1.8458  0.2156  1.1412
18976TIP3   OH278418   6.644   3.528  15.780 -0.3358  0.3170  0.4602
18976TIP3    H178419   6.628   3.551  15.688 -0.9461 -0.7482  0.2780
18976TIP3    H278420   6.556   3.519  15.818 -0.0886  0.4629  1.0755
18977TIP3   OH278421   5.651   1.599  14.119  0.4366  0.1565 -0.3558
18977TIP3    H178422   5.611   1.589  14.032 -0.0344  2.0402 -0.4117
18977TIP3    H278423   5.745   1.593  14.102  0.3164 -0.7388 -0.7853
18978TIP3   OH278424   2.596   0.715  11.574 -0.1839  0.0388  0.1845
18978TIP3    H178425   2.559   0.655  11.639  0.3682 -1.5191 -0.8917
18978TIP3    H278426   2.685   0.683  11.560  0.6607  2.0491  0.6798
18979TIP3   OH278427   3.919   1.246   1.618 -0.6120  0.4347 -0.1528
18979TIP3    H178428   3.933   1.234   1.712  1.3384 -2.7170 -0.6652
18979TIP3    H278429   4.006   1.232   1.580 -1.5291  0.7096 -2.4638
18980TIP3   OH278430   3.450   3.959   0.926  0.3757  0.1350 -0.4772
18980TIP3    H178431   3.417   3.961   0.836  2.3302 -1.1072 -1.2946
18980TIP3    H278432   3.495   4.043   0.936 -0.9772  0.8530 -0.1483
18981TIP3   OH278433   6.417   0.142   5.409  0.2412  0.3440  0.2848
18981TIP3    H178434   6.439   0.063   5.360 -0.9140 -0.9645  1.7638
18981TIP3    H278435   6.366   0.196   5.348 -2.0911 -1.7056  0.2719
18982TIP3   OH278436   0.090   6.505   4.528 -0.0291  0.2729  0.2414
18982TIP3    H178437   0.011   6.559   4.524 -0.3065 -0.0523  1.1306
18982TIP3    H278438   0.087   6.464   4.614  0.7697 -0.2690  0.0240
18983TIP3   OH278439   6.748   5.795   3.445  0.3078 -0.2460 -0.1683
18983TIP3    H178440   6.751   5.743   3.525  1.0670 -1.6674 -1.0684
18983TIP3    H278441   6.710   5.736   3.380  0.6455  0.5248 -1.0880
18984TIP3   OH278442   6.597   5.014  17.084  0.1659 -0.7749 -0.0504
18984TIP3    H178443   6.652   4.985  17.157 -0.6771 -0.1415  0.8632
18984TIP3    H278444   6.659   5.029  17.012  0.9849 -1.6646  0.4396
18985TIP3   OH278445   3.270   4.877   1.160  0.0385  0.0127 -0.3600
18985TIP3    H178446   3.194   4.930   1.135 -1.2076 -2.5965 -2.8194
18985TIP3    H278447   3.344   4.918   1.114 -0.2443  1.3917  0.3685
18986TIP3   OH278448   4.220   5.087  13.946  0.4325 -0.1415 -0.1419
18986TIP3    H178449   4.151   5.127  13.893  0.5506  1.1964  0.6813
18986TIP3    H278450   4.189   4.998  13.963 -1.4560  0.6585  0.8486
18987TIP3   OH278451   1.857   3.755  12.809  0.5834  0.2784  0.2755
18987TIP3    H178452   1.859   3.726  12.900 -0.1822 -1.4944 -0.2178
18987TIP3    H278453   1.900   3.840  12.809 -1.3254  1.3617  2.6465
18988TIP3   OH278454   6.774   2.271  11.386 -1.3177  0.0234 -0.0197
18988TIP3    H178455   6.718   2.212  11.335  1.3242 -0.4801 -2.5829
18988TIP3    H278456   6.860   2.230  11.384  0.1134  2.7725  0.1669
18989TIP3   OH278457   2.221   2.291  11.035  0.1922 -0.0996 -0.5363
18989TIP3    H178458   2.247   2.282  10.943 -1.6179 -0.2257 -1.0845
18989TIP3    H278459   2.224   2.202  11.070 -1.5185 -0.4704 -1.2218
18990TIP3   OH278460   0.500   1.311  16.194 -0.2528  0.2070  0.6547
18990TIP3    H178461   0.503   1.406  16.181 -0.7944  0.3332  1.3774
18990TIP3    H278462   0.514   1.274  16.107 -0.5964  0.9648  0.2744
18991TIP3   OH278463   3.423   4.380  12.092 -0.2623 -0.2795 -0.5625
18991TIP3    H178464   3.459   4.344  12.011  0.5825  1.7130 -1.1524
18991TIP3    H278465   3.497   4.381  12.153 -0.3873  0.0190 -0.4107
18992TIP3   OH278466   4.189   1.835   0.681 -0.0389  0.0816 -0.0028
18992TIP3    H178467   4.218   1.916   0.641 -2.3793  0.9533 -0.0719
18992TIP3    H278468   4.114   1.807   0.629 -0.5338 -1.0334  1.2286
18993TIP3   OH278469   1.428   5.391  15.836 -0.2243 -0.1176 -0.0526
18993TIP3    H178470   1.499   5.386  15.773 -0.8758 -0.2277 -0.7961
18993TIP3    H278471   1.409   5.484  15.844 -1.1366 -0.1876 -1.1814
18994TIP3   OH278472   4.517   1.459  11.020  0.7691  0.3877  0.5475
18994TIP3    H178473   4.462   1.439  11.096 -0.6392 -0.7467 -0.6847
18994TIP3    H278474   4.519   1.377  10.970 -0.8730  1.8457 -2.1476
18995TIP3   OH278475   2.482   2.888   3.518 -0.5812 -0.7215  0.1108
18995TIP3    H178476   2.443   2.892   3.605  1.2235 -1.4481  0.9904
18995TIP3    H278477   2.532   2.970   3.510  0.6069 -1.3954  0.4509
18996TIP3   OH278478   2.535   1.643   6.155  0.2928  0.1153 -0.1073
18996TIP3    H178479   2.548   1.687   6.239 -0.4800  0.1017  0.0253
18996TIP3    H278480   2.618   1.598   6.138  0.3448 -0.1418  0.7932
18997TIP3   OH278481   2.274   3.102   3.436  0.5526 -0.2921  0.0165
18997TIP3    H178482   2.199   3.147   3.475 -0.3836 -2.1026  0.3910
18997TIP3    H278483   2.343   3.107   3.503  0.3037  0.1637  0.2398
18998TIP3   OH278484   1.663   6.315  11.204 -0.8677 -0.7197 -0.5611
18998TIP3    H178485   1.646   6.237  11.151 -0.2991 -1.2383 -0.0112
18998TIP3    H278486   1.588   6.320  11.263 -1.1578 -0.5518 -0.9456
18999TIP3   OH278487   1.162   1.109   3.827  0.1674 -0.2671 -0.3988
18999TIP3    H178488   1.084   1.087   3.777  0.4216  0.2260 -1.0335
18999TIP3    H278489   1.211   1.169   3.770  0.7211 -0.1086  0.2263
19000TIP3   OH278490   3.820   2.726   5.876 -0.4969 -0.3711 -0.5881
19000TIP3    H178491   3.814   2.669   5.800  0.0893 -0.6400 -0.4412
19000TIP3    H278492   3.808   2.668   5.951 -1.1612 -0.0958 -0.4676
19001TIP3   OH278493   2.001   6.710  11.573 -0.3006 -0.0554  0.0672
19001TIP3    H178494   1.916   6.715  11.616 -0.7016 -2.5352 -0.2517
19001TIP3    H278495   1.987   6.647  11.502  1.4596  0.5693 -0.8877
19002TIP3   OH278496   2.921   6.379   1.328 -0.3565  0.3257 -0.3633
19002TIP3    H178497   2.989   6.390   1.395 -1.3200  1.8499  0.4236
19002TIP3    H278498   2.906   6.285   1.324  0.0968  0.1624  1.2268
19003TIP3   OH278499   3.061   4.279  15.923 -0.8725  0.0355  0.0287
19003TIP3    H178500   3.048   4.330  16.003  0.9150 -0.3486  0.6286
19003TIP3    H278501   3.038   4.339  15.852 -1.0569  0.8893  0.7904
19004TIP3   OH278502   2.779   2.149   5.514  0.8357 -0.3090  0.4452
19004TIP3    H178503   2.830   2.200   5.576  0.5254  1.4719 -0.6922
19004TIP3    H278504   2.815   2.172   5.428 -1.2979  0.3953 -0.3334
19005TIP3   OH278505   4.419   1.072  10.638 -0.5176 -0.3081  0.1554
19005TIP3    H178506   4.496   1.129  10.629  0.5467 -1.6340  0.5208
19005TIP3    H278507   4.408   1.032  10.552 -0.5838 -0.3930  0.2032
19006TIP3   OH278508   5.053   4.486   0.344 -0.0565 -0.1711 -0.5613
19006TIP3    H178509   5.099   4.530   0.272 -0.5911 -1.3896 -1.6868
19006TIP3    H278510   5.088   4.397   0.345 -0.4656 -0.3377  0.3362
19007TIP3   OH278511   0.282   4.885   2.921 -0.3987  0.1003  0.2614
19007TIP3    H178512   0.301   4.896   2.828 -0.6577  1.4554  0.3558
19007TIP3    H278513   0.362   4.846   2.957 -0.1732 -0.1285 -0.4649
19008TIP3   OH278514   2.416   3.027  11.337  0.5352  0.3591  0.4600
19008TIP3    H178515   2.469   3.099  11.303 -0.4786  1.8369  1.8523
19008TIP3    H278516   2.461   2.999  11.416  0.6168 -0.1747  0.2304
19009TIP3   OH278517   5.229   3.259  10.480 -0.2573 -0.3852 -0.2111
19009TIP3    H178518   5.209   3.347  10.512 -0.3607 -1.1808  2.1216
19009TIP3    H278519   5.322   3.262  10.456  0.0261  0.0839  0.9080
19010TIP3   OH278520   4.970   0.695  12.653 -0.0868 -0.0688  0.0759
19010TIP3    H178521   4.879   0.694  12.625  0.7457  1.1050 -3.1193
19010TIP3    H278522   4.981   0.778  12.700 -0.5065  0.1340 -0.1841
19011TIP3   OH278523   4.425   3.063  15.527  0.1278  0.1096 -0.1226
19011TIP3    H178524   4.502   3.061  15.584 -0.0808 -1.5886  0.1288
19011TIP3    H278525   4.442   3.136  15.467  0.9448  1.1088  1.2628
19012TIP3   OH278526   1.567   6.050  11.177  0.1857  0.1405 -0.5520
19012TIP3    H178527   1.516   6.059  11.258  1.3269  0.1868  0.1869
19012TIP3    H278528   1.522   5.982  11.128  0.1666 -0.7969  0.7043
19013TIP3   OH278529   4.843   4.874   1.338  0.3327 -0.1695 -0.5674
19013TIP3    H178530   4.795   4.801   1.377  1.4337 -1.0181 -0.7443
19013TIP3    H278531   4.935   4.851   1.352  0.7174  0.3889 -2.0608
19014TIP3   OH278532   1.719   6.792   4.866 -0.1494 -0.6621 -0.5442
19014TIP3    H178533   1.681   6.774   4.780 -1.0072 -0.9019 -0.1255
19014TIP3    H278534   1.813   6.798   4.850 -0.3338 -0.3376 -1.5595
19015TIP3   OH278535   1.703   3.223   0.493 -0.1284  0.0975  0.5322
19015TIP3    H178536   1.689   3.297   0.552  2.0340  1.9933 -1.1392
19015TIP3    H278537   1.695   3.146   0.549 -2.0687  1.5722  2.4441
19016TIP3   OH278538   4.060   0.617  14.844  0.0224 -0.0258 -0.0377
19016TIP3    H178539   4.027   0.555  14.778  0.5142 -0.1923 -0.1259
19016TIP3    H278540   4.002   0.604  14.919  1.6522 -2.4322  0.9038
19017TIP3   OH278541   5.303   2.141  11.559  0.1157 -0.6125  0.0393
19017TIP3    H178542   5.354   2.063  11.579 -1.3207 -1.6435 -0.1372
19017TIP3    H278543   5.363   2.214  11.574  1.5003 -1.7443  0.1807
19018TIP3   OH278544   4.964   4.379  14.089 -0.3306 -0.1336  0.0575
19018TIP3    H178545   5.004   4.314  14.147 -1.5423 -1.5247 -0.5777
19018TIP3    H278546   5.031   4.395  14.022 -0.6160 -2.1722 -0.8090
19019TIP3   OH278547   2.722   1.960   1.752  0.6252 -0.4417  0.0048
19019TIP3    H178548   2.637   1.917   1.744 -1.2315  2.6239  1.1395
19019TIP3    H278549   2.733   2.007   1.669  0.0970  0.8556  0.6376
19020TIP3   OH278550   5.291   6.485  15.189  0.0297  0.5307  0.1892
19020TIP3    H178551   5.224   6.420  15.167  0.4238  0.4905 -0.9823
19020TIP3    H278552   5.242   6.565  15.208 -0.3327  0.7532 -1.5661
19021TIP3   OH278553   3.429   2.530   0.402  0.6345  0.4232  0.2213
19021TIP3    H178554   3.504   2.480   0.371  0.4321  0.7637 -0.8749
19021TIP3    H278555   3.353   2.474   0.385  0.5735  0.3741  0.6501
19022TIP3   OH278556   3.160   0.728  14.822 -0.6293  0.1519  0.5659
19022TIP3    H178557   3.254   0.747  14.816 -0.9209  2.2410  1.7570
19022TIP3    H278558   3.156   0.639  14.856  0.8814 -0.7132 -1.3094
19023TIP3   OH278559   4.724   2.422  15.594  0.1854 -0.5402  0.0705
19023TIP3    H178560   4.686   2.493  15.542 -1.3249 -0.8941  0.6365
19023TIP3    H278561   4.733   2.349  15.532  0.2279 -0.3591 -0.1377
19024TIP3   OH278562   6.117   3.624   2.894  0.3627  0.0318  0.4224
19024TIP3    H178563   6.154   3.671   2.820  2.0214 -0.9484  0.5857
19024TIP3    H278564   6.028   3.602   2.867  0.9199 -0.2525 -1.2511
19025TIP3   OH278565   1.580   6.205   3.518 -0.0032  0.2884  0.4384
19025TIP3    H178566   1.583   6.301   3.513 -0.8632  0.2518 -1.2977
19025TIP3    H278567   1.488   6.184   3.531  0.2474 -0.3047  1.3413
19026TIP3   OH278568   6.561   4.292   2.713 -0.2210  0.4011  0.4998
19026TIP3    H178569   6.609   4.294   2.796  1.0786 -0.6217 -0.1851
19026TIP3    H278570   6.557   4.199   2.691  0.2466  0.7110 -1.0019
19027TIP3   OH278571   4.148   6.561  14.605  0.5566 -0.2950 -0.1756
19027TIP3    H178572   4.223   6.521  14.562 -0.5559 -1.0065 -1.5212
19027TIP3    H278573   4.155   6.534  14.696  1.3762 -1.1836 -0.4893
19028TIP3   OH278574   5.609   2.047  14.232 -0.0809 -0.1688 -0.3108
19028TIP3    H178575   5.549   1.983  14.195  0.4377 -1.3427  0.8164
19028TIP3    H278576   5.579   2.059  14.322 -0.1002  1.1133 -0.4612
19029TIP3   OH278577   2.399   3.713  15.118 -0.5676  0.1670 -0.1035
19029TIP3    H178578   2.405   3.787  15.058 -0.0118 -0.7846 -1.2698
19029TIP3    H278579   2.440   3.744  15.199 -0.4709  1.1769 -0.5263
19030TIP3   OH278580   4.729   3.705  14.710 -0.4950  0.5644  0.0663
19030TIP3    H178581   4.672   3.779  14.688  0.6386  2.0083  1.7076
19030TIP3    H278582   4.801   3.744  14.759  0.4270 -1.5861  0.5454
19031TIP3   OH278583   0.118   1.446  11.225  0.0262  0.5014  0.4387
19031TIP3    H178584   0.206   1.409  11.239  0.9636  2.2100 -0.5702
19031TIP3    H278585   0.105   1.505  11.298  0.0562  0.8283  0.1816
19032TIP3   OH278586   0.649   4.887  15.053  0.1854  0.2021 -0.5503
19032TIP3    H178587   0.657   4.792  15.048 -1.1069  0.0280  0.3128
19032TIP3    H278588   0.617   4.905  15.141  4.3378  1.7943  0.9066
19033TIP3   OH278589   5.296   4.073  16.539 -0.2776  0.0147 -0.5098
19033TIP3    H178590   5.254   4.155  16.514  3.0819  1.9095 -0.3729
19033TIP3    H278591   5.322   4.086  16.630  0.3985 -1.1760 -0.5084
19034TIP3   OH278592   5.725   3.668   0.498 -0.8075  0.4394  0.1050
19034TIP3    H178593   5.690   3.758   0.497 -1.4998  0.1846  0.5114
19034TIP3    H278594   5.666   3.621   0.557 -0.6128 -0.3544 -0.3301
19035TIP3   OH278595   0.381   6.478  11.012 -0.2481  0.2457  0.1937
19035TIP3    H178596   0.379   6.385  10.988  0.5625  0.6333 -1.5033
19035TIP3    H278597   0.390   6.524  10.929 -2.8544  1.9934  0.7699
19036TIP3   OH278598   0.356   6.412   4.412  0.3494 -0.1338  0.1259
19036TIP3    H178599   0.395   6.473   4.475  0.3659  1.7266 -1.6035
19036TIP3    H278600   0.261   6.422   4.424  0.3548 -0.2869  0.3046
19037TIP3   OH278601   0.817   3.864  12.379 -0.3063 -0.0787 -0.3548
19037TIP3    H178602   0.821   3.916  12.298  0.8284  0.1367 -0.1764
19037TIP3    H278603   0.724   3.864  12.402 -0.5430  0.5210 -1.2349
19038TIP3   OH278604   0.516   5.026   6.585  1.0378 -0.0120 -0.2646
19038TIP3    H178605   0.596   5.041   6.535  0.4710  1.1877 -0.8659
19038TIP3    H278606   0.454   4.993   6.520  0.5614  0.6937 -0.1844
19039TIP3   OH278607   5.419   4.173  11.982 -0.2457  0.0701 -0.1788
19039TIP3    H178608   5.469   4.120  12.044 -0.9183 -0.0686  0.2428
19039TIP3    H278609   5.328   4.152  11.999 -0.4874  0.8024 -0.5221
19040TIP3   OH278610   4.716   0.837   5.922  0.8056  0.7945  0.1817
19040TIP3    H178611   4.694   0.828   5.830  2.3658 -1.9006 -0.0185
19040TIP3    H278612   4.632   0.847   5.966 -0.3482 -1.9739 -1.1900
19041TIP3   OH278613   1.663   1.853   3.317 -0.2263 -0.0311 -0.3732
19041TIP3    H178614   1.581   1.806   3.334 -0.2163 -0.3889 -1.2710
19041TIP3    H278615   1.636   1.944   3.308 -0.3219  0.0677  0.8017
19042TIP3   OH278616   2.234   0.900  15.346  0.0920 -0.3743  0.3308
19042TIP3    H178617   2.296   0.969  15.323 -0.0471 -0.5093 -0.4879
19042TIP3    H278618   2.253   0.829  15.285 -0.2160 -0.7944  0.7188
19043TIP3   OH278619   5.085   6.801  13.343 -0.0684  0.1577 -0.1061
19043TIP3    H178620   5.076   6.765  13.255  0.2843  2.9896 -1.3935
19043TIP3    H278621   5.026   6.747  13.397 -0.7616 -1.2538 -2.1516
19044TIP3   OH278622   5.878   0.569   6.086 -0.4914 -0.0706  0.0746
19044TIP3    H178623   5.924   0.587   6.168  1.5598  0.2076 -1.0756
19044TIP3    H278624   5.837   0.653   6.063 -0.3488  0.0849  0.3782
19045TIP3   OH278625   4.163   6.396  10.649  0.1040  0.9723  0.5996
19045TIP3    H178626   4.080   6.443  10.650  0.7860  2.2350 -0.0879
19045TIP3    H278627   4.222   6.450  10.701  0.1090 -0.7492  2.5202
19046TIP3   OH278628   6.418   2.037  13.515  0.4959  0.0575  0.1916
19046TIP3    H178629   6.355   1.970  13.542 -1.4896  1.5312 -0.5153
19046TIP3    H278630   6.370   2.120  13.525  1.3841  1.0667 -2.8350
19047TIP3   OH278631   2.407   0.967   3.606 -0.2335 -0.2240 -0.1624
19047TIP3    H178632   2.483   0.931   3.561 -0.1944 -1.1846  0.6493
19047TIP3    H278633   2.339   0.900   3.598 -0.1925 -0.4643  1.2839
19048TIP3   OH278634   0.009   1.939   4.428  0.4386 -0.4823  0.6160
19048TIP3    H178635   0.077   1.994   4.388 -2.6231  2.5186 -0.9193
19048TIP3    H278636   0.002   1.970   4.518  0.8421 -0.6067  0.6943
19049TIP3   OH278637   6.338   1.863   4.997  0.2397 -0.0829  0.3993
19049TIP3    H178638   6.327   1.874   5.091 -1.9862 -1.3085  0.3416
19049TIP3    H278639   6.429   1.888   4.980  0.8317 -0.3152  2.9324
19050TIP3   OH278640   4.882   3.530   3.945 -0.1454 -0.8754  0.3444
19050TIP3    H178641   4.942   3.574   4.005 -0.5198  0.3484 -0.1482
19050TIP3    H278642   4.853   3.598   3.884 -2.2773 -1.3301  0.7400
19051TIP3   OH278643   3.267   0.376  13.740 -0.3725 -0.1611  0.2144
19051TIP3    H178644   3.275   0.284  13.716 -0.1139  0.1686 -1.0627
19051TIP3    H278645   3.290   0.379  13.833  1.0190 -1.1921 -0.0613
19052TIP3   OH278646   2.477   6.822   1.457 -0.4755  0.3065  0.0599
19052TIP3    H178647   2.494   6.766   1.381 -0.1985 -1.8067  1.5966
19052TIP3    H278648   2.381   6.831   1.460 -0.6680 -1.5991  0.7680
19053TIP3   OH278649   3.600   5.388   5.364 -0.2248  0.1721  0.0087
19053TIP3    H178650   3.515   5.384   5.407  0.7893 -0.2004  2.1155
19053TIP3    H278651   3.594   5.325   5.292 -1.4875 -0.3584  0.5530
19054TIP3   OH278652   4.628   3.698   4.095 -0.8075 -0.5891 -0.0549
19054TIP3    H178653   4.541   3.677   4.130 -0.8118 -1.4468 -0.5434
19054TIP3    H278654   4.615   3.700   4.000  0.3067 -4.0136 -0.4103
19055TIP3   OH278655   4.861   6.132   0.745  0.0358 -0.3067 -0.3309
19055TIP3    H178656   4.783   6.147   0.691  0.1659 -0.9898 -0.7313
19055TIP3    H278657   4.924   6.197   0.714  0.5994 -1.5769 -2.0294
19056TIP3   OH278658   5.753   3.592   3.480  0.3278 -0.0522 -0.0612
19056TIP3    H178659   5.694   3.631   3.415 -0.8359  0.1356  1.0847
19056TIP3    H278660   5.746   3.650   3.556  0.1130 -1.3741  0.9623
19057TIP3   OH278661   4.161   2.976   0.064 -0.4008 -0.1889 -0.3444
19057TIP3    H178662   4.073   2.958   0.029 -0.4620  1.4787 -1.1629
19057TIP3    H278663   4.179   2.902   0.122 -2.9506  0.1347  1.0127
19058TIP3   OH278664   1.174   5.925  10.988 -0.6982  0.3279  0.1124
19058TIP3    H178665   1.141   5.837  11.006 -0.2377  0.4825  1.9676
19058TIP3    H278666   1.185   5.964  11.075  0.6447  1.6515 -0.6095
19059TIP3   OH278667   5.063   4.249  13.103 -0.0767 -0.6581 -0.1207
19059TIP3    H178668   5.075   4.195  13.025  0.3842 -1.0119  0.1880
19059TIP3    H278669   5.152   4.276  13.127  0.0471 -2.3825  1.5547
19060TIP3   OH278670   0.912   5.325  15.038  0.0979  0.5847 -0.0451
19060TIP3    H178671   0.992   5.338  15.088  1.0194  1.6770 -1.7221
19060TIP3    H278672   0.909   5.230  15.023 -0.4658  0.1494  2.3872
19061TIP3   OH278673   4.667   1.758   5.215  0.9099  0.7251  0.0738
19061TIP3    H178674   4.704   1.721   5.135  2.5996  0.2775  1.0303
19061TIP3    H278675   4.664   1.685   5.277  1.7466  1.5484  1.1275
19062TIP3   OH278676   4.401   1.370  15.010  0.0980  0.0261 -0.0147
19062TIP3    H178677   4.369   1.418  15.087 -0.6795  0.7395 -0.7730
19062TIP3    H278678   4.373   1.280  15.025 -2.2936  0.6082 -0.6202
19063TIP3   OH278679   4.433   0.597  15.481  0.3367  0.3749  0.3450
19063TIP3    H178680   4.399   0.686  15.475  0.1316  0.3662  1.3140
19063TIP3    H278681   4.516   0.606  15.527 -0.1601 -0.0491  1.3357
19064TIP3   OH278682   1.868   6.688   4.314 -0.1094  0.2672  0.1203
19064TIP3    H178683   1.894   6.767   4.267  0.2291  0.9445  1.3922
19064TIP3    H278684   1.947   6.634   4.316  0.3909  1.0033  1.3768
19065TIP3   OH278685   6.781   1.055  16.404  0.0909  0.2400  0.3046
19065TIP3    H178686   6.701   1.095  16.371  0.0312 -0.4275 -0.3838
19065TIP3    H278687   6.767   0.961  16.395  0.3881  0.0637  1.5289
19066TIP3   OH278688   5.086   2.045  13.556  0.0400 -0.6506 -0.0036
19066TIP3    H178689   5.107   2.126  13.602 -0.2026 -1.3847  1.4768
19066TIP3    H278690   5.088   1.978  13.624 -2.3811 -1.4923 -0.6511
19067TIP3   OH278691   4.468   6.496  15.518 -0.3981  0.0808  0.0273
19067TIP3    H178692   4.376   6.474  15.500  0.1002 -0.7027 -1.8434
19067TIP3    H278693   4.487   6.451  15.600 -1.6176  0.0269  0.3049
19068TIP3   OH278694   2.336   6.113   0.211  0.0451  0.4099  0.1556
19068TIP3    H178695   2.353   6.105   0.118 -0.9564  0.2435 -0.0287
19068TIP3    H278696   2.279   6.190   0.218  0.6726  0.8320  0.7037
19069TIP3   OH278697   4.068   4.266  17.012  0.2475 -0.1764 -0.9808
19069TIP3    H178698   4.107   4.189  16.971  0.7470  0.6853 -2.1495
19069TIP3    H278699   4.002   4.230  17.072  2.8919 -1.7010  1.2264
19070TIP3   OH278700   6.818   2.362  13.263 -0.2487  0.3054 -0.0233
19070TIP3    H178701   6.807   2.280  13.312 -1.7635  0.9842  0.8138
19070TIP3    H278702   6.913   2.370  13.252  0.0517 -0.5782  1.5958
19071TIP3   OH278703   0.022   4.183   4.269 -0.4927  0.5255  0.5267
19071TIP3    H178704   0.112   4.208   4.290  0.4290  1.5519 -3.7612
19071TIP3    H278705   0.020   4.088   4.281  0.3499  0.7445  2.9683
19072TIP3   OH278706   6.163   2.724   4.325  0.1000  0.1112  0.2144
19072TIP3    H178707   6.119   2.808   4.340 -1.5676 -0.9542  1.6621
19072TIP3    H278708   6.128   2.693   4.242 -1.8383 -0.6300  1.2571
19073TIP3   OH278709   0.196   0.764  13.615 -0.7973 -0.0662  0.2204
19073TIP3    H178710   0.125   0.815  13.576 -1.0645 -1.1972 -0.8209
19073TIP3    H278711   0.247   0.732  13.541  1.3275  1.3740  0.9497
19074TIP3   OH278712   1.267   3.088  16.106 -0.2527  0.4156  0.1073
19074TIP3    H178713   1.276   2.995  16.086 -1.4997  0.4181 -0.5898
19074TIP3    H278714   1.261   3.091  16.202  1.3360 -0.0463  0.2427
19075TIP3   OH278715   1.203   4.306  11.500 -0.3511  0.0463 -0.0294
19075TIP3    H178716   1.259   4.235  11.469 -0.5926 -1.5594  2.9007
19075TIP3    H278717   1.114   4.274  11.486 -0.5186  0.8145 -0.8264
19076TIP3   OH278718   4.645   5.340   3.785  0.0180 -0.4758 -0.1615
19076TIP3    H178719   4.665   5.432   3.767 -0.3747 -0.2844  0.3862
19076TIP3    H278720   4.551   5.338   3.800 -0.0934 -1.0874 -0.8831
19077TIP3   OH278721   3.780   6.808   0.802 -0.2106  0.7485 -0.2377
19077TIP3    H178722   3.804   6.716   0.791  0.9830  1.1604 -1.4559
19077TIP3    H278723   3.819   6.833   0.886 -0.6059  0.1219  0.1318
19078TIP3   OH278724   6.115   4.890   0.063  0.0754  0.0801 -0.1591
19078TIP3    H178725   6.192   4.855   0.020 -0.5207 -0.9490 -0.4246
19078TIP3    H278726   6.134   4.983   0.075  1.1864 -0.0837 -0.5621
19079TIP3   OH278727   1.335   2.981   0.753  0.2299 -0.6467 -0.5290
19079TIP3    H178728   1.245   2.972   0.785  0.3215 -0.4156 -0.2102
19079TIP3    H278729   1.385   3.012   0.828  0.5058 -0.4011 -0.8119
19080TIP3   OH278730   2.144   2.159  13.510  0.5972 -0.0187 -0.0935
19080TIP3    H178731   2.074   2.105  13.472  0.5897 -0.3700  0.4105
19080TIP3    H278732   2.125   2.160  13.604 -0.1555  1.9321 -0.2035
19081TIP3   OH278733   1.041   4.761   3.424  0.1467  0.2998 -0.1022
19081TIP3    H178734   1.136   4.760   3.421  0.1362 -0.9207 -0.2914
19081TIP3    H278735   1.013   4.765   3.332  0.0314 -2.9183 -0.3076
19082TIP3   OH278736   2.535   3.952  12.556  0.5014  0.8742 -0.1851
19082TIP3    H178737   2.458   3.980  12.506  0.9441  0.0667 -1.3707
19082TIP3    H278738   2.506   3.873  12.602  0.0909  1.6226  0.8773
19083TIP3   OH278739   4.677   3.351   0.809 -0.3151 -0.7195  0.5128
19083TIP3    H178740   4.698   3.444   0.820  2.3406 -0.3585 -4.6878
19083TIP3    H278741   4.743   3.306   0.861 -0.8568  0.2591  2.1194
19084TIP3   OH278742   3.370   5.114   6.190  0.0457  0.8539  0.0981
19084TIP3    H178743   3.426   5.071   6.254  0.5532  1.3306 -0.0166
19084TIP3    H278744   3.416   5.101   6.107 -0.3860  0.6192 -0.1063
19085TIP3   OH278745   5.717   3.881   1.828  0.3000 -0.2613  0.5502
19085TIP3    H178746   5.621   3.882   1.832  0.2003 -1.9739 -0.4136
19085TIP3    H278747   5.738   3.925   1.746  0.3837  0.5057  0.9714
19086TIP3   OH278748   6.475   3.058  12.185 -0.3172  0.3513  0.3309
19086TIP3    H178749   6.454   3.004  12.109  0.8852  0.1015  0.1461
19086TIP3    H278750   6.506   3.141  12.148 -1.1343  0.7903  0.5937
19087TIP3   OH278751   2.813   6.074   0.029 -0.3753  0.2097  0.1922
19087TIP3    H178752   2.883   6.099  -0.032  1.2254  0.0007  1.8481
19087TIP3    H278753   2.844   5.993   0.069 -2.2343 -0.6330 -0.0070
19088TIP3   OH278754   6.489   4.159  15.294 -0.1280 -0.1809  0.5134
19088TIP3    H178755   6.404   4.165  15.337 -0.0071  3.1277  0.5455
19088TIP3    H278756   6.474   4.101  15.219 -1.8432 -1.2841  1.6372
19089TIP3   OH278757   3.960   2.079   0.303 -0.4132 -0.0843 -0.3796
19089TIP3    H178758   4.054   2.099   0.307 -0.8002  1.8016  0.5498
19089TIP3    H278759   3.946   2.018   0.375 -0.0078  0.1801 -0.0667
19090TIP3   OH278760   6.370   4.347   6.038  0.2063 -0.1601  0.5569
19090TIP3    H178761   6.403   4.258   6.026  0.3625  0.1268 -1.5317
19090TIP3    H278762   6.294   4.353   5.980 -0.1423  0.8945  1.0893
19091TIP3   OH278763   1.325   1.226  15.988 -0.1075  0.0673  0.2902
19091TIP3    H178764   1.349   1.302  16.041 -1.5398  0.4634  0.4090
19091TIP3    H278765   1.321   1.154  16.051  2.1720 -0.3551  0.0307
19092TIP3   OH278766   6.151   3.203  12.270 -0.2572  0.1947 -0.2171
19092TIP3    H178767   6.128   3.288  12.232  0.7128  1.2672  1.4435
19092TIP3    H278768   6.246   3.203  12.274 -0.2319 -1.0673 -0.3738
19093TIP3   OH278769   1.380   3.578  12.515 -0.2441 -0.3990 -0.3925
19093TIP3    H178770   1.397   3.670  12.497 -0.3004 -0.5295 -1.1214
19093TIP3    H278771   1.306   3.556  12.459 -0.2277 -0.8898 -0.2233
19094TIP3   OH278772   3.409   6.409  11.129 -0.6830  0.5687 -0.0596
19094TIP3    H178773   3.340   6.437  11.070 -0.1255  0.1652 -0.9182
19094TIP3    H278774   3.411   6.314  11.121 -0.0346  0.5747 -0.0426
19095TIP3   OH278775   3.653   3.577   5.682  0.5113  0.0370  0.3333
19095TIP3    H178776   3.625   3.517   5.614  0.2570  3.6452 -3.1219
19095TIP3    H278777   3.572   3.602   5.727  0.5099 -1.3632  1.1704
19096TIP3   OH278778   4.016   6.341  11.553  0.4221  0.1000  0.2986
19096TIP3    H178779   4.019   6.286  11.476  0.4111  0.6212 -0.0807
19096TIP3    H278780   4.055   6.288  11.623 -1.2503 -1.0771  0.3886
19097TIP3   OH278781   3.180   4.104  10.339  0.3642 -0.1189  0.3738
19097TIP3    H178782   3.185   4.021  10.387  0.4330 -0.3030  0.0492
19097TIP3    H278783   3.088   4.129  10.345  0.7148  0.8752  2.2987
19098TIP3   OH278784   3.419   1.919  13.853 -0.1703 -0.1806 -0.1761
19098TIP3    H178785   3.450   1.889  13.767  1.6638  0.5614  0.1738
19098TIP3    H278786   3.493   1.967  13.890 -1.8800  2.0460  0.6105
19099TIP3   OH278787   1.966   6.079  14.872  0.1861 -0.1280 -0.1828
19099TIP3    H178788   1.988   6.145  14.807  0.3813  0.1928  0.2048
19099TIP3    H278789   2.036   6.014  14.866  0.6335  0.3031  0.2483
19100TIP3   OH278790   5.466   4.168   4.399 -0.0827  0.4538 -0.5483
19100TIP3    H178791   5.528   4.155   4.327  0.6576 -0.7234  0.2589
19100TIP3    H278792   5.415   4.087   4.402 -3.9796  2.4561 -3.1953
19101TIP3   OH278793   5.011   4.947  12.210  0.1844  1.2066 -0.0103
19101TIP3    H178794   5.017   4.857  12.243 -1.5089  1.4902  1.1993
19101TIP3    H278795   5.099   4.982  12.223  1.1272 -0.4986 -1.3272
19102TIP3   OH278796   1.384   6.278   4.763  0.2522  0.3561 -0.0005
19102TIP3    H178797   1.367   6.230   4.682 -2.0016 -0.8996  1.0912
19102TIP3    H278798   1.310   6.255   4.820  1.0610  2.2172  1.9516
19103TIP3   OH278799   6.616   2.093  15.474  0.5199 -0.4096  0.1913
19103TIP3    H178800   6.564   2.059  15.547 -0.4692  1.1241  0.2555
19103TIP3    H278801   6.551   2.123  15.410  1.1886  2.6749  0.7832
19104TIP3   OH278802   3.772   4.967  12.717 -0.1632 -0.4061  0.9153
19104TIP3    H178803   3.696   4.910  12.714 -0.5932  0.1572  0.8421
19104TIP3    H278804   3.829   4.935  12.648 -1.6587  0.9588 -1.0661
19105TIP3   OH278805   0.508   5.600  13.794 -0.3340  0.5190  0.3497
19105TIP3    H178806   0.512   5.621  13.887 -1.3343 -0.3316  0.5924
19105TIP3    H278807   0.510   5.505  13.790  3.4790  0.4714 -0.7078
19106TIP3   OH278808   2.647   4.236  16.602 -0.7703  0.0609  0.0839
19106TIP3    H178809   2.675   4.201  16.518  0.2359 -0.9323  0.8128
19106TIP3    H278810   2.682   4.326  16.603  1.9165 -0.8820  0.6497
19107TIP3   OH278811   4.737   6.646   0.835 -0.0451 -0.0837  0.2625
19107TIP3    H178812   4.807   6.581   0.837  1.4001  1.4206  0.4260
19107TIP3    H278813   4.768   6.716   0.893 -1.5190  0.7948  0.0288
19108TIP3   OH278814   2.399   6.400   0.302 -0.3038 -0.2355 -0.5066
19108TIP3    H178815   2.436   6.317   0.271 -2.7585 -1.5512 -0.1714
19108TIP3    H278816   2.403   6.394   0.397 -0.4582  0.0523 -0.4816
19109TIP3   OH278817   1.415   5.808  11.214  0.3812  0.1567  0.4047
19109TIP3    H178818   1.399   5.752  11.138 -1.0852  2.1575 -0.8512
19109TIP3    H278819   1.381   5.758  11.288  1.3087 -1.5917 -0.2913
19110TIP3   OH278820   3.047   3.324  12.408  0.3705 -0.2682 -0.4467
19110TIP3    H178821   3.119   3.316  12.470  0.6764  0.2315 -0.7355
19110TIP3    H278822   3.089   3.348  12.326 -0.1052 -0.1976 -0.6697
19111TIP3   OH278823   4.146   4.046  11.880  0.0481 -0.3746 -0.2949
19111TIP3    H178824   4.115   4.136  11.892  1.3761  0.0868 -0.1103
19111TIP3    H278825   4.072   3.991  11.904 -1.1195  0.6732 -1.3503
19112TIP3   OH278826   0.150   2.017  15.149  0.8527  0.2896  0.0043
19112TIP3    H178827   0.128   2.050  15.236 -2.3815 -2.5340  0.4780
19112TIP3    H278828   0.223   1.956  15.164  1.2126  0.8250  0.4780
19113TIP3   OH278829   4.941   0.909  15.636 -0.5042  0.2876 -0.3950
19113TIP3    H178830   4.919   0.863  15.555 -1.7045 -1.5350  0.8718
19113TIP3    H278831   5.011   0.856  15.675 -1.6262 -0.2995  0.9041
19114TIP3   OH278832   1.334   3.266   0.273 -0.1671  0.6573 -0.3361
19114TIP3    H178833   1.325   3.236   0.363  0.5357  0.1291 -0.4305
19114TIP3    H278834   1.378   3.351   0.280  1.1906 -0.0187 -0.2244
19115TIP3   OH278835   0.314   1.622   2.525 -0.0460  0.4547  0.1283
19115TIP3    H178836   0.254   1.688   2.491  0.9029  0.7669 -0.9885
19115TIP3    H278837   0.263   1.575   2.591 -0.5472  2.7339  1.4860
19116TIP3   OH278838   5.327   3.862   1.978  0.0960 -0.2971 -0.0011
19116TIP3    H178839   5.357   3.795   1.916  0.9295  0.7759 -0.8110
19116TIP3    H278840   5.343   3.945   1.932 -0.9820  0.4547  0.9401
19117TIP3   OH278841   1.624   3.863   2.450 -0.0598  0.5245 -0.7233
19117TIP3    H178842   1.667   3.881   2.533 -1.5205 -2.3861  0.8135
19117TIP3    H278843   1.693   3.828   2.394  0.3499 -0.5439  0.4123
19118TIP3   OH278844   3.763   3.151  12.707  0.2994 -0.0830 -0.3292
19118TIP3    H178845   3.749   3.056  12.717 -2.7160  0.3551  0.5370
19118TIP3    H278846   3.677   3.190  12.723  1.4797  2.8488 -0.5084
19119TIP3   OH278847   4.716   4.598  16.180  0.1393 -0.3683 -0.2006
19119TIP3    H178848   4.802   4.611  16.140  0.1803 -1.8471 -0.6459
19119TIP3    H278849   4.654   4.624  16.112  0.2283 -0.5619 -0.3568
19120TIP3   OH278850   6.042   5.534   1.613 -0.4987  0.3431 -0.0777
19120TIP3    H178851   6.086   5.449   1.615  1.3003  1.1979 -0.9570
19120TIP3    H278852   6.023   5.549   1.521 -3.0844 -0.1475  0.2911
19121TIP3   OH278853   2.504   1.969   3.904 -0.1649  0.5427  0.1060
19121TIP3    H178854   2.447   1.965   3.827  0.1470 -0.5962 -0.0769
19121TIP3    H278855   2.590   1.945   3.871  0.1924  1.0812  0.6222
19122TIP3   OH278856   0.284   6.202  12.098 -0.2168 -0.3716  0.0727
19122TIP3    H178857   0.276   6.132  12.033 -0.1583 -0.5430  0.2489
19122TIP3    H278858   0.266   6.282  12.050 -1.6505 -0.6174  0.1531
19123TIP3   OH278859   6.431   5.193  13.560 -0.7553 -0.1062 -0.8732
19123TIP3    H178860   6.482   5.114  13.541 -2.6406 -1.3298 -1.1509
19123TIP3    H278861   6.387   5.174  13.643  1.0265  1.8924  0.6322
19124TIP3   OH278862   5.449   0.213  11.858  0.4069  0.4751  0.6975
19124TIP3    H178863   5.426   0.293  11.809  0.1514 -0.8567 -1.5038
19124TIP3    H278864   5.384   0.149  11.829  1.8572 -1.0944  0.7785
19125TIP3   OH278865   0.610   3.385   1.515 -0.6260 -0.7643 -0.0318
19125TIP3    H178866   0.598   3.303   1.563 -0.8423 -0.6643  0.0842
19125TIP3    H278867   0.543   3.443   1.549 -1.5517 -1.0625 -1.2816
19126TIP3   OH278868   2.487   4.643   5.465  0.5277  0.1146  0.1456
19126TIP3    H178869   2.400   4.670   5.435 -0.0884 -0.9244  0.9341
19126TIP3    H278870   2.517   4.717   5.518 -0.7236 -0.2755  1.4820
19127TIP3   OH278871   1.812   1.875  15.218  0.2706  0.3454 -0.2477
19127TIP3    H178872   1.777   1.813  15.282  0.6168 -0.0453 -0.4316
19127TIP3    H278873   1.883   1.828  15.175  0.3834  0.7882 -0.5583
19128TIP3   OH278874   4.490   4.637  16.375  0.3670 -0.1134 -0.3915
19128TIP3    H178875   4.572   4.588  16.366 -0.6234 -1.8291 -0.4594
19128TIP3    H278876   4.516   4.729  16.367  2.1639 -0.6536 -1.2383
19129TIP3   OH278877   5.022   1.872   4.472 -0.1794 -0.1089 -0.0311
19129TIP3    H178878   4.937   1.872   4.516 -0.9757  1.8362 -1.4020
19129TIP3    H278879   5.076   1.930   4.525 -0.0244 -0.5382  0.2829
19130TIP3   OH278880   3.761   6.267   4.656  0.0567 -0.1490  0.4979
19130TIP3    H178881   3.685   6.263   4.714  0.1104  0.2447  0.5945
19130TIP3    H278882   3.832   6.297   4.712 -0.4199  2.7227 -0.2707
19131TIP3   OH278883   4.302   2.266  12.407 -0.0031 -0.2047 -0.1816
19131TIP3    H178884   4.384   2.250  12.360  0.0027 -0.1430 -0.1926
19131TIP3    H278885   4.237   2.214  12.360 -1.0786  3.4742 -3.3913
19132TIP3   OH278886   4.948   1.449  12.483 -0.6550 -0.2479 -0.0123
19132TIP3    H178887   5.030   1.499  12.492 -0.0230 -1.2910  0.2820
19132TIP3    H278888   4.905   1.487  12.407  0.2031  0.1898 -0.3009
19133TIP3   OH278889   2.316   1.599   2.841  0.6780  0.3493 -0.3535
19133TIP3    H178890   2.411   1.606   2.842  0.7362 -0.3838 -0.1706
19133TIP3    H278891   2.297   1.543   2.766  0.5365 -1.3470  0.8970
19134TIP3   OH278892   1.091   2.335   1.764  0.0069 -0.5776  0.0801
19134TIP3    H178893   1.120   2.391   1.835  1.2983 -0.8576 -0.2024
19134TIP3    H278894   1.106   2.246   1.795  1.4276 -0.6964 -0.8458
19135TIP3   OH278895   0.483   5.825  11.542  0.6171  0.0471  0.5320
19135TIP3    H178896   0.511   5.840  11.451 -0.7653  2.0611  0.3710
19135TIP3    H278897   0.564   5.804  11.589  2.2532  3.8306 -0.2404
19136TIP3   OH278898   5.247   6.494  11.353  0.0687  0.4325 -0.1522
19136TIP3    H178899   5.323   6.545  11.324  0.4280  0.1548  0.2801
19136TIP3    H278900   5.276   6.403  11.346  0.3266  0.3650  1.4740
19137TIP3   OH278901   2.258   6.564   4.911 -0.0528  0.3063  0.0898
19137TIP3    H178902   2.286   6.480   4.874  1.1863  0.2035  1.2077
19137TIP3    H278903   2.179   6.587   4.861 -0.7347 -1.7761  0.1201
19138TIP3   OH278904   2.838   4.904  16.278 -0.4522 -0.0074  0.3260
19138TIP3    H178905   2.868   4.872  16.193 -2.1901  0.4768 -0.5208
19138TIP3    H278906   2.869   4.839  16.341  4.3532  1.5359 -0.0147
19139TIP3   OH278907   0.826   4.515   2.308 -0.3924 -0.5822  0.3200
19139TIP3    H178908   0.787   4.553   2.229  0.2325 -1.7524 -0.5877
19139TIP3    H278909   0.788   4.427   2.314 -1.6559  0.0455  2.2583
19140TIP3   OH278910   2.170   2.145  11.608  0.1056 -0.4802 -0.1427
19140TIP3    H178911   2.094   2.189  11.646 -1.5292 -2.6046 -0.8070
19140TIP3    H278912   2.244   2.176  11.661 -1.5766 -0.5225  2.3904
19141TIP3   OH278913   0.002   6.377   4.750  0.3066  0.7477  0.1887
19141TIP3    H178914   0.015   6.282   4.755 -2.3812  0.3158  0.2359
19141TIP3    H278915   0.034   6.410   4.834 -0.6594 -0.3926  1.0313
19142TIP3   OH278916   3.857   2.494   5.699 -0.9520 -0.4085 -0.5525
19142TIP3    H178917   3.891   2.415   5.740  0.9824  0.2665 -0.7500
19142TIP3    H278918   3.889   2.490   5.608 -1.0107  0.4790 -0.6213
19143TIP3   OH278919   5.300   5.103  11.174 -0.7966 -0.7947  0.2716
19143TIP3    H178920   5.239   5.171  11.205 -0.1581  0.0877 -0.3582
19143TIP3    H278921   5.249   5.051  11.112 -1.3613 -1.0510  0.9347
19144TIP3   OH278922   2.300   0.850   3.228  0.4283  0.2407 -0.1625
19144TIP3    H178923   2.221   0.905   3.233  2.3363  3.1871  0.2591
19144TIP3    H278924   2.322   0.831   3.319 -0.5576 -1.9541 -0.3080
19145TIP3   OH278925   2.383   3.139   5.706  0.6733 -0.4505 -0.1086
19145TIP3    H178926   2.332   3.085   5.645  0.9017 -0.9622  0.1475
19145TIP3    H278927   2.317   3.189   5.754  0.4501 -0.6475 -0.2079
19146TIP3   OH278928   1.434   6.719   3.177 -0.8644 -0.1841  0.1756
19146TIP3    H178929   1.511   6.684   3.222 -0.5272 -0.6941 -0.7741
19146TIP3    H278930   1.469   6.758   3.097 -1.8825 -3.5596 -2.1204
19147TIP3   OH278931   1.517   6.402   6.033 -0.1988 -0.1948 -0.0659
19147TIP3    H178932   1.531   6.463   6.106 -0.3125 -1.9466  1.5035
19147TIP3    H278933   1.443   6.439   5.984 -1.0335  0.3291  1.5239
19148TIP3   OH278934   4.916   0.440  16.027  0.2670 -0.0854 -0.1678
19148TIP3    H178935   4.880   0.369  15.973 -0.9042  0.7168 -0.4732
19148TIP3    H278936   4.892   0.417  16.116  2.0476 -1.3205  0.0597
19149TIP3   OH278937   5.178   0.689  14.043  0.3437 -0.0430 -0.4522
19149TIP3    H178938   5.222   0.752  14.100  0.3798 -0.6353  0.1869
19149TIP3    H278939   5.103   0.737  14.008 -0.4014 -0.0391  1.0792
19150TIP3   OH278940   3.994   0.920  15.631 -0.2794  0.2062 -0.1390
19150TIP3    H178941   4.042   0.924  15.713  1.6100 -1.3187 -1.0874
19150TIP3    H278942   4.016   1.001  15.585 -3.0156  2.1178  1.5880
19151TIP3   OH278943   4.923   5.587   0.257 -0.3717  0.2830 -0.0994
19151TIP3    H178944   4.991   5.525   0.282  2.3322  2.2237 -2.1593
19151TIP3    H278945   4.892   5.557   0.172 -0.4614  0.7002 -0.2157
19152TIP3   OH278946   1.052   5.141   3.862 -0.7128 -0.3360 -0.5445
19152TIP3    H178947   0.989   5.151   3.933  0.9253  1.1349  0.7934
19152TIP3    H278948   1.099   5.060   3.882 -0.9252 -0.4500 -0.5119
19153TIP3   OH278949   1.155   0.616   3.099 -0.0850  0.5271  0.2987
19153TIP3    H178950   1.083   0.553   3.090  0.5021 -0.0367 -0.5347
19153TIP3    H278951   1.205   0.608   3.018  0.1358  1.9186  0.2698
19154TIP3   OH278952   3.664   6.281  14.905 -0.4615 -0.2823 -0.8831
19154TIP3    H178953   3.569   6.296  14.906 -0.2011  2.0085  1.6815
19154TIP3    H278954   3.677   6.214  14.973 -0.2841 -1.2696 -1.8709
19155TIP3   OH278955   6.126   4.459  13.554 -0.1290 -0.5017 -0.1280
19155TIP3    H178956   6.133   4.365  13.572  0.0250 -0.6330 -0.8429
19155TIP3    H278957   6.139   4.466  13.460  1.9507  0.4573  0.1805
19156TIP3   OH278958   5.063   5.469  10.091 -0.8715 -0.0637 -0.2962
19156TIP3    H178959   5.065   5.377  10.064 -0.9051 -0.5412  1.2186
19156TIP3    H278960   4.973   5.497  10.077 -0.7380 -0.0828 -1.2634
19157TIP3   OH278961   1.176   3.857   4.330 -0.0839  0.6776  0.1815
19157TIP3    H178962   1.136   3.789   4.276  0.8533  1.8830 -2.2265
19157TIP3    H278963   1.127   3.856   4.411 -1.5683 -1.3111 -0.6592
19158TIP3   OH278964   6.457   6.746   6.360  0.8588  0.2274 -0.1186
19158TIP3    H178965   6.480   6.700   6.279 -0.4356 -0.8132  0.0668
19158TIP3    H278966   6.372   6.786   6.341 -0.6335 -1.9513  1.3659
19159TIP3   OH278967   0.248   6.441  15.506  0.5175 -0.6776  0.1686
19159TIP3    H178968   0.318   6.386  15.540  1.2275  0.6053  0.8760
19159TIP3    H278969   0.188   6.452  15.580  0.2720 -0.6709 -0.0304
19160TIP3   OH278970   2.727   3.253   6.422 -0.1936  0.5006  0.2954
19160TIP3    H178971   2.771   3.312   6.361  0.6672 -0.1522  0.2664
19160TIP3    H278972   2.775   3.262   6.504 -0.6470  0.5413  0.5604
19161TIP3   OH278973   2.643   5.257  12.623  0.4232 -0.3927  0.1358
19161TIP3    H178974   2.558   5.229  12.588  0.0778  1.2872 -0.5042
19161TIP3    H278975   2.627   5.272  12.716 -0.2656  0.8131 -0.1545
19162TIP3   OH278976   0.629   1.264  14.673 -1.0674 -0.2101 -0.4983
19162TIP3    H178977   0.647   1.186  14.725  0.3693 -1.6382 -2.9238
19162TIP3    H278978   0.694   1.328  14.702 -1.5122 -0.2794  0.7170
19163TIP3   OH278979   0.207   3.624  11.175  0.8726  0.6290 -0.3461
19163TIP3    H178980   0.114   3.644  11.180  1.0947  1.4917  0.5996
19163TIP3    H278981   0.222   3.604  11.083 -0.4631 -0.6560 -0.3181
19164TIP3   OH278982   6.799   0.767  13.800 -0.7527 -0.3714  0.0201
19164TIP3    H178983   6.891   0.747  13.782 -0.9404 -0.6549 -0.6372
19164TIP3    H278984   6.755   0.682  13.798 -1.4353 -0.0234 -2.0476
19165TIP3   OH278985   4.500   6.185   2.672  0.5946 -0.2005  0.0371
19165TIP3    H178986   4.548   6.257   2.632  1.1471 -0.9067 -0.6061
19165TIP3    H278987   4.411   6.193   2.636  1.0778 -0.8195 -1.3723
19166TIP3   OH278988   6.228   1.762  12.578  0.7163  0.3809 -0.1020
19166TIP3    H178989   6.261   1.749  12.667 -0.4733  1.3988  0.5265
19166TIP3    H278990   6.232   1.675  12.538  0.6876 -0.2241  1.1537
19167TIP3   OH278991   0.194   5.043   2.094  0.2801 -0.2612  0.5437
19167TIP3    H178992   0.160   5.036   2.005  1.8411  0.1992 -0.1188
19167TIP3    H278993   0.247   4.964   2.105 -0.3934 -0.6181  1.2989
19168TIP3   OH278994   3.719   4.719  10.952  0.6265 -0.0257  0.0714
19168TIP3    H178995   3.747   4.781  11.019  1.0526  0.2856 -0.3818
19168TIP3    H278996   3.691   4.775  10.879  2.1589 -0.3472 -0.8173
19169TIP3   OH278997   4.126   6.742  12.665 -0.4630  0.2397 -0.0185
19169TIP3    H178998   4.080   6.753  12.582  3.3208 -1.9700 -2.7352
19169TIP3    H278999   4.172   6.825  12.678 -0.4093  0.3080 -0.6123
19170TIP3   OH279000   5.862   4.755  13.807  0.4183  0.2876  0.3612
19170TIP3    H179001   5.778   4.710  13.812  0.0950  0.8156 -0.1553
19170TIP3    H279002   5.927   4.686  13.820 -0.0772 -0.2949 -0.1862
19171TIP3   OH279003   3.189   2.344   2.835 -0.5497 -0.1058 -0.3701
19171TIP3    H179004   3.127   2.303   2.774 -0.0614 -0.1664 -0.8357
19171TIP3    H279005   3.232   2.271   2.879 -1.7967 -0.0540  0.9861
19172TIP3   OH279006   0.961   2.121  16.570 -0.5503 -0.2221 -0.4920
19172TIP3    H179007   0.917   2.049  16.614 -2.7381  1.4500  0.2482
19172TIP3    H279008   0.902   2.196  16.580  0.8838  1.3295 -2.5315
19173TIP3   OH279009   0.678   3.783  15.936 -0.4447 -0.5192  0.0290
19173TIP3    H179010   0.585   3.798  15.920 -0.6009  1.0622  1.9215
19173TIP3    H279011   0.718   3.869  15.922  0.5145 -0.8683  0.5586
19174TIP3   OH279012   5.140   3.256  11.475  0.0826 -0.2689  0.0508
19174TIP3    H179013   5.057   3.210  11.488  0.8090 -1.3036  1.2389
19174TIP3    H279014   5.126   3.309  11.397 -0.8754 -2.3780 -1.3153
19175TIP3   OH279015   1.335   3.682  16.094 -1.0641 -0.1435 -0.0356
19175TIP3    H179016   1.304   3.739  16.164  0.3439  0.2373  0.3054
19175TIP3    H279017   1.267   3.687  16.027 -2.9882 -1.3820  1.7238
19176TIP3   OH279018   6.253   0.758  13.561  0.0086 -0.1877 -0.3821
19176TIP3    H179019   6.168   0.793  13.532  0.1735  0.0910 -0.5379
19176TIP3    H279020   6.289   0.826  13.618  0.6739  0.2491 -1.2893
19177TIP3   OH279021   0.801   2.882   4.735  0.0967  0.1717  0.1030
19177TIP3    H179022   0.779   2.894   4.642  1.5327 -0.0312 -0.2919
19177TIP3    H279023   0.897   2.872   4.736  0.2232  1.2026  1.7254
19178TIP3   OH279024   0.514   4.927   0.037 -0.1484 -0.2128 -0.1059
19178TIP3    H179025   0.449   4.922   0.107 -0.3006  3.5629  0.2278
19178TIP3    H279026   0.468   4.894  -0.040 -1.6228  0.0411  0.6302
19179TIP3   OH279027   5.216   2.339  16.129 -0.4287 -0.1043  0.4581
19179TIP3    H179028   5.280   2.385  16.184 -1.1230  0.2363  0.9917
19179TIP3    H279029   5.195   2.401  16.059  0.3364 -0.4791 -0.1211
19180TIP3   OH279030   1.929   5.777  15.232 -0.1233  0.1630  0.3334
19180TIP3    H179031   1.911   5.734  15.149  1.8490  1.0475 -0.6093
19180TIP3    H279032   1.928   5.870  15.212  0.6117  0.3768  1.2494
19181TIP3   OH279033   1.725   1.386  11.746  0.2837 -0.2176  0.2926
19181TIP3    H179034   1.808   1.345  11.723 -0.0507 -0.6275 -0.2201
19181TIP3    H279035   1.697   1.430  11.665 -0.1303 -0.3259  0.3723
19182TIP3   OH279036   4.147   5.255  14.155  0.2314  0.2325  0.3155
19182TIP3    H179037   4.175   5.181  14.101 -0.6315  0.3254 -0.2764
19182TIP3    H279038   4.225   5.310  14.163  0.5520 -0.1316 -0.2443
19183TIP3   OH279039   4.945   6.611  14.124 -0.3640 -0.0045  0.1756
19183TIP3    H179040   4.863   6.569  14.099 -0.7669  1.5156 -1.1811
19183TIP3    H279041   5.009   6.576  14.062 -0.2076 -0.3253  0.5111
19184TIP3   OH279042   5.898   5.528  16.499 -0.1487 -0.4105 -0.0928
19184TIP3    H179043   5.825   5.565  16.449 -0.9559  1.1071  2.0814
19184TIP3    H279044   5.977   5.560  16.454 -0.7563 -1.4445 -2.0110
19185TIP3   OH279045   6.636   1.989  16.793  0.0518  0.3764  0.0291
19185TIP3    H179046   6.610   2.037  16.871  0.1080  0.1124  0.2121
19185TIP3    H279047   6.658   2.057  16.729  2.8638  0.6380  1.1530
19186TIP3   OH279048   5.654   6.482   2.659 -0.0567  0.8456  0.2591
19186TIP3    H179049   5.745   6.492   2.633  0.2588 -0.5837  0.7346
19186TIP3    H279050   5.623   6.406   2.611 -0.0495 -0.6004  2.4047
19187TIP3   OH279051   3.151   1.898  16.204 -0.3379  0.6565 -0.7740
19187TIP3    H179052   3.112   1.878  16.289  1.4294  0.4998  0.0408
19187TIP3    H279053   3.076   1.917  16.147 -1.6405 -0.6006  0.4398
19188TIP3   OH279054   6.304   0.457   3.376 -0.5094  0.6953  0.1829
19188TIP3    H179055   6.260   0.483   3.295 -1.4024  0.5371  0.6087
19188TIP3    H279056   6.375   0.521   3.386 -0.7021  1.0223 -0.4553
19189TIP3   OH279057   4.153   6.062  14.115  0.0800  0.1016  0.2491
19189TIP3    H179058   4.104   6.061  14.033 -0.2135  3.1842  0.2599
19189TIP3    H279059   4.239   6.027  14.092 -0.9180 -1.9456 -0.6132
19190TIP3   OH279060   1.535   5.683   2.719  0.1333  0.2052 -0.3694
19190TIP3    H179061   1.568   5.657   2.633  0.1157 -1.5325  0.1074
19190TIP3    H279062   1.485   5.607   2.749  0.5222  0.5895  1.3742
19191TIP3   OH279063   5.453   2.852   3.285  0.4414 -0.0701 -0.1690
19191TIP3    H179064   5.470   2.758   3.298 -2.2884 -0.9496 -2.0607
19191TIP3    H279065   5.473   2.868   3.193 -1.0904  0.6372 -0.4181
19192TIP3   OH279066   4.185   1.018   3.908  0.1415  0.0742 -0.0103
19192TIP3    H179067   4.186   1.076   3.832  1.7215  0.6015  0.3866
19192TIP3    H279068   4.243   1.060   3.972  1.0960 -1.7836  0.4008
19193TIP3   OH279069   5.768   6.191   1.935 -0.0881  0.3816 -0.3923
19193TIP3    H179070   5.748   6.099   1.920  1.3662  0.3112 -2.2939
19193TIP3    H279071   5.864   6.196   1.931 -0.0483  1.7808  1.0965
19194TIP3   OH279072   6.315   4.032   5.884  0.1308  0.3311 -0.2689
19194TIP3    H179073   6.260   3.970   5.836 -0.7542 -0.3132  1.4943
19194TIP3    H279074   6.335   3.988   5.966  1.2684  1.5494  0.1449
19195TIP3   OH279075   3.807   3.316  14.947 -0.4136  0.2346 -0.0084
19195TIP3    H179076   3.843   3.392  14.993  0.0938 -0.0221  0.0226
19195TIP3    H279077   3.826   3.334  14.855  0.2637 -0.1380  0.0495
19196TIP3   OH279078   3.822   0.735  14.350 -0.1195  0.5719 -0.8763
19196TIP3    H179079   3.728   0.723  14.342 -0.0887  0.2354 -0.7437
19196TIP3    H279080   3.832   0.817  14.398 -0.3572 -0.0547  0.2617
19197TIP3   OH279081   0.284   4.341  16.917 -0.8662  0.6464  0.0203
19197TIP3    H179082   0.266   4.435  16.912  1.1154  1.1535  1.1667
19197TIP3    H279083   0.293   4.314  16.825 -1.3688  1.5835 -0.3218
19198TIP3   OH279084   6.403   5.774  14.932  0.3012  0.7723  0.2539
19198TIP3    H179085   6.320   5.784  14.885 -0.5398  0.2447  1.5730
19198TIP3    H279086   6.423   5.681  14.926  1.4564  1.0564 -1.0602
19199TIP3   OH279087   2.678   5.892   3.962 -0.0148 -0.2103  0.4770
19199TIP3    H179088   2.710   5.803   3.950  0.9747  0.1395  0.3978
19199TIP3    H279089   2.660   5.923   3.874 -1.2493 -0.6301  0.5628
19200TIP3   OH279090   4.357   5.747  11.700  0.5255 -0.2548 -0.7747
19200TIP3    H179091   4.289   5.682  11.716  0.4363  0.1164  0.4895
19200TIP3    H279092   4.348   5.769  11.607 -0.9751 -0.3374 -0.6782
19201TIP3   OH279093   6.274   0.154  14.941 -0.1302 -0.3442  0.1605
19201TIP3    H179094   6.343   0.145  15.007 -1.3109  0.7375  1.6146
19201TIP3    H279095   6.196   0.177  14.992 -0.6721  2.5602 -1.7408
19202TIP3   OH279096   5.788   6.456   1.660 -0.1359 -0.4382  0.0164
19202TIP3    H179097   5.700   6.463   1.624  0.1048 -0.2763 -0.5532
19202TIP3    H279098   5.777   6.467   1.754 -1.0462 -2.8638  0.2797
19203TIP3   OH279099   4.638   4.633   1.032 -1.0550 -0.2716 -0.1736
19203TIP3    H179100   4.639   4.555   1.088 -1.0008 -0.3479 -0.2777
19203TIP3    H279101   4.731   4.656   1.022 -1.1379  0.7780  1.1767
19204TIP3   OH279102   2.400   0.009  14.037  1.3515  0.5332  0.5232
19204TIP3    H179103   2.402  -0.075  14.082  0.7388 -1.4855 -2.8396
19204TIP3    H279104   2.370   0.071  14.103 -0.9398 -2.4017  2.5080
19205TIP3   OH279105   4.845   5.880   0.840 -0.4572 -0.0143  0.2954
19205TIP3    H179106   4.800   5.827   0.774 -1.1392  0.0451  0.6978
19205TIP3    H279107   4.855   5.966   0.799  0.2970 -0.3355 -0.2102
19206TIP3   OH279108   5.997   1.074   4.413 -0.2376 -0.4991 -0.0233
19206TIP3    H179109   5.997   1.167   4.391  0.7009 -0.7508 -1.1093
19206TIP3    H279110   5.904   1.053   4.427 -0.3191  1.0469  2.2861
19207TIP3   OH279111   6.437   2.570  14.655 -1.1559  0.4208  0.1823
19207TIP3    H179112   6.504   2.599  14.592 -1.3121 -0.6417 -0.5004
19207TIP3    H279113   6.424   2.646  14.712  2.1026  0.0341  1.6670
19208TIP3   OH279114   2.626   3.911  12.203 -0.3478  0.1666  0.3098
19208TIP3    H179115   2.711   3.940  12.236 -0.4636  0.4055  0.4001
19208TIP3    H279116   2.562   3.964  12.252 -0.5026  1.5166 -1.2634
19209TIP3   OH279117   6.061   2.666   0.313  0.1561  0.2018  0.0337
19209TIP3    H179118   5.995   2.722   0.272  0.9045 -0.3188 -2.0261
19209TIP3    H279119   6.019   2.634   0.393 -1.4972  1.1062 -0.4268
19210TIP3   OH279120   0.294   1.203   3.176 -0.4709 -0.0082  0.0105
19210TIP3    H179121   0.366   1.157   3.221  0.5505  0.3150 -1.2348
19210TIP3    H279122   0.338   1.268   3.122 -1.2686 -2.5139 -4.1574
19211TIP3   OH279123   3.430   6.109  12.400  0.5626 -0.1607 -0.0626
19211TIP3    H179124   3.409   6.045  12.332  1.9330  0.1894 -0.8664
19211TIP3    H279125   3.382   6.080  12.477 -0.3950 -1.0225 -0.9658
19212TIP3   OH279126   1.297   5.101   6.274 -0.1704  0.1883  0.1761
19212TIP3    H179127   1.371   5.076   6.330  0.1678  0.8870  0.0586
19212TIP3    H279128   1.222   5.053   6.309  0.4666 -1.0425 -0.1075
19213TIP3   OH279129   5.587   4.076  15.709 -0.3921  0.7735  0.2914
19213TIP3    H179130   5.592   3.981  15.693 -1.3000  0.6471  0.6843
19213TIP3    H279131   5.567   4.083  15.802 -1.5946  1.3084  0.0124
19214TIP3   OH279132   5.640   0.551   5.101 -0.0864 -0.2347  0.2948
19214TIP3    H179133   5.642   0.579   5.192  0.5872  0.3753  0.1023
19214TIP3    H279134   5.727   0.571   5.067 -0.1936 -0.8335 -0.3759
19215TIP3   OH279135   1.182   1.234   2.349 -0.0722 -0.2719  0.2303
19215TIP3    H179136   1.172   1.237   2.254  1.5097 -0.2604  0.0437
19215TIP3    H279137   1.100   1.271   2.382 -0.3386  0.4457 -1.1389
19216TIP3   OH279138   4.177   0.315   1.029  0.5310 -0.0075 -0.1428
19216TIP3    H179139   4.189   0.234   0.980 -0.0582  0.3596 -0.9078
19216TIP3    H279140   4.089   0.345   1.006  1.0076  1.2294 -0.4491
19217TIP3   OH279141   5.565   2.369  13.169 -0.0721  0.1605  0.1839
19217TIP3    H179142   5.553   2.415  13.252 -2.4399 -2.0527  1.2058
19217TIP3    H279143   5.512   2.418  13.106  1.5079  1.6838 -0.0158
19218TIP3   OH279144   5.349   3.035   9.953 -0.6362  0.3492  0.0550
19218TIP3    H179145   5.287   3.064  10.020  0.4891 -0.8773  1.7364
19218TIP3    H279146   5.420   2.994  10.003  0.8727  0.4815 -1.8484
19219TIP3   OH279147   1.755   1.037  13.327  0.1345 -0.0882 -0.1841
19219TIP3    H179148   1.705   1.065  13.404  1.8416  1.6331  0.3798
19219TIP3    H279149   1.806   0.962  13.358  0.0082 -0.0768  0.0551
19220TIP3   OH279150   4.098   1.312  15.786  0.4320 -0.2473  0.2194
19220TIP3    H179151   4.080   1.340  15.696  0.3247 -1.0252 -0.0070
19220TIP3    H279152   4.027   1.251  15.806  0.1839  0.2872  1.0069
19221TIP3   OH279153   5.574   3.685  11.831 -0.1064  0.1881  0.3538
19221TIP3    H179154   5.480   3.672  11.845 -0.2780  0.5485 -0.4158
19221TIP3    H279155   5.586   3.780  11.836 -0.3999  0.5298 -2.9480
19222TIP3   OH279156   0.945   0.503   2.045 -0.0052  0.3106 -0.0318
19222TIP3    H179157   0.851   0.519   2.047  0.0760  0.7415  1.2863
19222TIP3    H279158   0.967   0.479   2.135  1.1945  0.5175 -0.2536
19223TIP3   OH279159   0.398   2.065  16.962 -0.2318 -0.1365 -0.2871
19223TIP3    H179160   0.345   2.145  16.951 -1.7623 -1.2371 -1.2821
19223TIP3    H279161   0.383   2.040  17.053  1.4534  1.4750  0.5014
19224TIP3   OH279162   4.624   3.901   5.073  0.0126  0.3877  0.0388
19224TIP3    H179163   4.598   3.987   5.106  0.7725  0.4660  0.4496
19224TIP3    H279164   4.572   3.890   4.993  1.0453  1.9427 -0.9283
19225TIP3   OH279165   1.035   3.631   0.823  0.3045  0.8386 -0.1373
19225TIP3    H179166   0.983   3.561   0.862  0.7500 -0.7310 -2.1670
19225TIP3    H279167   1.073   3.677   0.897 -0.2478 -0.8936  1.2972
19226TIP3   OH279168   5.564   2.382   0.634 -0.2355  0.0144  0.3906
19226TIP3    H179169   5.477   2.396   0.597  0.7430  2.7160 -1.1806
19226TIP3    H279170   5.550   2.319   0.705 -3.7139  1.4007  1.1506
19227TIP3   OH279171   0.554   3.134  11.606 -0.2952 -0.3422 -0.4566
19227TIP3    H179172   0.537   3.040  11.613 -1.2916 -0.1420  0.0848
19227TIP3    H279173   0.487   3.174  11.661  1.7431  0.5651  1.5428
19228TIP3   OH279174   6.480   3.622   2.231  0.0914 -0.1421  0.2408
19228TIP3    H179175   6.442   3.643   2.147 -0.1539  0.2477  0.4474
19228TIP3    H279176   6.530   3.541   2.216 -0.1826 -0.2265 -0.2042
19229TIP3   OH279177   2.194   0.401  14.309  0.0044  0.1119  0.6949
19229TIP3    H179178   2.174   0.423  14.218 -0.6555 -1.0142  0.5455
19229TIP3    H279179   2.180   0.482  14.357  0.1894  0.6722 -0.1835
19230TIP3   OH279180   4.585   3.140  11.128 -0.0137  0.0625 -0.0501
19230TIP3    H179181   4.588   3.088  11.048  0.0656  1.7847 -1.2256
19230TIP3    H279182   4.497   3.177  11.130  0.0219  0.1299  0.6209
19231TIP3   OH279183   3.545   2.276  15.031 -0.0557 -0.3605 -0.1711
19231TIP3    H179184   3.555   2.243  15.121 -0.6410  1.9962  0.8435
19231TIP3    H279185   3.630   2.313  15.010  0.7623 -2.7532 -1.5056
19232TIP3   OH279186   4.109   4.714   2.039  0.2568 -0.2268  0.3219
19232TIP3    H179187   4.175   4.673   2.094 -0.1580  1.4741  2.2082
19232TIP3    H279188   4.145   4.711   1.951  3.3997  1.5848  1.3843
19233TIP3   OH279189   1.313   0.354  16.893  0.4983 -0.1798  0.1541
19233TIP3    H179190   1.352   0.376  16.978  0.9150 -0.0659 -0.0627
19233TIP3    H279191   1.251   0.284  16.912 -0.2001  0.5805  0.7228
19234TIP3   OH279192   4.364   5.127  12.262  0.1561  0.1419 -0.6153
19234TIP3    H179193   4.294   5.132  12.197 -0.6973 -2.8837 -0.1102
19234TIP3    H279194   4.352   5.042  12.304  2.5799  0.6257  1.3483
19235TIP3   OH279195   0.711   6.530  13.398  0.0367 -0.4525  0.0374
19235TIP3    H179196   0.659   6.516  13.319 -0.9168  1.0659  0.3439
19235TIP3    H279197   0.668   6.476  13.464 -0.1641 -0.4628 -0.1004
19236TIP3   OH279198   4.779   4.973  12.033 -0.3695  0.0337 -0.0130
19236TIP3    H179199   4.689   4.999  12.053  0.3651  2.5127  0.5309
19236TIP3    H279200   4.820   4.958  12.118  0.2055  0.8421 -0.1300
19237TIP3   OH279201   3.514   4.163   2.996  0.0503  0.0766 -0.0070
19237TIP3    H179202   3.442   4.145   2.936  1.1205  1.0333 -1.6376
19237TIP3    H279203   3.592   4.130   2.951  0.6834 -0.8306  1.6649
19238TIP3   OH279204   4.226   0.841   1.392 -0.4744 -0.0207  0.0817
19238TIP3    H179205   4.257   0.849   1.483 -1.5602 -1.2957  0.6008
19238TIP3    H279206   4.157   0.907   1.384 -1.5465 -1.0238  0.7454
19239TIP3   OH279207   0.182   3.197   5.497 -0.1095 -0.7209 -0.0564
19239TIP3    H179208   0.199   3.218   5.405  1.3643  0.3035  0.4167
19239TIP3    H279209   0.210   3.106   5.506  1.1295 -0.3838 -0.3084
19240TIP3   OH279210   1.080   5.323   4.685 -0.7494  0.0314 -0.4053
19240TIP3    H179211   1.000   5.270   4.679 -1.0692  0.5245 -0.5334
19240TIP3    H279212   1.130   5.282   4.756 -0.3354 -1.3056 -1.4257
19241TIP3   OH279213   4.223   6.142  12.153 -0.3992 -0.4171  0.3045
19241TIP3    H179214   4.139   6.103  12.132 -1.4640  2.1914 -0.6815
19241TIP3    H279215   4.255   6.176  12.070  0.1058  1.3826  1.1868
19242TIP3   OH279216   2.318   6.111   1.125  0.0373  0.8779  0.2570
19242TIP3    H179217   2.356   6.031   1.160  1.0951  1.5018  0.5786
19242TIP3    H279218   2.392   6.159   1.088 -0.8760  0.7850 -1.7980
19243TIP3   OH279219   6.143   2.885   3.557 -0.4177  0.2721 -0.3040
19243TIP3    H179220   6.130   2.980   3.561 -0.6848  0.2723 -0.9822
19243TIP3    H279221   6.175   2.870   3.468 -2.5122 -0.5111 -0.9751
19244TIP3   OH279222   4.084   1.468   4.400 -0.3157 -0.2405  0.4543
19244TIP3    H179223   4.118   1.389   4.359 -1.2153 -0.5978  0.3769
19244TIP3    H279224   4.040   1.514   4.329  1.1019  0.8779  0.2449
19245TIP3   OH279225   3.930   1.837  15.298  0.5646  0.2622  0.0557
19245TIP3    H179226   3.903   1.894  15.226 -0.8032  0.0676  0.4022
19245TIP3    H279227   3.862   1.770  15.304  1.8359 -1.0866  0.0511
19246TIP3   OH279228   6.362   3.581  13.646 -0.1141 -0.2835  0.2438
19246TIP3    H179229   6.344   3.546  13.734 -0.3209  0.6191  0.5696
19246TIP3    H279230   6.441   3.634  13.658 -0.7534  0.7229  0.1329
19247TIP3   OH279231   2.529   4.904   1.354 -0.0097 -0.0996 -0.3203
19247TIP3    H179232   2.469   4.855   1.411  0.3074  0.6715  0.7196
19247TIP3    H279233   2.484   4.987   1.338  0.8912  0.6236  0.7469
19248TIP3   OH279234   0.020   2.890   2.938  0.1773 -0.7182  0.6732
19248TIP3    H179235  -0.071   2.881   2.964  0.3748 -2.2154  0.8867
19248TIP3    H279236   0.037   2.984   2.944 -1.3819 -0.3990  0.4755
19249TIP3   OH279237   3.073   2.053   2.169 -0.4854 -0.1635 -0.4270
19249TIP3    H179238   3.124   2.061   2.089  0.1140 -1.4849 -0.2057
19249TIP3    H279239   3.127   2.095   2.236  0.4583 -1.7484 -0.1511
19250TIP3   OH279240   5.879   3.932  12.397  0.5087  0.0702  0.5486
19250TIP3    H179241   5.820   3.970  12.463 -0.9471  0.3573 -0.8542
19250TIP3    H279242   5.956   3.989  12.399 -0.3476  1.2705  0.6398
19251TIP3   OH279243   5.961   3.194   1.080 -0.1623 -0.2967  0.1927
19251TIP3    H179244   5.986   3.194   0.987 -1.4594  0.7176 -0.1832
19251TIP3    H279245   5.944   3.102   1.100  0.3373 -0.5512 -0.5100
19252TIP3   OH279246   0.253   4.452   2.706 -0.3033  0.0233  0.2747
19252TIP3    H179247   0.242   4.530   2.652  1.0197  0.8443  1.1375
19252TIP3    H279248   0.232   4.481   2.794 -0.9570 -0.9143  0.4396
19253TIP3   OH279249   1.705   0.446  10.938  0.6190 -0.6214 -0.1861
19253TIP3    H179250   1.658   0.529  10.939 -1.3615 -1.6664 -1.0052
19253TIP3    H279251   1.774   0.458  10.872 -0.2380  0.0771 -0.9721
19254TIP3   OH279252   5.016   2.636   4.292  0.2949 -0.4455 -0.3078
19254TIP3    H179253   4.950   2.613   4.358  0.8963 -2.2818 -0.2762
19254TIP3    H279254   5.099   2.613   4.333  0.9189  0.9745 -0.6996
19255TIP3   OH279255   4.210   1.045   2.323  0.0481 -0.1714  0.0521
19255TIP3    H179256   4.145   0.980   2.296 -0.3113  0.5669 -0.9164
19255TIP3    H279257   4.294   1.002   2.309 -0.1922 -0.4801 -0.4788
19256TIP3   OH279258   4.363   6.369  14.192  0.2840  0.1856 -0.5760
19256TIP3    H179259   4.393   6.458  14.172 -2.2853  1.2439 -0.2274
19256TIP3    H279260   4.428   6.334  14.252  2.1600  1.2392 -1.9046
19257TIP3   OH279261   1.126   3.784   2.286 -0.8726 -0.3112 -0.5236
19257TIP3    H179262   1.038   3.768   2.251 -1.5413  1.2219  0.3635
19257TIP3    H279263   1.116   3.773   2.381  0.1170 -1.0217 -0.4904
19258TIP3   OH279264   4.426   4.370  13.494  0.2665  0.0565  0.3552
19258TIP3    H179265   4.399   4.454  13.458 -0.7965 -0.0406  0.8950
19258TIP3    H279266   4.480   4.330  13.426 -1.8840 -0.2408 -1.2534
19259TIP3   OH279267   4.198   6.628  15.223  0.6859 -0.4860 -0.0381
19259TIP3    H179268   4.120   6.609  15.276  0.2773  1.5336  0.1778
19259TIP3    H279269   4.237   6.704  15.266  1.6063 -0.1879 -1.3649
19260TIP3   OH279270   4.591   2.545   1.177 -0.6158  0.0223 -0.4951
19260TIP3    H179271   4.577   2.640   1.173 -0.5337 -0.0006 -1.7065
19260TIP3    H279272   4.679   2.533   1.142 -0.2181 -0.4346  0.5963
19261TIP3   OH279273   3.679   2.796  17.088  0.2188  0.0650 -0.4027
19261TIP3    H179274   3.597   2.794  17.039 -1.0419  2.4857  1.3832
19261TIP3    H279275   3.652   2.792  17.180  1.7078  4.0590  0.4164
19262TIP3   OH279276   4.950   2.818   3.361 -0.0213 -0.1250  0.3907
19262TIP3    H179277   5.009   2.818   3.436  2.0530  1.0583 -1.1615
19262TIP3    H279278   4.964   2.732   3.320 -0.8695 -0.6152  1.0788
19263TIP3   OH279279   1.629   4.526   1.138  0.2144 -0.4693  0.0705
19263TIP3    H179280   1.667   4.609   1.109  0.0518  0.0058  1.1781
19263TIP3    H279281   1.542   4.523   1.097 -0.0464  0.2309  0.5635
19264TIP3   OH279282   2.865   0.657   4.673 -0.1667 -0.0768 -0.1728
19264TIP3    H179283   2.791   0.598   4.688 -1.3647  1.6359  1.0576
19264TIP3    H279284   2.875   0.659   4.577  0.0278 -2.3012 -0.2710
19265TIP3   OH279285   0.001   0.714   2.419 -0.3733  0.2836  0.6609
19265TIP3    H179286   0.019   0.793   2.367 -2.6836  1.0878  0.9641
19265TIP3    H279287  -0.062   0.743   2.484 -2.7494 -2.1942 -0.3543
19266TIP3   OH279288   1.462   6.118   5.228 -0.1518  0.3629  0.3176
19266TIP3    H179289   1.482   6.124   5.134 -1.1853  0.8766  0.1180
19266TIP3    H279290   1.380   6.068   5.231  1.2831 -2.1116  1.1391
19267TIP3   OH279291   1.761   1.663  14.005 -0.2544  0.0336 -0.1414
19267TIP3    H179292   1.747   1.676  14.099 -1.5339 -3.1381  0.2342
19267TIP3    H279293   1.710   1.584  13.984  0.3684  0.3693 -3.4180
19268TIP3   OH279294   2.830   4.612  15.407 -0.4870 -0.0445  0.3149
19268TIP3    H179295   2.735   4.618  15.397 -0.3008  1.2448 -0.9336
19268TIP3    H279296   2.850   4.671  15.480 -0.5335  0.6571 -0.2275
19269TIP3   OH279297   6.232   3.080  17.087  0.1361  0.4281 -0.5086
19269TIP3    H179298   6.147   3.070  17.129 -0.0198 -1.6031 -1.1874
19269TIP3    H279299   6.286   3.011  17.127  0.9058  0.4919 -1.4101
19270TIP3   OH279300   2.465   4.764   4.019 -0.0100 -0.2510  0.1701
19270TIP3    H179301   2.461   4.673   4.048 -1.0550  0.0542  1.0318
19270TIP3    H279302   2.556   4.777   3.992 -0.0036 -1.7344 -0.5964
19271TIP3   OH279303   5.058   6.567  14.631 -0.5432 -0.4358  0.6072
19271TIP3    H179304   4.999   6.641  14.642 -1.2419 -1.0030  0.8060
19271TIP3    H279305   5.062   6.553  14.537  0.7976  0.7865  0.4558
19272TIP3   OH279306   2.961   2.152  11.982  0.2569  0.0484 -0.2137
19272TIP3    H179307   3.033   2.145  11.920 -0.0250 -0.4516 -0.4857
19272TIP3    H279308   2.931   2.243  11.974  1.7694  0.7087  0.9306
19273TIP3   OH279309   6.665   4.190   0.932  0.3140 -0.3088 -0.5938
19273TIP3    H179310   6.693   4.131   1.002 -0.8929 -1.5136 -1.0720
19273TIP3    H279311   6.572   4.205   0.949 -0.1260 -1.0332 -2.1867
19274TIP3   OH279312   0.018   1.004   0.840  0.1553  0.2062 -0.2377
19274TIP3    H179313   0.080   1.070   0.872 -0.0118 -0.0100  0.5645
19274TIP3    H279314   0.043   0.989   0.749  0.5955  0.9115 -0.2369
19275TIP3   OH279315   5.695   5.115  13.972  0.0256  0.1501 -0.5246
19275TIP3    H179316   5.764   5.100  13.907  0.7945 -1.7834  0.6411
19275TIP3    H279317   5.660   5.028  13.991  1.3429  0.2272  3.1929
19276TIP3   OH279318   6.003   0.617  12.218 -0.3141 -0.0873 -0.0720
19276TIP3    H179319   5.937   0.674  12.179 -0.5137  0.6851  1.3347
19276TIP3    H279320   5.966   0.529  12.210 -0.5378  0.0844 -1.1817
19277TIP3   OH279321   4.996   4.242  11.040  0.2594 -0.2190  0.7078
19277TIP3    H179322   4.967   4.174  10.979 -1.4550 -1.0167  2.2942
19277TIP3    H279323   5.088   4.256  11.020  0.3054 -2.0592 -0.5562
19278TIP3   OH279324   0.895   6.350   5.551  0.6222  0.1630 -0.4034
19278TIP3    H179325   0.820   6.293   5.538  0.7068  0.1877 -1.0205
19278TIP3    H279326   0.922   6.334   5.642  1.0190 -1.2307 -0.7377
19279TIP3   OH279327   6.115   6.586   5.867  0.2279  0.2227  0.3557
19279TIP3    H179328   6.118   6.530   5.944  0.7536 -0.1094  0.0955
19279TIP3    H279329   6.022   6.590   5.843 -0.0882  1.2111  1.6351
19280TIP3   OH279330   3.353   5.875  11.218  0.2776  0.0173 -0.9475
19280TIP3    H179331   3.276   5.916  11.179 -0.8337 -0.2007  0.9247
19280TIP3    H279332   3.328   5.784  11.230  1.4358 -0.4311 -1.7862
19281TIP3   OH279333   5.138   1.559   4.805  0.2403 -0.7028  0.5162
19281TIP3    H179334   5.080   1.537   4.731 -0.7194  1.4978  0.5340
19281TIP3    H279335   5.224   1.529   4.777 -0.1533 -0.1963 -1.4087
19282TIP3   OH279336   0.357   2.558  13.928  0.1737 -0.1040 -0.5472
19282TIP3    H179337   0.411   2.530  14.002  1.5741 -3.9664 -2.7277
19282TIP3    H279338   0.419   2.601  13.869 -0.7089  1.9720 -0.0287
19283TIP3   OH279339   3.772   5.906   2.794 -0.2346 -0.0247  0.3016
19283TIP3    H179340   3.809   5.894   2.882  0.7038 -0.3159 -0.1195
19283TIP3    H279341   3.701   5.969   2.806  1.1538  1.4649  0.9505
19284TIP3   OH279342   5.149   1.478  15.959 -0.3708  0.0465  0.8930
19284TIP3    H179343   5.233   1.436  15.942 -0.1355  0.6551  0.5134
19284TIP3    H279344   5.121   1.512  15.874 -0.9359 -0.0380  1.0411
19285TIP3   OH279345   3.660   0.727   5.862  0.2772  0.8736  0.8638
19285TIP3    H179346   3.718   0.680   5.922 -0.4666  1.2850  1.9448
19285TIP3    H279347   3.688   0.699   5.775  1.0640 -0.1327  1.4092
19286TIP3   OH279348   5.015   3.804  12.477 -0.4844  0.4604  0.0954
19286TIP3    H179349   4.995   3.776  12.387  1.3539  2.3559 -1.0048
19286TIP3    H279350   5.076   3.738  12.509 -0.5955  0.1490 -0.3155
19287TIP3   OH279351   2.693   1.147   2.418  0.3179  0.3491  0.2394
19287TIP3    H179352   2.648   1.145   2.334  0.9216  1.3362 -0.1236
19287TIP3    H279353   2.668   1.231   2.457 -0.3819 -0.3163  1.3083
19288TIP3   OH279354   2.161   3.202   0.618  0.5097 -0.1924  0.1882
19288TIP3    H179355   2.246   3.232   0.586 -0.0643  0.2212 -0.9774
19288TIP3    H279356   2.097   3.258   0.575 -0.4373 -1.3486  0.0188
19289TIP3   OH279357   5.000   1.983  16.949  0.2137 -0.1732  0.4554
19289TIP3    H179358   5.001   1.896  16.908  1.3758  0.6043 -1.2672
19289TIP3    H279359   5.037   1.969  17.036 -0.3865 -1.5266  0.5225
19290TIP3   OH279360   2.712   2.453  11.050  0.1673 -0.1365 -0.5839
19290TIP3    H179361   2.688   2.434  11.140  1.4979 -0.1061 -0.2010
19290TIP3    H279362   2.642   2.413  10.997 -0.2108 -0.8362  0.4167
19291TIP3   OH279363   0.116   4.771  11.344 -0.6615 -0.3662 -0.2227
19291TIP3    H179364   0.094   4.727  11.426 -1.7894  1.9281  0.8264
19291TIP3    H279365   0.095   4.707  11.276 -2.3502 -1.4081  1.1732
19292TIP3   OH279366   5.000   3.963   0.498  0.0866  0.4358  0.3657
19292TIP3    H179367   5.041   4.017   0.566  0.1778  0.1178  0.5632
19292TIP3    H279368   5.065   3.896   0.478 -0.8923 -1.0367  1.7891
19293TIP3   OH279369   6.150   3.616  15.892 -0.1608 -0.0411 -0.0571
19293TIP3    H179370   6.178   3.706  15.911 -0.9097  0.4520 -1.1836
19293TIP3    H279371   6.147   3.573  15.978  1.6360  0.5678  0.3520
19294TIP3   OH279372   1.053   5.382  11.549  0.0432 -0.5371  0.5545
19294TIP3    H179373   1.033   5.472  11.573  3.5730  0.0230  2.0317
19294TIP3    H279374   1.077   5.339  11.631 -0.1603 -2.4438 -0.3114
19295TIP3   OH279375   0.472   3.071   5.451 -0.2907  0.5768  0.0259
19295TIP3    H179376   0.566   3.055   5.465  0.1109  2.0468 -0.7855
19295TIP3    H279377   0.429   2.996   5.493  1.2038  0.2536  1.1001
19296TIP3   OH279378   5.654   1.070  10.702 -0.4804 -0.2885  0.7302
19296TIP3    H179379   5.731   1.020  10.676 -1.0655 -1.2320  0.7939
19296TIP3    H279380   5.586   1.044  10.641  0.0928  3.1804 -1.6802
19297TIP3   OH279381   1.740   5.103   1.560 -0.0230 -0.1505  0.2375
19297TIP3    H179382   1.761   5.197   1.561  1.4563 -0.4488  1.1207
19297TIP3    H279383   1.667   5.095   1.499  1.3023  1.2902 -1.6713
19298TIP3   OH279384   5.037   3.443   3.647  0.3101 -0.2051 -0.2472
19298TIP3    H179385   5.100   3.514   3.637  0.3817 -0.2665 -0.2355
19298TIP3    H279386   5.067   3.376   3.586 -0.5552  0.3287 -1.3072
19299TIP3   OH279387   2.824   3.440   1.098 -0.3533  0.3598 -0.7188
19299TIP3    H179388   2.774   3.481   1.169  1.2382  0.5690  0.3223
19299TIP3    H279389   2.782   3.354   1.087  0.0065 -0.1276  1.2404
19300TIP3   OH279390   3.864   3.793  12.353 -0.2258  0.5481  0.1193
19300TIP3    H179391   3.901   3.807  12.440  0.0595  0.3052  0.0404
19300TIP3    H279392   3.939   3.764  12.300 -0.8607 -1.7661  0.3878
19301TIP3   OH279393   0.947   4.499  14.895  0.0810  0.4750  0.3372
19301TIP3    H179394   0.885   4.485  14.823 -0.2577  0.1519  0.6862
19301TIP3    H279395   1.011   4.429  14.885  0.0324  0.4281  0.3533
19302TIP3   OH279396   3.140   6.110  16.431 -0.4697 -0.2268 -0.1065
19302TIP3    H179397   3.137   6.191  16.381  0.9313 -0.2769 -0.3265
19302TIP3    H279398   3.132   6.138  16.523 -0.3784  0.1235 -0.2036
19303TIP3   OH279399   1.364   0.655   0.537  0.1871 -0.5085 -0.0582
19303TIP3    H179400   1.279   0.654   0.582  0.1917  0.4832 -0.0246
19303TIP3    H279401   1.417   0.715   0.588  0.3849  0.1588 -1.0422
19304TIP3   OH279402   1.420   3.302   1.510  0.2035 -0.7719  1.1588
19304TIP3    H179403   1.431   3.373   1.446 -2.6373 -2.2078 -1.2021
19304TIP3    H279404   1.399   3.347   1.591  0.8651  1.1391  0.3316
19305TIP3   OH279405   4.598   3.609  16.058  0.0735 -0.3350 -0.2850
19305TIP3    H179406   4.571   3.699  16.039  1.1325 -0.2197 -1.3951
19305TIP3    H279407   4.566   3.558  15.984 -1.0073 -0.9925  0.6144
19306TIP3   OH279408   5.911   5.264  15.389 -0.4647 -0.1368  0.6512
19306TIP3    H179409   5.978   5.317  15.346  1.7061 -1.4206  2.2362
19306TIP3    H279410   5.854   5.234  15.318  0.3445  1.3567 -0.6958
19307TIP3   OH279411   5.860   4.426  15.395 -0.3790  0.3750 -0.1663
19307TIP3    H179412   5.845   4.358  15.461 -0.4261 -1.1989 -1.7069
19307TIP3    H279413   5.837   4.508  15.438  2.4227 -0.1755  2.7671
19308TIP3   OH279414   3.577   4.134  11.538 -0.1571  0.0896  0.1232
19308TIP3    H179415   3.669   4.156  11.550 -0.4940  0.6384  1.9863
19308TIP3    H279416   3.572   4.098  11.449  1.9017 -0.2990  0.1212
19309TIP3   OH279417   2.960   2.574  12.320 -0.5797  0.2675 -0.0862
19309TIP3    H179418   3.016   2.615  12.253  0.0551 -0.0016  0.2704
19309TIP3    H279419   2.950   2.642  12.387  0.4450 -0.1310  0.4888
19310TIP3   OH279420   0.836   0.041  14.902 -0.0947 -0.1277 -0.6411
19310TIP3    H179421   0.915   0.095  14.909 -0.6072  0.4511  1.0799
19310TIP3    H279422   0.835  -0.012  14.982 -1.4538 -0.1310 -0.6370
19311TIP3   OH279423   0.697   2.935   0.762 -0.1613  0.1764  0.0237
19311TIP3    H179424   0.621   2.926   0.820 -0.1649  0.5692  0.0820
19311TIP3    H279425   0.772   2.938   0.822 -0.1608  0.5313  0.0042
19312TIP3   OH279426   0.736   1.013   2.877 -0.5655  0.3813  0.3634
19312TIP3    H179427   0.750   0.951   2.948  0.5299  1.5187  1.1673
19312TIP3    H279428   0.648   1.049   2.893 -2.1581 -2.3944 -1.3013
19313TIP3   OH279429   2.488   0.633   3.735 -0.2564  0.4960  0.2081
19313TIP3    H179430   2.539   0.561   3.698 -0.5491  0.2987  0.1933
19313TIP3    H279431   2.530   0.712   3.699  0.0364  0.3339  0.1923
19314TIP3   OH279432   1.997   6.825   2.855  0.0370  0.1086 -0.3771
19314TIP3    H179433   2.008   6.895   2.790  0.7828  0.1198 -0.2402
19314TIP3    H279434   1.960   6.869   2.932  3.1930  0.9744  0.7948
19315TIP3   OH279435   5.302   0.287   4.515 -0.2268  0.5264 -0.8012
19315TIP3    H179436   5.302   0.380   4.489  0.5327  0.7522 -0.0130
19315TIP3    H279437   5.214   0.257   4.493 -0.0792  1.0886 -2.2643
19316TIP3   OH279438   5.027   5.220   6.185  0.4052 -0.5973  0.2119
19316TIP3    H179439   5.032   5.126   6.200 -1.4745 -0.6723  0.5463
19316TIP3    H279440   5.086   5.235   6.111 -1.0652 -2.4564 -1.4634
19317TIP3   OH279441   1.257   6.443  12.047  0.0401  0.0207  0.0453
19317TIP3    H179442   1.265   6.537  12.029 -1.1809 -0.1457 -1.5940
19317TIP3    H279443   1.174   6.418  12.006  0.5551 -1.8696  0.0787
19318TIP3   OH279444   4.740   4.887  15.937 -0.1707  0.3454 -0.4998
19318TIP3    H179445   4.652   4.916  15.958 -0.5232 -1.3647  0.6206
19318TIP3    H279446   4.788   4.967  15.917 -1.6635  1.4254  0.0617
19319TIP3   OH279447   1.224   5.811  14.700  0.3786  0.1489  0.2454
19319TIP3    H179448   1.260   5.724  14.681  0.2006  0.1888 -0.2910
19319TIP3    H279449   1.178   5.801  14.783 -2.0397 -0.9894 -1.1245
19320TIP3   OH279450   0.347   6.419  13.762  0.6316 -0.0608  0.5809
19320TIP3    H179451   0.412   6.469  13.812 -1.2299  1.7940  1.2948
19320TIP3    H279452   0.320   6.349  13.821  0.1282  0.7335  1.3160
19321TIP3   OH279453   4.624   6.732   3.095  0.1817  0.0743 -0.0870
19321TIP3    H179454   4.620   6.661   3.159  1.7553 -0.0859 -0.1125
19321TIP3    H279455   4.668   6.803   3.142 -0.4848  0.6803 -0.3749
19322TIP3   OH279456   5.001   4.023   1.625 -0.8529 -0.0123  0.1978
19322TIP3    H179457   4.989   3.928   1.620 -2.9340  0.1331  1.2964
19322TIP3    H279458   5.013   4.041   1.718 -0.1655  0.7819 -0.0336
19323TIP3   OH279459   3.337   1.266   1.547 -0.4819  0.5197  0.2754
19323TIP3    H179460   3.321   1.359   1.532  0.0128  1.0103  2.4878
19323TIP3    H279461   3.416   1.263   1.601 -1.6459 -1.0275  2.0234
19324TIP3   OH279462   6.846   2.850  12.402  0.2039  0.5414 -0.1936
19324TIP3    H179463   6.766   2.900  12.422 -1.0297 -0.6325 -1.9155
19324TIP3    H279464   6.897   2.854  12.483 -3.5153 -2.2142  2.6875
19325TIP3   OH279465   0.059   2.681   1.450  0.3345  0.6340 -0.1553
19325TIP3    H179466  -0.002   2.659   1.379 -0.1768 -0.6209  0.6336
19325TIP3    H279467   0.003   2.720   1.518  0.0700 -1.8445  1.1740
19326TIP3   OH279468   2.379   6.448   2.580 -0.2057 -0.4762 -0.4198
19326TIP3    H179469   2.318   6.499   2.526  0.6322  0.1365 -0.8178
19326TIP3    H279470   2.323   6.394   2.635 -1.1199  0.4002 -0.4567
19327TIP3   OH279471   4.661   5.309  15.463  0.2433 -0.1659 -0.5246
19327TIP3    H179472   4.624   5.355  15.388 -0.1420  1.1747  0.4433
19327TIP3    H279473   4.599   5.237  15.480  0.5924 -0.7921 -1.7509
19328TIP3   OH279474   1.831   3.457   4.753 -0.2246 -0.2468  0.1363
19328TIP3    H179475   1.827   3.392   4.823  1.4620  0.6008  1.1030
19328TIP3    H279476   1.878   3.412   4.682 -1.7489 -1.0360 -0.4232
19329TIP3   OH279477   3.227   1.464  15.820  0.0343  0.5377 -0.2326
19329TIP3    H179478   3.174   1.516  15.880  1.5853  1.2779  0.5734
19329TIP3    H279479   3.317   1.496  15.834  0.6174 -0.1992 -1.9953
19330TIP3   OH279480   0.399   5.705  13.430  0.8557  0.1578  0.0405
19330TIP3    H179481   0.487   5.667  13.426 -0.3072 -2.7514 -0.3970
19330TIP3    H279482   0.373   5.716  13.339  1.0226  1.7923  0.1643
19331TIP3   OH279483   5.828   1.977  11.967 -0.0992 -0.5064  1.0872
19331TIP3    H179484   5.739   1.981  11.933  0.1637 -0.3032  0.4064
19331TIP3    H279485   5.828   2.036  12.042 -0.9218 -1.6357  2.0176
19332TIP3   OH279486   4.383   1.374   4.364 -1.0286  0.7608  0.2926
19332TIP3    H179487   4.371   1.414   4.278  1.8842  1.2895  0.0538
19332TIP3    H279488   4.424   1.289   4.346 -0.1063  1.0081  1.1791
19333TIP3   OH279489   5.702   0.099  14.542 -0.7254  0.4262  0.0621
19333TIP3    H179490   5.613   0.075  14.517 -0.4780  1.0497 -1.5218
19333TIP3    H279491   5.726   0.170  14.482  0.3451  1.2118  1.3556
19334TIP3   OH279492   5.669   6.196   5.615  0.9013 -0.3529 -0.2069
19334TIP3    H179493   5.651   6.274   5.562 -1.3433 -1.3355 -1.0004
19334TIP3    H279494   5.678   6.229   5.704 -3.1060  0.6288  0.0042
19335TIP3   OH279495   5.142   4.995  14.040 -0.0291  0.9073  0.0179
19335TIP3    H179496   5.218   5.047  14.015  2.3313 -2.3396 -0.1571
19335TIP3    H279497   5.174   4.936  14.108 -2.3604 -0.6409 -0.1179
19336TIP3   OH279498   5.756   1.715  11.582 -0.1262  0.4132 -0.0439
19336TIP3    H179499   5.717   1.801  11.598  0.2323  0.6021 -0.1645
19336TIP3    H279500   5.844   1.735  11.548  0.7562  0.0017  1.8624
19337TIP3   OH279501   0.543   4.908   1.091  0.5447 -0.1106  0.5038
19337TIP3    H179502   0.637   4.893   1.101  0.6497  0.3095  0.1597
19337TIP3    H279503   0.521   4.864   1.008  0.7950  1.3286 -0.3548
19338TIP3   OH279504   5.054   5.098  16.565  0.0638  0.4854 -0.1336
19338TIP3    H179505   4.960   5.095  16.584  0.2121  0.0790  0.5542
19338TIP3    H279506   5.059   5.127  16.474 -0.6518  2.7887  0.5156
19339TIP3   OH279507   2.525   2.495  15.908  0.1485 -0.2111 -0.1129
19339TIP3    H179508   2.594   2.531  15.965 -0.4906  0.5248  0.2104
19339TIP3    H279509   2.547   2.528  15.821  0.4303 -0.3167 -0.0845
19340TIP3   OH279510   4.817   1.655   4.452  0.2976 -0.0245 -0.2890
19340TIP3    H179511   4.730   1.616   4.448  0.0278  0.6028 -0.6360
19340TIP3    H279512   4.870   1.602   4.393 -0.2147  0.4971 -1.2341
19341TIP3   OH279513   1.066   2.601  14.581  0.6033  0.2247  0.1129
19341TIP3    H179514   1.028   2.689  14.580  0.4542  0.2150 -2.3899
19341TIP3    H279515   1.142   2.608  14.522  0.1294 -1.4712 -0.7560
19342TIP3   OH279516   1.774   5.735   5.139  0.2597 -0.2229  0.0089
19342TIP3    H179517   1.800   5.758   5.229  1.4046 -0.9896 -0.0927
19342TIP3    H279518   1.783   5.816   5.090  1.7746 -0.2647  0.1577
19343TIP3   OH279519   4.370   0.764  14.592 -0.4150  0.1778  0.1355
19343TIP3    H179520   4.431   0.774  14.519 -0.9354 -0.8735 -0.4749
19343TIP3    H279521   4.351   0.670  14.595 -1.6575  0.4130  0.5829
19344TIP3   OH279522   1.747   0.413  14.101  0.0172  0.4560  0.1712
19344TIP3    H179523   1.658   0.379  14.090  0.2496 -0.1746  0.1822
19344TIP3    H279524   1.737   0.487  14.161 -0.2804 -0.7373  1.6526
19345TIP3   OH279525   3.400   0.561   3.405  0.1677 -0.4399  0.0401
19345TIP3    H179526   3.476   0.572   3.347 -0.4816 -2.4878 -1.3263
19345TIP3    H279527   3.379   0.650   3.433  0.7534  0.6530 -2.6334
19346TIP3   OH279528   6.138   2.471  13.484 -0.1682  0.3352  0.1403
19346TIP3    H179529   6.186   2.391  13.507 -1.3909 -0.6825 -0.6852
19346TIP3    H279530   6.095   2.497  13.566  1.6439  1.1989  0.8587
19347TIP3   OH279531   4.820   6.743   2.906 -0.1258 -0.1152  0.0351
19347TIP3    H179532   4.744   6.775   2.955 -0.8549 -0.0573 -1.0994
19347TIP3    H279533   4.809   6.648   2.905  0.8692 -0.2714  1.5219
19348TIP3   OH279534   4.872   5.101  14.034 -0.2571  0.1073 -0.2262
19348TIP3    H179535   4.831   5.022  14.069 -0.2802 -0.7788 -2.1129
19348TIP3    H279536   4.964   5.077  14.022  0.1796  1.0429  0.9826
19349TIP3   OH279537   0.179   2.441  14.681 -0.3120 -0.4222 -0.2014
19349TIP3    H179538   0.225   2.360  14.700 -0.8524 -0.7460 -0.2617
19349TIP3    H279539   0.238   2.489  14.622  1.4741  0.6885  2.2943
19350TIP3   OH279540   2.242   2.367  13.159  0.4678  0.0074 -0.3617
19350TIP3    H179541   2.282   2.448  13.128  1.5655  0.0798  1.1292
19350TIP3    H279542   2.283   2.351  13.244 -1.8844 -0.5331  0.7450
19351TIP3   OH279543   1.948   2.678  16.362 -0.2376  0.1416 -0.0043
19351TIP3    H179544   1.957   2.664  16.268  0.1600  0.8629 -0.0818
19351TIP3    H279545   1.929   2.772  16.370 -1.5834 -0.1696  0.5579
19352TIP3   OH279546   5.632   5.499  14.302  0.3047  0.0800 -0.3022
19352TIP3    H179547   5.575   5.426  14.327  0.9797 -0.0370  0.9615
19352TIP3    H279548   5.719   5.473  14.332  0.9750  0.4238 -1.8658
19353TIP3   OH279549   4.866   4.924  10.039 -0.9381 -0.4108 -0.0723
19353TIP3    H179550   4.890   4.831  10.032  0.2731 -0.2257  1.2698
19353TIP3    H279551   4.777   4.922  10.075 -1.6979 -1.0515 -1.8609
19354TIP3   OH279552   1.188   4.706  11.921  0.5001  0.5024 -0.6703
19354TIP3    H179553   1.149   4.661  11.995 -2.0647  2.0156 -1.0080
19354TIP3    H279554   1.239   4.638  11.876 -0.3639 -1.1610  0.7571
19355TIP3   OH279555   2.265   6.764   2.400  0.3765  0.1677 -0.9313
19355TIP3    H179556   2.249   6.851   2.364 -3.6572  0.2529  0.4892
19355TIP3    H279557   2.213   6.706   2.344 -0.3505 -0.6429  0.5268
19356TIP3   OH279558   4.891   5.635   2.331 -0.8500 -0.3195 -0.6404
19356TIP3    H179559   4.888   5.646   2.426  1.7061 -0.2665 -0.4978
19356TIP3    H279560   4.980   5.604   2.313 -0.7357  1.1960 -3.1546
19357TIP3   OH279561   5.686   0.089  10.995  0.1377 -0.7245 -0.1356
19357TIP3    H179562   5.625   0.162  10.993  0.6354 -0.2473  0.9290
19357TIP3    H279563   5.646   0.025  11.055  0.0131 -1.0377 -0.5493
19358TIP3   OH279564   2.035   1.128  13.492  0.0690  0.1634 -0.3943
19358TIP3    H179565   2.087   1.149  13.415  0.4497 -0.0129 -0.1863
19358TIP3    H279566   2.057   1.196  13.555 -0.1263  0.2192 -0.3849
19359TIP3   OH279567   0.641   6.574  11.430 -0.1546  0.0826 -0.3515
19359TIP3    H179568   0.548   6.575  11.454 -0.3557  1.7998 -1.0835
19359TIP3    H279569   0.683   6.626  11.499  0.5354 -1.8760  0.7955
19360TIP3   OH279570   4.998   4.329  15.350 -0.1278  0.4432 -0.2489
19360TIP3    H179571   4.905   4.312  15.330  0.2239  1.9204 -3.9337
19360TIP3    H279572   5.043   4.311  15.268  3.5086 -3.4302  2.2123
19361TIP3   OH279573   3.374   5.226  12.702  0.4911 -0.7109 -0.5267
19361TIP3    H179574   3.402   5.261  12.787  0.1668  0.5303 -0.9112
19361TIP3    H279575   3.299   5.280  12.678  0.0098 -1.6549 -1.1842
19362TIP3   OH279576   6.441   6.232   2.940 -0.2953 -0.4456 -0.6585
19362TIP3    H179577   6.477   6.318   2.921  1.3424 -0.7430  0.8112
19362TIP3    H279578   6.480   6.174   2.874  1.6676 -0.6747  0.6136
19363TIP3   OH279579   0.716   5.214   1.974 -0.6178  0.2635 -0.1303
19363TIP3    H179580   0.717   5.163   1.893 -1.0733 -1.1257  0.7197
19363TIP3    H279581   0.626   5.246   1.981 -0.6582  0.1254 -0.0183
19364TIP3   OH279582   3.073   5.705  13.397  0.0455 -0.1731 -0.3966
19364TIP3    H179583   3.052   5.660  13.315  0.1848 -0.5312 -0.2381
19364TIP3    H279584   3.126   5.780  13.370 -1.9475  1.1415 -0.8765
19365TIP3   OH279585   3.458   2.512   2.900 -0.0538  0.0507 -0.1282
19365TIP3    H179586   3.439   2.525   2.807 -0.2982 -0.9692 -0.2317
19365TIP3    H279587   3.539   2.462   2.900 -0.5085 -0.6882  0.1891
19366TIP3   OH279588   6.349   0.219   4.253 -0.1788  0.5197  0.7883
19366TIP3    H179589   6.403   0.174   4.188 -1.6362 -2.8209  1.6789
19366TIP3    H279590   6.307   0.290   4.204  0.4052 -0.5574 -1.4153
19367TIP3   OH279591   4.050   4.365   3.270 -0.6796  0.1117 -0.0757
19367TIP3    H179592   4.015   4.430   3.209 -0.8321 -0.4076 -0.5510
19367TIP3    H279593   3.973   4.320   3.303 -0.5063 -0.5348 -0.5520
19368TIP3   OH279594   3.388   3.610  12.838 -1.0623 -0.6629  0.0043
19368TIP3    H179595   3.340   3.537  12.799 -2.8939  0.7895 -0.6342
19368TIP3    H279596   3.401   3.670  12.765  2.4095 -1.2519  0.0047
19369TIP3   OH279597   2.702   1.287  15.337  0.1761 -0.3716  0.2211
19369TIP3    H179598   2.609   1.270  15.352 -0.2134  1.7536  0.4947
19369TIP3    H279599   2.723   1.237  15.258 -1.8198  0.9623 -1.2566
19370TIP3   OH279600   1.309   4.580   5.581  0.2357  0.5649 -0.5103
19370TIP3    H179601   1.399   4.553   5.563 -0.3192 -0.1496 -2.4678
19370TIP3    H279602   1.315   4.673   5.602  1.5497  0.2378  0.6470
19371TIP3   OH279603   3.286   0.615   1.983  0.0465 -0.2897  0.4887
19371TIP3    H179604   3.212   0.626   1.923  0.7542  2.6038  0.0082
19371TIP3    H279605   3.347   0.558   1.936 -0.0737  0.7052 -0.9357
19372TIP3   OH279606   4.537   4.541  10.946  0.0402 -0.0662 -0.6307
19372TIP3    H179607   4.569   4.631  10.940 -0.6474  0.4626  2.2419
19372TIP3    H279608   4.612   4.490  10.974  0.1409 -0.2149 -1.1467
19373TIP3   OH279609   4.961   0.494  11.934 -0.4968 -0.0673  0.3984
19373TIP3    H179610   4.942   0.446  11.854  1.8049 -0.3294 -0.0680
19373TIP3    H279611   5.056   0.503  11.935 -0.5446  0.9986  2.5035
19374TIP3   OH279612   3.872   6.508   5.116  0.5512 -0.6960 -1.0865
19374TIP3    H179613   3.957   6.483   5.150  0.3723  1.0850  0.8156
19374TIP3    H279614   3.810   6.452   5.163  0.4387  0.4786  0.1946
19375TIP3   OH279615   4.175   3.946   0.731  0.2408 -0.0390  0.3978
19375TIP3    H179616   4.156   4.039   0.735  3.0957  0.5952  1.5661
19375TIP3    H279617   4.234   3.936   0.657 -0.2206 -0.9668  0.1399
19376TIP3   OH279618   1.915   4.614  13.558 -0.4704  0.2021 -0.3275
19376TIP3    H179619   1.871   4.685  13.509 -2.5032 -2.3015 -2.4314
19376TIP3    H279620   1.959   4.562  13.491  2.1241  0.1117  1.3147
19377TIP3   OH279621   5.518   4.474  13.412  0.1267 -0.0086 -0.0055
19377TIP3    H179622   5.481   4.554  13.376  1.2140  1.0088  1.0275
19377TIP3    H279623   5.604   4.500  13.445  0.5917 -1.6489  0.1944
19378TIP3   OH279624   0.616   2.491   1.147  0.3197 -0.0134  0.2149
19378TIP3    H179625   0.708   2.518   1.146  0.3752 -0.2013 -0.3088
19378TIP3    H279626   0.612   2.420   1.211  0.1184  1.3797  1.8110
19379TIP3   OH279627   5.188   4.592  13.279  0.0165  0.0353 -0.0172
19379TIP3    H179628   5.215   4.508  13.242  1.0188  0.3515 -0.0178
19379TIP3    H279629   5.266   4.647  13.274 -0.8959  1.2981 -0.9691
19380TIP3   OH279630   1.547   5.842  16.401 -0.3551 -0.3202 -0.3200
19380TIP3    H179631   1.584   5.769  16.351 -0.8647 -0.4448 -0.5216
19380TIP3    H279632   1.516   5.802  16.482  0.8232 -0.0538  0.2787
19381TIP3   OH279633   5.048   5.969  13.221 -0.7681  0.6879 -0.1169
19381TIP3    H179634   5.064   6.044  13.164 -0.1797 -0.6185 -1.7515
19381TIP3    H279635   5.021   6.007  13.304 -1.0115  2.6847 -1.0645
19382TIP3   OH279636   5.882   5.241   1.357  0.2459  0.2324  0.3490
19382TIP3    H179637   5.889   5.145   1.359  1.8288  0.3314  0.6905
19382TIP3    H279638   5.789   5.258   1.372 -0.2263 -1.2681 -0.5884
19383TIP3   OH279639   0.917   0.999   5.287  0.8424 -0.0997  0.2354
19383TIP3    H179640   0.890   0.925   5.233  0.3448  0.0736  0.2399
19383TIP3    H279641   0.862   0.993   5.366  2.3112 -0.9791  1.2338
19384TIP3   OH279642   6.642   5.747  13.382 -0.3571  0.6609 -0.6281
19384TIP3    H179643   6.598   5.806  13.321 -0.4509  0.3318 -0.8779
19384TIP3    H279644   6.581   5.739  13.456  0.1512  1.7950 -0.0561
19385TIP3   OH279645   3.179   4.986  12.712 -0.5885  0.3940 -0.4488
19385TIP3    H179646   3.211   4.900  12.741 -0.7807  0.8758  1.3373
19385TIP3    H279647   3.225   5.048  12.768 -1.5753  1.3556 -0.6705
19386TIP3   OH279648   6.448   6.764  14.464  0.3815 -0.0565  0.9814
19386TIP3    H179649   6.527   6.798  14.421  0.3140 -0.2508  0.6983
19386TIP3    H279650   6.433   6.824  14.537  1.1591 -0.3858  1.4327
19387TIP3   OH279651   1.082   3.909   5.490 -0.2140  0.2523 -0.1357
19387TIP3    H179652   1.168   3.874   5.513 -0.1660 -0.3618 -1.1737
19387TIP3    H279653   1.089   3.931   5.397 -2.1607 -3.0620 -1.2174
19388TIP3   OH279654   2.757   1.133  11.823  0.2435 -0.2268 -0.0847
19388TIP3    H179655   2.841   1.149  11.865 -0.0633  0.1559  0.3887
19388TIP3    H279656   2.705   1.086  11.889 -0.4045  0.8008  0.1501
19389TIP3   OH279657   4.117   6.659  11.953 -0.3311 -0.2476 -0.2745
19389TIP3    H179658   4.105   6.715  11.877  0.4123 -0.9292 -0.8991
19389TIP3    H279659   4.042   6.599  11.951 -1.2933  0.8580  0.5593
19390TIP3   OH279660   2.324   2.361  13.450 -0.8228  0.3411 -0.0799
19390TIP3    H179661   2.334   2.422  13.523  0.0259 -1.8701  1.7685
19390TIP3    H279662   2.285   2.283  13.488 -2.1306 -0.2594 -2.4113
19391TIP3   OH279663   5.637   2.619   1.213  0.1089  0.1109 -0.1300
19391TIP3    H179664   5.576   2.671   1.161  0.4822  2.0555  1.2385
19391TIP3    H279665   5.585   2.587   1.286  0.0522 -0.8771 -0.5855
19392TIP3   OH279666   4.303   3.294  12.917  0.2306  0.2527  0.9496
19392TIP3    H179667   4.358   3.337  12.853 -0.3377  2.0022  1.5898
19392TIP3    H279668   4.312   3.346  12.997  0.0221 -1.1870  1.9741
19393TIP3   OH279669   6.855   0.859  13.184  0.4236  0.1726 -0.0515
19393TIP3    H179670   6.798   0.783  13.171 -0.2397  0.5140  0.7789
19393TIP3    H279671   6.826   0.897  13.267  1.0724  1.0523 -0.2121
19394TIP3   OH279672   4.546   6.619   4.180 -0.1776  0.2411 -0.0815
19394TIP3    H179673   4.504   6.705   4.170 -0.7627 -0.2089 -1.9385
19394TIP3    H279674   4.626   6.626   4.129  1.9683  0.9535  3.1063
19395TIP3   OH279675   6.703   6.191   5.383  0.2143 -0.9288  0.1978
19395TIP3    H179676   6.635   6.211   5.319  1.8043  1.4486 -0.8867
19395TIP3    H279677   6.690   6.255   5.453  2.3952  0.8895 -0.9341
19396TIP3   OH279678   5.635   5.189  12.092  0.3278  0.4336 -0.2561
19396TIP3    H179679   5.559   5.156  12.043 -0.5159  0.9762  0.6342
19396TIP3    H279680   5.621   5.283  12.098  1.4076  0.6241 -0.6063
19397TIP3   OH279681   3.326   5.401  10.475  0.0031  0.0523  0.2479
19397TIP3    H179682   3.269   5.428  10.404  0.8565 -0.2947 -0.5900
19397TIP3    H279683   3.380   5.478  10.493 -0.3516  0.2071  0.6757
19398TIP3   OH279684   0.923   5.092  11.818 -0.2919 -0.1031 -0.2879
19398TIP3    H179685   1.006   5.045  11.827  0.5762  1.4610  0.3245
19398TIP3    H279686   0.890   5.067  11.732  1.3869  0.1111 -1.0319
19399TIP3   OH279687   1.860   5.095   3.288 -0.7727 -0.2412  0.0711
19399TIP3    H179688   1.938   5.051   3.255 -0.8401  1.0572 -1.9722
19399TIP3    H279689   1.892   5.178   3.323 -1.1972  0.2892 -0.7591
19400TIP3   OH279690   2.983   6.429  15.098 -0.4268 -0.4900  0.6524
19400TIP3    H179691   3.059   6.372  15.090 -0.6469 -1.1472  2.7203
19400TIP3    H279692   2.926   6.386  15.162 -1.9752  0.5986  0.0872
19401TIP3   OH279693   5.473   1.960   1.189 -0.6772  0.0414 -0.2878
19401TIP3    H179694   5.554   1.910   1.178 -0.0006  1.2994 -1.3237
19401TIP3    H279695   5.405   1.893   1.196  0.3630 -1.0408 -0.0581
19402TIP3   OH279696   5.783   2.960  16.659 -0.0867 -0.6148 -0.1586
19402TIP3    H179697   5.712   3.023  16.674 -0.5609 -1.5179  1.6375
19402TIP3    H279698   5.741   2.875  16.662  0.9864 -1.1489  0.3377
19403TIP3   OH279699   6.171   3.328  11.178  0.2913  0.4572  0.2024
19403TIP3    H179700   6.123   3.297  11.254 -2.0971 -0.9424 -1.7013
19403TIP3    H279701   6.125   3.406  11.150 -0.8331 -0.7355 -1.4828
19404TIP3   OH279702   6.166   0.057   0.790  0.2196 -0.0255  0.1685
19404TIP3    H179703   6.190   0.088   0.878  3.4502  0.9351 -0.9314
19404TIP3    H279704   6.117  -0.025   0.806 -0.8884  1.0366  2.8509
19405TIP3   OH279705   2.371   5.821  11.090 -0.4264 -0.3176 -0.2833
19405TIP3    H179706   2.341   5.763  11.019  1.7437 -0.3809 -1.2376
19405TIP3    H279707   2.321   5.902  11.078 -1.0952 -0.8241 -1.0153
19406TIP3   OH279708   3.585   3.642  15.247  0.0055 -0.5340 -0.6054
19406TIP3    H179709   3.615   3.659  15.337  1.7838 -2.1961 -0.8186
19406TIP3    H279710   3.501   3.687  15.242  0.3429  0.5231  1.5421
19407TIP3   OH279711   1.812   0.735  12.968  0.3460  0.2120 -0.6971
19407TIP3    H179712   1.801   0.682  13.047  1.6241  0.0783 -0.5989
19407TIP3    H279713   1.884   0.794  12.988  0.8891 -0.0252 -1.8744
19408TIP3   OH279714   6.565   6.528  14.602  0.5069 -0.4391  0.3309
19408TIP3    H179715   6.561   6.615  14.563 -0.4801  0.1194  1.6020
19408TIP3    H279716   6.602   6.542  14.689  0.3129 -1.2700  0.5565
19409TIP3   OH279717   0.418   2.909   4.422 -0.2909 -0.4310  0.3736
19409TIP3    H179718   0.436   2.916   4.516 -0.7714 -1.0476  0.5196
19409TIP3    H279719   0.395   2.817   4.409 -2.0930  0.0429 -0.0144
19410TIP3   OH279720   6.399   3.568   0.573  0.3758  0.3719 -0.2966
19410TIP3    H179721   6.479   3.535   0.614 -0.1892 -0.3997  0.2004
19410TIP3    H279722   6.357   3.490   0.537 -0.3361  0.7205 -0.2301
19411TIP3   OH279723   3.965   5.557   4.849  0.0178  0.6325 -0.0768
19411TIP3    H179724   3.877   5.557   4.886  0.0388 -0.9655  0.0692
19411TIP3    H279725   4.023   5.562   4.926  0.0611  0.9316 -0.1273
19412TIP3   OH279726   2.668   4.436   1.086  0.1581 -0.5782 -0.7096
19412TIP3    H179727   2.714   4.376   1.028 -0.2702 -1.7677  0.1492
19412TIP3    H279728   2.737   4.495   1.117  1.0702 -2.0561  0.2015
19413TIP3   OH279729   0.935   1.013   5.810 -0.0661 -0.6686  0.1729
19413TIP3    H179730   1.027   1.035   5.823  0.7815 -2.4575 -2.1627
19413TIP3    H279731   0.927   0.922   5.837 -1.1274 -0.5674  0.2482
19414TIP3   OH279732   2.686   2.767   1.455 -0.1702 -0.2013 -0.5369
19414TIP3    H179733   2.691   2.704   1.527  1.0388  1.6485  1.1025
19414TIP3    H279734   2.730   2.724   1.382  0.4848 -1.3306  0.4857
19415TIP3   OH279735   5.732   5.825   1.365 -0.3205 -0.0337  0.0777
19415TIP3    H179736   5.687   5.894   1.315  0.1663  0.5122  0.3753
19415TIP3    H279737   5.750   5.865   1.450 -1.6600 -1.1458  0.9170
19416TIP3   OH279738   5.153   6.282  13.934  0.3339  0.1258 -0.3104
19416TIP3    H179739   5.064   6.250  13.918  0.4798 -1.3709  1.4895
19416TIP3    H279740   5.143   6.376  13.945 -0.9281  0.0659 -0.7565
19417TIP3   OH279741   6.295   4.227  16.724  0.4784 -0.0004 -0.1170
19417TIP3    H179742   6.212   4.270  16.743 -0.1968 -0.3970 -1.9963
19417TIP3    H279743   6.359   4.298  16.728  0.0388  0.3649  1.0293
19418TIP3   OH279744   4.540   3.157   0.375  0.3446 -0.0514 -0.6002
19418TIP3    H179745   4.608   3.192   0.432  1.1364 -0.6156 -1.1742
19418TIP3    H279746   4.499   3.088   0.427  1.3117 -0.8198 -0.8220
19419TIP3   OH279747   3.606   3.750  11.947 -0.9786  0.0442 -0.0787
19419TIP3    H179748   3.607   3.826  11.890  0.2782  0.3042  0.2748
19419TIP3    H279749   3.614   3.786  12.036 -0.2640 -0.4872  0.0835
19420TIP3   OH279750   4.790   3.674  11.360  0.3985 -0.4373  0.2352
19420TIP3    H179751   4.740   3.627  11.293  0.9441 -0.9632  0.1894
19420TIP3    H279752   4.784   3.619  11.438 -0.1799  0.1425  0.6082
19421TIP3   OH279753   1.848   3.098  14.231 -0.1126 -0.8286 -0.3183
19421TIP3    H179754   1.938   3.106  14.201 -0.4440  0.6135 -0.9732
19421TIP3    H279755   1.848   3.138  14.318 -0.3851  0.4382 -0.8805
19422TIP3   OH279756   1.993   5.536   4.214 -0.7177  0.2598  0.1797
19422TIP3    H179757   2.087   5.542   4.197 -0.1537 -3.2103  1.2496
19422TIP3    H279758   1.972   5.617   4.261  2.2073  0.2075  1.7917
19423TIP3   OH279759   0.109   3.165  14.951 -0.1864 -0.0684 -0.5053
19423TIP3    H179760   0.127   3.236  15.014  2.7785  1.0210 -2.3639
19423TIP3    H279761   0.113   3.208  14.866  1.4288 -2.4176 -1.6822
19424TIP3   OH279762   5.551   2.300   5.236 -0.0272  0.3607  0.0829
19424TIP3    H179763   5.531   2.253   5.317  1.8814  1.5522  1.3275
19424TIP3    H279764   5.476   2.283   5.179 -0.0228 -3.1231  0.8955
19425TIP3   OH279765   0.972   4.587  13.458 -0.2322  0.3201  0.3413
19425TIP3    H179766   1.020   4.519  13.411 -0.1712  0.8617 -0.3903
19425TIP3    H279767   0.881   4.574  13.431 -0.2787  0.2872  0.5103
19426TIP3   OH279768   5.932   3.960   3.038 -0.1929  0.1658 -0.5162
19426TIP3    H179769   5.908   3.868   3.042  1.0960 -0.1754 -0.1664
19426TIP3    H279770   6.010   3.963   2.983  0.9721  0.7562  1.0817
19427TIP3   OH279771   0.656   5.859  14.258 -0.0599 -0.3552  0.4763
19427TIP3    H179772   0.588   5.892  14.318  0.0502 -1.2068  1.0904
19427TIP3    H279773   0.693   5.783  14.303 -0.4103 -1.4153 -0.9467
19428TIP3   OH279774   1.433   5.922  15.506 -0.5210  0.2295  0.4624
19428TIP3    H179775   1.359   5.901  15.449  0.2135 -0.8757 -0.1283
19428TIP3    H279776   1.487   5.982  15.455  0.4076 -1.1686 -0.2812
19429TIP3   OH279777   4.665   5.552   6.236 -0.0706  0.0894 -0.1102
19429TIP3    H179778   4.729   5.550   6.165  0.6462 -0.1778  0.5353
19429TIP3    H279779   4.672   5.640   6.272 -0.4276  0.2224 -0.3592
19430TIP3   OH279780   3.745   3.034  14.093 -0.1787 -0.4377  0.2134
19430TIP3    H179781   3.698   3.005  14.171  1.3917  0.2566  1.4695
19430TIP3    H279782   3.726   2.967  14.027 -1.9728 -0.7587  0.9974
19431TIP3   OH279783   1.790   2.821   3.653 -0.0587  0.3188  0.5336
19431TIP3    H179784   1.722   2.864   3.705 -1.4228  0.5311 -1.3296
19431TIP3    H279785   1.847   2.893   3.625 -0.7035  0.5479 -0.2209
19432TIP3   OH279786   4.349   1.581  11.567  0.2913  0.4548 -0.2375
19432TIP3    H179787   4.348   1.649  11.500  1.8720  2.2332  1.4376
19432TIP3    H279788   4.274   1.600  11.622  0.6677  0.7743  0.1667
19433TIP3   OH279789   0.335   3.022  15.027  0.2004 -0.0292 -0.4096
19433TIP3    H179790   0.269   3.091  15.017  0.7568  0.3807 -1.3476
19433TIP3    H279791   0.374   3.014  14.940  0.5379 -1.1347 -0.1670
19434TIP3   OH279792   4.663   3.407   2.703 -0.1918 -0.0904 -0.5031
19434TIP3    H179793   4.695   3.423   2.792 -2.6863 -1.0840  0.6803
19434TIP3    H279794   4.568   3.416   2.710 -0.6172 -1.9750 -2.6450
19435TIP3   OH279795   3.147   0.874  10.801 -0.3403  0.1671  0.3971
19435TIP3    H179796   3.232   0.830  10.792 -0.4258  0.4443 -2.8188
19435TIP3    H279797   3.085   0.803  10.817  0.2677 -0.2228  1.0626
19436TIP3   OH279798   0.974   4.651   2.506 -0.3282  0.0631  0.0779
19436TIP3    H179799   0.918   4.653   2.428 -1.2269  0.9412  0.7178
19436TIP3    H279800   0.949   4.729   2.555 -0.2574 -0.8171  1.5758
19437TIP3   OH279801   0.597   5.305   3.866 -0.0794  0.1093  0.1743
19437TIP3    H179802   0.549   5.291   3.784  1.1750  1.1996 -0.7950
19437TIP3    H279803   0.629   5.395   3.861  1.8535 -0.4762  0.8381
19438TIP3   OH279804   4.105   2.674  16.741  0.1486  0.2037  0.0746
19438TIP3    H179805   4.010   2.680  16.729  0.1802  1.6409  0.2736
19438TIP3    H279806   4.116   2.633  16.827 -0.3420  1.2614  0.6648
19439TIP3   OH279807   3.761   5.783   0.391  0.6149  0.8887 -0.3887
19439TIP3    H179808   3.760   5.798   0.297  0.4911  0.2860 -0.4860
19439TIP3    H279809   3.828   5.844   0.424  0.8556  0.9036 -0.8962
19440TIP3   OH279810   0.030   0.296   3.836 -0.1363  0.2255 -0.4107
19440TIP3    H179811  -0.057   0.286   3.874  0.4141  0.3174  0.9298
19440TIP3    H279812   0.080   0.344   3.903  1.4515 -1.3990 -0.3575
19441TIP3   OH279813   6.094   0.483  15.369 -0.4080  0.3951 -0.0027
19441TIP3    H179814   6.070   0.421  15.438  0.0188 -0.9613 -1.0211
19441TIP3    H279815   6.183   0.510  15.392 -0.6211  0.7018  0.4836
19442TIP3   OH279816   6.269   4.926   2.176 -0.0259 -0.3091 -0.6934
19442TIP3    H179817   6.296   4.856   2.237  1.0841  1.3434  0.8320
19442TIP3    H279818   6.229   4.992   2.232 -2.7747 -0.4506 -2.3331
19443TIP3   OH279819   5.499   5.736  14.350  0.2681  0.3828 -0.2703
19443TIP3    H179820   5.440   5.700  14.416 -0.0699 -1.4720 -1.5286
19443TIP3    H279821   5.557   5.664  14.328 -0.9971  0.2202 -3.5633
19444TIP3   OH279822   4.413   3.549  10.694  0.5548  0.0022 -0.0196
19444TIP3    H179823   4.384   3.639  10.681 -1.2457 -0.7326 -1.6270
19444TIP3    H279824   4.497   3.544  10.648  0.2693  0.6655 -0.6413
19445TIP3   OH279825   1.704   2.505  12.709 -0.2075  0.2628  0.2808
19445TIP3    H179826   1.764   2.451  12.761  0.2609  0.3166 -0.1922
19445TIP3    H279827   1.621   2.500  12.756 -0.5058 -1.8171 -0.3362
19446TIP3   OH279828   2.852   2.940   3.729 -0.8443  0.1841  0.0029
19446TIP3    H179829   2.896   2.918   3.647 -1.5684  2.1662 -0.9831
19446TIP3    H279830   2.787   2.870   3.741  0.5688 -1.1865 -0.0347
19447TIP3   OH279831   2.586   3.654   3.039 -0.6473  0.5461  0.0417
19447TIP3    H179832   2.527   3.669   3.113  0.9276 -0.2895  1.5339
19447TIP3    H279833   2.625   3.740   3.022 -0.5361  0.6102  0.6107
19448TIP3   OH279834   2.192   0.316  12.159  0.3971  0.3089 -0.3876
19448TIP3    H179835   2.220   0.315  12.250  0.3816  1.3339 -0.3667
19448TIP3    H279836   2.258   0.263  12.114  0.8034  0.3892  0.1040
19449TIP3   OH279837   6.419   6.446  11.946  0.0176  0.1754 -0.3460
19449TIP3    H179838   6.496   6.395  11.920 -1.3447 -0.4080 -3.8524
19449TIP3    H279839   6.401   6.502  11.870 -1.8202  1.8416  1.2148
19450TIP3   OH279840   0.791   1.985   2.665 -0.5781 -0.8504 -0.4024
19450TIP3    H179841   0.851   1.955   2.733  0.0882 -1.9401 -1.4243
19450TIP3    H279842   0.707   1.993   2.708  0.5481  2.5032  1.5521
19451TIP3   OH279843   0.558   6.561   0.234 -0.0386  0.6172 -0.0042
19451TIP3    H179844   0.568   6.515   0.150 -1.1830  0.5172 -0.1005
19451TIP3    H279845   0.492   6.628   0.217 -4.1616 -2.5064  1.9271
19452TIP3   OH279846   0.152   4.883   0.455  0.0641  0.2711 -0.4241
19452TIP3    H179847   0.173   4.974   0.434 -0.4943  0.3292 -0.7337
19452TIP3    H279848   0.111   4.887   0.542 -1.0627  0.4604 -0.9494
19453TIP3   OH279849   3.098   4.709  11.979  0.1927 -0.2064  0.2100
19453TIP3    H179850   3.013   4.667  11.970  0.2934 -0.7073  1.4079
19453TIP3    H279851   3.079   4.793  12.022  0.2611 -0.1621  0.1537
19454TIP3   OH279852   5.433   0.494   2.974 -0.0766  0.4362  0.0347
19454TIP3    H179853   5.528   0.483   2.971 -0.2964 -1.7807 -1.3495
19454TIP3    H279854   5.402   0.423   3.031 -0.9179  0.9952  0.2840
19455TIP3   OH279855   5.288   6.380   1.921  0.0655  0.2551 -0.4029
19455TIP3    H179856   5.290   6.419   1.834 -2.7228 -2.3389 -1.8028
19455TIP3    H279857   5.335   6.297   1.912 -2.0426 -1.0495 -0.1236
19456TIP3   OH279858   3.795   1.396  14.374  0.1342  0.2482 -0.2303
19456TIP3    H179859   3.733   1.466  14.355 -0.4212 -0.1166  0.2190
19456TIP3    H279860   3.878   1.442  14.389  0.0815  0.7053 -1.2534
19457TIP3   OH279861   0.480   4.873  12.731  0.2128 -0.8198 -0.1302
19457TIP3    H179862   0.424   4.910  12.663  0.0409  1.4585  1.1527
19457TIP3    H279863   0.421   4.856  12.804  1.0979  2.1004  1.4374
19458TIP3   OH279864   1.115   5.647  11.827  0.1270  0.0920  0.3872
19458TIP3    H179865   1.102   5.709  11.755 -4.3422  0.9954  1.6480
19458TIP3    H279866   1.116   5.702  11.906  1.1145 -1.1244  1.2670
19459TIP3   OH279867   0.124   3.714  15.119 -0.7228  0.3420 -0.4937
19459TIP3    H179868   0.144   3.695  15.210  0.8263  0.5264 -0.7661
19459TIP3    H279869   0.047   3.772  15.122 -1.1468 -0.2603  0.6373
19460TIP3   OH279870   6.108   6.746  16.507  0.1925  0.7650 -0.2716
19460TIP3    H179871   6.031   6.794  16.478  0.0439  0.5768 -0.1941
19460TIP3    H279872   6.117   6.768  16.600  0.0654  0.5688 -0.2118
19461TIP3   OH279873   3.998   0.671   3.188  0.5229 -0.0397  0.1894
19461TIP3    H179874   4.066   0.722   3.143  0.3489  0.4801  0.5052
19461TIP3    H279875   3.991   0.590   3.138 -0.0340  0.7391 -1.0416
19462TIP3   OH279876   0.362   1.591  10.873 -0.5327  0.1526 -0.2111
19462TIP3    H179877   0.276   1.604  10.833  0.2427 -0.2899 -2.1177
19462TIP3    H279878   0.414   1.665  10.843 -0.0605  0.0861  0.4215
19463TIP3   OH279879   3.307   5.033  15.510 -0.4455 -0.0864  0.2409
19463TIP3    H179880   3.232   5.065  15.559 -0.0150  1.4069 -0.0106
19463TIP3    H279881   3.275   4.956  15.463 -1.4277 -0.2804  1.1957
19464TIP3   OH279882   1.172   3.588  12.295 -0.4593  0.2231 -0.4389
19464TIP3    H179883   1.098   3.576  12.235 -0.4899  2.5846 -0.9514
19464TIP3    H279884   1.137   3.640  12.367 -0.1498 -1.6827  1.1757
19465TIP3   OH279885   3.543   5.703  12.106  0.4772  0.0275 -0.4274
19465TIP3    H179886   3.518   5.773  12.046 -1.5177  0.1796  0.5050
19465TIP3    H279887   3.589   5.640  12.051 -0.5034  0.5727 -1.9304
19466TIP3   OH279888   2.469   3.056   4.696 -0.2478  0.3448 -0.1562
19466TIP3    H179889   2.431   3.090   4.615  1.3327 -0.0314 -1.0948
19466TIP3    H279890   2.525   3.126   4.728  0.6273 -0.2039 -0.4460
19467TIP3   OH279891   1.648   6.228   3.256  0.6866  0.6050  0.0841
19467TIP3    H179892   1.563   6.248   3.217 -0.4595 -0.9363  1.6704
19467TIP3    H279893   1.629   6.208   3.347  2.5937 -0.8938  0.2271
19468TIP3   OH279894   1.958   1.028   2.331  0.4970 -0.2061  0.1605
19468TIP3    H179895   1.889   1.093   2.346  0.2246 -0.5646  0.5068
19468TIP3    H279896   1.924   0.948   2.372  0.9193 -0.5079 -0.0724
19469TIP3   OH279897   3.400   1.869  15.928  0.2263  0.2869  0.4680
19469TIP3    H179898   3.341   1.818  15.983 -0.9744  1.1562  0.0292
19469TIP3    H279899   3.428   1.808  15.859 -1.0870  0.1710  0.0210
19470TIP3   OH279900   4.485   5.018  15.242 -0.2377  0.1707  0.0014
19470TIP3    H179901   4.431   4.945  15.211  0.6005  0.7573 -3.1877
19470TIP3    H279902   4.573   4.998  15.212  0.3835  1.5989  0.7551
19471TIP3   OH279903   5.077   5.703  11.721  0.3315  0.2794 -0.1880
19471TIP3    H179904   5.105   5.756  11.646 -0.6162 -1.5669 -1.9726
19471TIP3    H279905   4.982   5.714  11.723 -0.1364 -2.5096 -1.7093
19472TIP3   OH279906   1.131   3.446  12.023  0.0963 -0.0413 -0.1769
19472TIP3    H179907   1.100   3.357  12.006 -0.6755  0.2569 -0.3514
19472TIP3    H279908   1.053   3.495  12.047  0.0977  1.1582 -2.3932
19473TIP3   OH279909   6.088   5.790   1.637  0.0982  0.3246 -0.1468
19473TIP3    H179910   6.070   5.698   1.656  0.8698  0.3266  0.6487
19473TIP3    H279911   6.183   5.795   1.628 -0.0032  0.8921 -1.0583
19474TIP3   OH279912   2.521   4.444   1.879  0.4063  0.2328  0.1037
19474TIP3    H179913   2.567   4.526   1.896  3.0389 -1.2580  0.8884
19474TIP3    H279914   2.581   4.376   1.912 -2.3810 -1.9409  1.1448
19475TIP3   OH279915   6.342   4.923  16.495  0.0691 -0.1446 -0.0318
19475TIP3    H179916   6.315   4.840  16.455 -0.4096  0.3182 -0.6938
19475TIP3    H279917   6.261   4.974  16.500  0.4639  0.5001 -0.1573
19476TIP3   OH279918   0.996   6.048   0.599 -1.7550  0.4083  0.1837
19476TIP3    H179919   0.996   5.974   0.659 -1.1099  0.8949  0.8019
19476TIP3    H279920   1.064   6.026   0.535 -0.4486  1.1529  1.2699
19477TIP3   OH279921   3.894   2.160   3.848 -0.3477 -0.4660 -0.2372
19477TIP3    H179922   3.940   2.198   3.773 -1.9758  1.2575 -0.4457
19477TIP3    H279923   3.897   2.227   3.915  0.1364 -1.5655  0.8792
19478TIP3   OH279924   1.386   6.769   4.890  0.2972 -0.3622  0.2992
19478TIP3    H179925   1.460   6.806   4.938  0.6867 -0.1027 -0.4842
19478TIP3    H279926   1.310   6.788   4.945  0.7368 -0.1079  0.8300
19479TIP3   OH279927   6.679   5.090   0.544 -0.1365 -0.3111 -0.5630
19479TIP3    H179928   6.621   5.062   0.615  1.1277 -0.3467  0.5020
19479TIP3    H279929   6.667   5.185   0.539 -1.2964 -0.4771 -1.3091
19480TIP3   OH279930   1.805   4.140   3.487 -0.0770 -0.0119 -0.2861
19480TIP3    H179931   1.861   4.187   3.549  1.1708 -1.9129  0.1168
19480TIP3    H279932   1.718   4.178   3.500  0.3955  0.5154  1.7538
19481TIP3   OH279933   1.679   6.136  10.319  0.1051  0.0967 -0.2204
19481TIP3    H179934   1.659   6.042  10.316  4.2006 -0.9557 -0.7827
19481TIP3    H279935   1.596   6.178  10.340 -1.6722 -3.7424  1.2901
19482TIP3   OH279936   3.672   2.483  12.596  0.3078  0.4484 -0.0312
19482TIP3    H179937   3.586   2.523  12.610 -0.1620 -0.4324 -0.3379
19482TIP3    H279938   3.717   2.544  12.538  0.8560  2.1954  2.0941
19483TIP3   OH279939   1.147   0.195  12.347 -0.4542  0.4423 -0.4425
19483TIP3    H179940   1.239   0.208  12.324  0.2065 -1.5662  0.8348
19483TIP3    H279941   1.133   0.252  12.423 -0.6521  1.6586 -1.3511
19484TIP3   OH279942   0.179   3.767  13.225  0.4359 -0.3904 -0.2878
19484TIP3    H179943   0.246   3.835  13.224 -0.6246  0.7254  1.0038
19484TIP3    H279944   0.164   3.749  13.318 -2.8452  1.2772 -0.3512
19485TIP3   OH279945   1.095   6.644  11.376  0.1737  0.2324 -0.0890
19485TIP3    H179946   1.100   6.739  11.383 -3.5921  0.5452  0.1990
19485TIP3    H279947   1.117   6.625  11.285 -0.7163  1.5696 -0.6018
19486TIP3   OH279948   2.075   2.486   6.537  0.4053 -0.4786  0.1972
19486TIP3    H179949   2.070   2.574   6.573  1.3383 -0.2972 -0.0910
19486TIP3    H279950   2.095   2.430   6.612  0.9671 -0.2898  0.1879
19487TIP3   OH279951   5.457   5.145  11.896 -0.2621  0.0365  0.5493
19487TIP3    H179952   5.409   5.063  11.906 -2.8141  1.2873 -0.4184
19487TIP3    H279953   5.446   5.168  11.804  2.5208  0.3138  0.2024
19488TIP3   OH279954   3.011   5.499  14.217 -0.2849  0.1498 -0.4950
19488TIP3    H179955   3.060   5.557  14.275 -0.2478  0.2050 -0.5805
19488TIP3    H279956   2.919   5.513  14.240 -0.2270 -0.4321  0.1074
19489TIP3   OH279957   3.261   3.244   5.675 -0.3350 -0.3595  0.7093
19489TIP3    H179958   3.259   3.167   5.619  0.0602 -1.3866  2.0406
19489TIP3    H279959   3.177   3.243   5.721 -0.3737  0.0637  0.6490
19490TIP3   OH279960   4.068   2.736   4.833 -0.5997  0.0332 -0.3917
19490TIP3    H179961   4.152   2.781   4.843 -0.6381  0.1255 -0.5014
19490TIP3    H279962   4.051   2.699   4.920  1.1009 -2.6944 -1.0719
19491TIP3   OH279963   0.887   1.225  13.030 -0.2572  0.4938  0.2256
19491TIP3    H179964   0.861   1.239  12.939 -0.0243 -0.4154  0.0036
19491TIP3    H279965   0.918   1.310  13.060 -1.5637  1.1302 -0.1303
19492TIP3   OH279966   6.153   1.493  13.721 -0.1566 -0.2800  0.4289
19492TIP3    H179967   6.142   1.453  13.635 -3.0708  1.0550  0.0372
19492TIP3    H279968   6.164   1.420  13.781 -0.6774 -1.4058 -0.7973
19493TIP3   OH279969   2.669   5.435  16.329 -0.0921  0.2357 -0.2411
19493TIP3    H179970   2.652   5.404  16.418 -0.2643 -0.9260 -0.6556
19493TIP3    H279971   2.584   5.470  16.299 -0.2944 -0.2936 -0.2935
19494TIP3   OH279972   0.380   2.315  16.098  0.2116  0.2653 -0.5115
19494TIP3    H179973   0.399   2.375  16.026 -0.6052 -0.0302 -0.9893
19494TIP3    H279974   0.456   2.258  16.103  0.9970  1.3197 -0.0573
19495TIP3   OH279975   3.530   3.959  14.524 -0.2043 -0.4465  0.1565
19495TIP3    H179976   3.570   3.972  14.439 -0.8344  0.4996 -0.0074
19495TIP3    H279977   3.585   3.894  14.567  1.0274  0.2212 -0.3683
19496TIP3   OH279978   3.167   6.188  14.785 -0.2185 -0.1805 -0.6634
19496TIP3    H179979   3.143   6.115  14.842  0.8777 -0.5807 -0.6839
19496TIP3    H279980   3.090   6.245  14.785 -0.7320 -0.8479  0.1306
19497TIP3   OH279981   4.601   1.559   0.850 -0.3362  0.3205 -0.0551
19497TIP3    H179982   4.637   1.490   0.795 -0.5869 -1.4295  1.8908
19497TIP3    H279983   4.562   1.620   0.787  1.6330 -0.2128 -1.9452
19498TIP3   OH279984   1.817   5.301   5.040 -0.1737 -0.0284  0.8869
19498TIP3    H179985   1.840   5.250   4.963 -1.1859  0.4665  0.2332
19498TIP3    H279986   1.886   5.281   5.104 -0.2922 -1.8238  0.4970
19499TIP3   OH279987   6.167   2.974  16.004  0.0891  0.4961 -0.2065
19499TIP3    H179988   6.234   2.942  16.064  1.5139  0.7176 -1.5939
19499TIP3    H279989   6.096   2.910  16.011  0.4081  0.2753  1.3283
19500TIP3   OH279990   4.968   1.338  13.464  0.6014 -0.7158  0.0010
19500TIP3    H179991   4.945   1.389  13.386 -0.1108 -0.7217  0.2079
19500TIP3    H279992   4.938   1.249  13.444  1.3658 -0.9522 -0.1421
19501TIP3   OH279993   2.562   1.403   1.763  0.3966 -0.6261 -0.1100
19501TIP3    H179994   2.648   1.367   1.741  1.1132  0.6492  0.5189
19501TIP3    H279995   2.508   1.385   1.686  2.0002  1.0089 -1.7053
19502TIP3   OH279996   4.148   4.755   0.725  0.2744  0.5636 -0.1611
19502TIP3    H179997   4.162   4.710   0.643 -0.6324  0.5695 -0.3347
19502TIP3    H279998   4.235   4.771   0.760  0.6305 -0.5863 -0.4918
19503TIP3   OH279999   0.186   5.366  15.073  0.0353  0.0825 -0.0744
19503TIP3    H180000   0.117   5.329  15.017 -0.3218  2.2243 -1.1462
19503TIP3    H280001   0.265   5.365  15.019 -0.0668  1.1760 -0.2732
19504TIP3   OH280002   5.118   2.633   2.081 -0.4089 -0.3902 -0.3836
19504TIP3    H180003   5.082   2.713   2.042  0.5871 -0.0237 -0.5811
19504TIP3    H280004   5.085   2.633   2.171 -0.5946  0.1318 -0.4461
19505TIP3   OH280005   2.414   6.112   3.771 -0.3132  0.2323 -0.1681
19505TIP3    H180006   2.499   6.079   3.740 -0.1468  1.2991 -0.9386
19505TIP3    H280007   2.366   6.034   3.798  0.7778 -0.4275 -0.0576
19506TIP3   OH280008   3.658   6.350  13.159  0.4493 -0.6194  0.0092
19506TIP3    H180009   3.602   6.275  13.179  1.6511 -1.1651  1.4774
19506TIP3    H280010   3.718   6.356  13.234  2.6188 -0.2921 -1.6704
19507TIP3   OH280011   5.723   6.271   5.883 -0.4334  0.1749  0.4313
19507TIP3    H180012   5.769   6.346   5.920  2.7912 -2.3711  2.1232
19507TIP3    H280013   5.648   6.258   5.940  0.6296  0.4301  1.9498
19508TIP3   OH280014   4.019   5.273   0.109 -0.1178 -0.0216 -0.1533
19508TIP3    H180015   4.081   5.206   0.079 -0.0401  0.5201 -1.2561
19508TIP3    H280016   3.967   5.294   0.031 -1.2917 -0.0307  0.6059
19509TIP3   OH280017   2.002   0.465  12.727  0.0413  0.0075  0.4318
19509TIP3    H180018   2.089   0.427  12.716 -0.4568 -0.5513 -2.5092
19509TIP3    H280019   2.018   0.558  12.744  1.3028  0.3321 -1.9990
19510TIP3   OH280020   4.220   5.780   4.404  0.1376 -0.2470 -0.0411
19510TIP3    H180021   4.233   5.686   4.393  0.4096 -0.8364  3.8872
19510TIP3    H280022   4.153   5.787   4.472  0.3607  2.4368  0.0087
19511TIP3   OH280023   3.556   4.141   0.674 -0.2657  0.2448  0.0108
19511TIP3    H180024   3.616   4.212   0.652  2.0013 -1.3608  0.6803
19511TIP3    H280025   3.484   4.150   0.612  2.1671  0.4332 -3.0177
19512TIP3   OH280026   5.721   5.527  13.009 -0.4615  0.6682  0.4851
19512TIP3    H180027   5.686   5.511  13.097  0.1369  1.2529  0.8463
19512TIP3    H280028   5.691   5.615  12.986 -1.3948  0.1565 -0.2986
19513TIP3   OH280029   3.634   0.846   3.774 -0.2602 -0.1381  0.2493
19513TIP3    H180030   3.658   0.933   3.743 -1.2432 -0.5288 -1.7614
19513TIP3    H280031   3.649   0.789   3.699 -0.0725 -1.6450  1.3881
19514TIP3   OH280032   0.854   3.708  17.086  0.3758  0.2582  0.2148
19514TIP3    H180033   0.895   3.794  17.095  0.6821  0.1528 -0.1526
19514TIP3    H280034   0.765   3.726  17.055  0.1783  0.4827  0.8921
19515TIP3   OH280035   2.265   5.675   4.386  0.4907 -0.0648  0.2134
19515TIP3    H180036   2.239   5.728   4.311  0.1199 -1.4574 -0.6859
19515TIP3    H280037   2.184   5.660   4.434  0.5422 -0.0914  0.2917
19516TIP3   OH280038   0.428   2.833  11.427  0.0418  0.7618  0.5040
19516TIP3    H180039   0.362   2.887  11.471 -0.2014  1.1334 -0.3045
19516TIP3    H280040   0.385   2.803  11.347  0.5601  0.2823  0.4021
19517TIP3   OH280041   3.512   2.867   5.391 -0.0670  0.1480  0.4845
19517TIP3    H180042   3.594   2.848   5.436 -0.7318 -1.6324  1.0487
19517TIP3    H280043   3.475   2.781   5.371 -1.8085  0.8871  0.2846
19518TIP3   OH280044   0.656   4.857   4.259 -0.1034  0.4401  0.2724
19518TIP3    H180045   0.585   4.794   4.248  0.8382 -0.1445 -4.3026
19518TIP3    H280046   0.622   4.938   4.222  1.0923  0.5138 -0.7313
19519TIP3   OH280047   3.391   1.376   4.209 -0.0941 -0.3943  0.1130
19519TIP3    H180048   3.416   1.449   4.267 -1.4157  1.5909 -1.6809
19519TIP3    H280049   3.297   1.387   4.196 -0.0973 -1.7262 -1.1757
19520TIP3   OH280050   1.572   5.953  15.747  0.0779 -0.6301  0.3550
19520TIP3    H180051   1.549   5.950  15.654  0.2478 -1.3249  0.3288
19520TIP3    H280052   1.488   5.943  15.793  0.0903 -1.1878  0.2668
19521TIP3   OH280053   6.763   0.550  11.799 -0.1225 -0.4942 -0.5744
19521TIP3    H180054   6.742   0.591  11.716  1.6058 -0.4517 -1.0376
19521TIP3    H280055   6.748   0.618  11.864  0.2435  0.0494 -1.0554
19522TIP3   OH280056   2.742   2.596  16.696  0.1924 -0.0042 -0.1807
19522TIP3    H180057   2.789   2.593  16.779 -0.5804 -1.3357  0.2380
19522TIP3    H280058   2.706   2.685  16.692  0.7608  0.2697  0.5938
19523TIP3   OH280059   5.735   2.610  14.480 -0.0738  0.3350  0.2891
19523TIP3    H180060   5.756   2.519  14.458 -0.2825  0.3412  0.0493
19523TIP3    H280061   5.816   2.647  14.513 -0.0679 -0.0297  0.6897
19524TIP3   OH280062   5.708   4.326  14.576  0.4594  0.2148  0.2505
19524TIP3    H180063   5.668   4.380  14.508  0.4240 -0.3856 -0.2206
19524TIP3    H280064   5.717   4.384  14.651  0.5252  0.9040 -0.2760
19525TIP3   OH280065   0.229   2.213   3.252  0.3459  0.0337 -0.2421
19525TIP3    H180066   0.257   2.173   3.334  0.2104  0.2116 -0.1092
19525TIP3    H280067   0.228   2.307   3.270  1.4328  0.1662 -0.7796
19526TIP3   OH280068   4.772   3.907  15.882  0.2204  0.4053  0.4103
19526TIP3    H180069   4.838   3.977  15.873 -0.0814  0.7057  0.5265
19526TIP3    H280070   4.778   3.881  15.974 -0.0550  0.6647  0.5035
19527TIP3   OH280071   5.133   3.741  14.395  0.2540  0.5756 -0.4758
19527TIP3    H180072   5.150   3.755  14.488 -1.8213  1.8832 -0.2240
19527TIP3    H280073   5.135   3.829  14.357 -0.4119  0.2212 -1.3675
19528TIP3   OH280074   6.131   4.680   3.779  0.2691 -0.0656 -0.0177
19528TIP3    H180075   6.111   4.747   3.714  0.3655 -1.3772 -1.4658
19528TIP3    H280076   6.048   4.632   3.790  1.2358 -2.6147 -2.5736
19529TIP3   OH280077   4.113   4.343  15.379 -0.0448 -0.1283  0.1516
19529TIP3    H180078   4.183   4.278  15.368 -1.1464 -1.7969  2.2311
19529TIP3    H280079   4.111   4.360  15.473 -1.2684  1.2795 -0.0868
19530TIP3   OH280080   3.291   4.229  11.841 -0.1627 -0.0777 -0.1742
19530TIP3    H180081   3.217   4.177  11.872  1.1943 -0.8662  2.0358
19530TIP3    H280082   3.276   4.317  11.875 -0.9408  0.2447 -1.2952
19531TIP3   OH280083   0.147   6.305   1.151  0.2040  0.3528 -0.5735
19531TIP3    H180084   0.085   6.375   1.130 -0.4923  0.3549  1.2658
19531TIP3    H280085   0.229   6.350   1.169 -0.0348  0.6336 -0.1773
19532TIP3   OH280086   2.569   5.951  13.071  0.7314 -0.5035  0.0050
19532TIP3    H180087   2.602   5.909  13.150 -0.7066  2.7072  2.5874
19532TIP3    H280088   2.646   5.991  13.031  1.4399 -1.9478 -0.1170
19533TIP3   OH280089   5.853   0.075  12.059 -0.1617  0.1280 -0.0633
19533TIP3    H180090   5.799  -0.001  12.079 -1.4021  0.3023 -2.3346
19533TIP3    H280091   5.810   0.115  11.983  3.0656  0.3583 -1.9446
19534TIP3   OH280092   6.473   0.238  11.929  0.1470 -0.3804 -0.1233
19534TIP3    H180093   6.494   0.223  12.022  0.8289  0.5505 -0.1127
19534TIP3    H280094   6.516   0.166  11.883 -1.0717 -1.4566  0.3482
19535TIP3   OH280095   0.379   1.082  14.624  0.3586  0.0761 -0.2351
19535TIP3    H180096   0.354   1.172  14.646 -1.5530 -0.4514 -0.0878
19535TIP3    H280097   0.450   1.061  14.684 -0.3428  0.9097  0.9108
19536TIP3   OH280098   1.745   4.230  12.237 -0.0505  0.2508 -0.7607
19536TIP3    H180099   1.658   4.243  12.200 -0.7402  0.2839  0.7881
19536TIP3    H280100   1.768   4.315  12.273  1.7054  0.9246 -3.2330
19537TIP3   OH280101   3.708   5.010   5.341  0.4326  0.2867 -0.4078
19537TIP3    H180102   3.689   5.075   5.274  0.1529  0.5654 -0.0644
19537TIP3    H280103   3.652   4.936   5.319 -1.6820  1.3571  0.9931
19538TIP3   OH280104   6.859   3.075  12.156 -0.1008 -0.6183  0.3844
19538TIP3    H180105   6.822   3.149  12.202  0.4787 -0.9136  1.3569
19538TIP3    H280106   6.808   3.000  12.186  1.0562 -0.9881  1.5293
19539TIP3   OH280107   3.871   4.100   0.477  0.0505  0.3143  0.2915
19539TIP3    H180108   3.932   4.152   0.529  0.3135 -0.9751  1.3172
19539TIP3    H280109   3.923   4.026   0.446 -0.3997  0.4672 -0.8554
19540TIP3   OH280110   2.823   0.924  10.418  0.1691 -0.9887  0.2217
19540TIP3    H180111   2.845   0.893  10.506  0.3496  1.7541  1.2592
19540TIP3    H280112   2.791   0.847  10.372  0.6360 -2.6370  2.4978
19541TIP3   OH280113   0.249   5.694  11.323  0.1456  0.0386 -0.1543
19541TIP3    H180114   0.160   5.674  11.294  0.5360 -0.7413 -0.8740
19541TIP3    H280115   0.245   5.785  11.353 -0.7628  0.1910 -0.7071
19542TIP3   OH280116   2.124   6.259   5.983  0.1530  0.0824  0.2645
19542TIP3    H180117   2.091   6.340   6.022  0.2258  0.8497 -1.1850
19542TIP3    H280118   2.215   6.278   5.962  0.0931 -0.2701 -0.3439
19543TIP3   OH280119   2.527   1.471  11.180  0.4122 -0.3533 -0.0263
19543TIP3    H180120   2.598   1.495  11.120  0.8392 -1.3244  0.0841
19543TIP3    H280121   2.450   1.515  11.144  0.8324 -0.2539 -0.8216
19544TIP3   OH280122   3.997   2.439   5.196  0.1187  0.2426 -0.9408
19544TIP3    H180123   4.051   2.361   5.207  1.2035  1.1552  0.5569
19544TIP3    H280124   3.933   2.415   5.129  1.4331 -1.3803 -1.6758
19545TIP3   OH280125   6.545   2.205   4.948 -0.0587  0.1102  0.5458
19545TIP3    H180126   6.545   2.266   4.874 -0.5214 -0.0813  0.3875
19545TIP3    H280127   6.457   2.211   4.985 -0.2567 -0.7903  0.2491
19546TIP3   OH280128   2.567   2.628  12.537 -0.3310 -0.0008  0.0498
19546TIP3    H180129   2.633   2.644  12.470 -0.4060 -0.2111 -0.0755
19546TIP3    H280130   2.487   2.667  12.502 -0.1470  0.7557  0.4502
19547TIP3   OH280131   1.158   1.520   1.392  0.0449 -0.4399 -0.2056
19547TIP3    H180132   1.095   1.540   1.461 -0.5294 -0.7945 -0.6145
19547TIP3    H280133   1.180   1.605   1.354 -1.8495 -0.4556 -1.4765
19548TIP3   OH280134   2.699   0.167  14.047  0.4130 -0.1739  0.3586
19548TIP3    H180135   2.612   0.188  14.013 -0.8596  0.4026  3.6190
19548TIP3    H280136   2.716   0.235  14.113  2.8457 -0.9617  0.6568
19549TIP3   OH280137   3.689   2.900  15.843  0.2174  0.4370 -0.0960
19549TIP3    H180138   3.772   2.853  15.841  1.2870  1.9479  2.7919
19549TIP3    H280139   3.630   2.844  15.894  0.2418  0.4139 -0.0937
19550TIP3   OH280140   6.205   0.546  14.788  0.1928  0.8033 -0.6145
19550TIP3    H180141   6.124   0.495  14.787  0.0290  1.0184  0.8198
19550TIP3    H280142   6.180   0.631  14.751 -0.7878  1.6265  1.7726
19551TIP3   OH280143   6.055   5.265   3.556 -0.3987 -0.8120 -0.3405
19551TIP3    H180144   6.089   5.183   3.521 -0.9109 -0.7463 -0.9988
19551TIP3    H280145   5.976   5.282   3.506 -0.6183 -0.2174  0.1967
19552TIP3   OH280146   6.178   2.053  15.579  0.0741  0.5816  0.3309
19552TIP3    H180147   6.099   2.103  15.558 -0.3939 -0.0741  0.4864
19552TIP3    H280148   6.244   2.120  15.599 -0.7184  1.1438  1.1998
19553TIP3   OH280149   1.981   1.395  14.655 -0.2773  0.3092  0.2252
19553TIP3    H180150   2.010   1.405  14.564  0.1371 -0.2664  0.2920
19553TIP3    H280151   1.887   1.412  14.651 -0.4323 -0.6489 -0.4767
19554TIP3   OH280152   4.833   6.089   1.629 -0.5390 -0.1279 -0.3862
19554TIP3    H180153   4.812   6.159   1.689 -1.2973 -1.2106  0.6534
19554TIP3    H280154   4.751   6.071   1.582 -0.7044 -1.1428  0.2588
19555TIP3   OH280155   5.555   0.552  10.909 -1.2818  0.0726 -0.5670
19555TIP3    H180156   5.540   0.509  10.825 -1.0019  0.4806 -0.8230
19555TIP3    H280157   5.625   0.614  10.893 -2.6358  1.6766 -0.5597
19556TIP3   OH280158   4.482   3.986   5.571  0.1187 -0.4471 -0.0301
19556TIP3    H180159   4.389   3.986   5.549 -0.1208  0.1980  0.9399
19556TIP3    H280160   4.521   3.924   5.509 -0.7170  0.3899 -1.4392
19557TIP3   OH280161   3.121   1.423  16.136 -0.0920  0.0210  0.0446
19557TIP3    H180162   3.074   1.446  16.216 -0.8608 -1.1655 -0.0366
19557TIP3    H280163   3.104   1.329  16.125  1.1728 -0.1391 -0.7392
19558TIP3   OH280164   5.703   3.229   5.816 -0.2170 -0.2734 -0.2219
19558TIP3    H180165   5.711   3.322   5.796  1.4447 -0.5258 -0.9637
19558TIP3    H280166   5.779   3.189   5.773  0.1378 -1.7231  1.6011
19559TIP3   OH280167   3.053   3.351   1.936 -0.4883 -0.4965 -0.5196
19559TIP3    H180168   2.982   3.355   2.000  0.0933  0.2827  0.0968
19559TIP3    H280169   3.049   3.435   1.889  0.8911  0.1840  0.5019
19560TIP3   OH280170   4.323   1.997  16.846  0.2053  0.1596  0.1175
19560TIP3    H180171   4.364   1.911  16.856  0.5596  0.3901  0.7050
19560TIP3    H280172   4.268   1.989  16.767  0.2498 -0.5932  0.1578
19561TIP3   OH280173   0.690   3.613   5.745  0.3471 -0.3843 -0.0649
19561TIP3    H180174   0.625   3.613   5.676 -0.5058 -0.2254  0.7202
19561TIP3    H280175   0.640   3.621   5.826  1.4607  3.0140  0.4417
19562TIP3   OH280176   2.641   3.358   4.035  0.2869 -0.5773  0.1128
19562TIP3    H180177   2.591   3.432   4.069  0.8791 -0.0443 -0.1617
19562TIP3    H280178   2.722   3.359   4.084  0.5061 -0.7379 -0.2412
19563TIP3   OH280179   0.512   5.201   4.625 -0.3222  0.6027 -0.2981
19563TIP3    H180180   0.457   5.140   4.673  2.2997 -0.7650  1.2177
19563TIP3    H280181   0.571   5.145   4.573  2.0958  1.7207  1.0559
19564TIP3   OH280182   4.066   0.657  13.464 -0.0149  0.6081 -0.5198
19564TIP3    H180183   4.087   0.691  13.551  1.3381  1.5647 -1.1792
19564TIP3    H280184   3.978   0.691  13.446 -1.4800 -1.8107  1.4998
19565TIP3   OH280185   2.936   3.519   1.458  0.7848  0.1674 -0.2480
19565TIP3    H180186   3.000   3.518   1.530  0.1776  0.3917  0.3056
19565TIP3    H280187   2.904   3.429   1.453  1.9858 -0.2306 -1.3128
19566TIP3   OH280188   0.892   2.362   2.110 -0.3698 -0.4393  0.3074
19566TIP3    H180189   0.973   2.354   2.161 -0.2266 -1.0202  0.0066
19566TIP3    H280190   0.871   2.455   2.113  0.9242 -0.0875 -0.5375
19567TIP3   OH280191   1.113   2.047  14.473 -0.6802  0.1392  0.1989
19567TIP3    H180192   1.145   1.958  14.485 -0.8343  0.0338 -0.1618
19567TIP3    H280193   1.102   2.056  14.378  0.5552  0.9560  0.1096
19568TIP3   OH280194   1.434   2.562   5.687 -0.4631  0.3879  0.4523
19568TIP3    H180195   1.526   2.587   5.682 -0.1194 -0.7639  0.8268
19568TIP3    H280196   1.425   2.493   5.620 -0.2597 -1.8044  2.5595
19569TIP3   OH280197   4.570   2.378  13.335 -0.0380  0.0418 -0.0097
19569TIP3    H180198   4.645   2.423  13.376  0.9911 -0.8989 -0.8087
19569TIP3    H280199   4.502   2.381  13.402  0.8574  0.5261  0.9223
19570TIP3   OH280200   5.500   3.801  10.795  0.8004  0.4153  0.4743
19570TIP3    H180201   5.489   3.895  10.785  1.9391  0.6372  1.1594
19570TIP3    H280202   5.592   3.785  10.775 -0.0256 -1.0365 -2.8325
19571TIP3   OH280203   3.821   6.003  11.649 -0.0174 -0.2415  0.4025
19571TIP3    H180204   3.737   6.021  11.691 -1.6428 -1.7300 -1.9594
19571TIP3    H280205   3.832   6.075  11.586 -0.1288 -0.6377 -0.0805
19572TIP3   OH280206   5.151   0.444  11.648  0.1314  0.5393 -0.3175
19572TIP3    H180207   5.174   0.427  11.557  0.6822  0.4299 -0.1620
19572TIP3    H280208   5.170   0.361  11.693  1.4504  1.0996  0.1925
19573TIP3   OH280209   2.449   0.758  15.576 -0.5846 -0.1911 -0.4767
19573TIP3    H180210   2.512   0.827  15.554 -1.0887  0.6065  0.5056
19573TIP3    H280211   2.485   0.717  15.654  1.2558 -3.0893 -2.6619
19574TIP3   OH280212   2.206   3.328  17.048 -0.0731  0.3878  0.5431
19574TIP3    H180213   2.161   3.350  16.966 -0.7526 -1.6228  0.3268
19574TIP3    H280214   2.223   3.412  17.090 -0.6969  1.3928 -1.1461
19575TIP3   OH280215   6.096   2.964   5.946 -0.2492  0.2420  0.3344
19575TIP3    H180216   6.158   2.894   5.963  0.5633  0.6606 -0.7650
19575TIP3    H280217   6.014   2.934   5.985  0.4955 -0.5706  1.3255
19576TIP3   OH280218   5.588   0.280  12.935  0.4335  0.5242  0.2848
19576TIP3    H180219   5.642   0.217  12.886 -0.2446  0.1739 -0.0248
19576TIP3    H280220   5.573   0.237  13.020  0.9462  0.7885  0.5172
19577TIP3   OH280221   5.481   4.343  17.092  0.0578  0.2624 -0.1724
19577TIP3    H180222   5.389   4.332  17.067  0.1295 -0.3956 -0.1482
19577TIP3    H280223   5.522   4.260  17.069  0.0460 -0.5968  2.5814
19578TIP3   OH280224   5.911   0.683   2.636 -0.1067  0.0155  0.5486
19578TIP3    H180225   5.948   0.619   2.576  1.8128 -0.5319  2.2035
19578TIP3    H280226   5.938   0.768   2.602 -1.2817 -0.1032 -0.7611
19579TIP3   OH280227   2.549   1.603   1.962 -0.7792  0.7132  0.4039
19579TIP3    H180228   2.469   1.564   1.997  0.7232 -1.9754  1.1188
19579TIP3    H280229   2.560   1.562   1.876  1.0540 -0.9605  1.3473
19580TIP3   OH280230   6.248   2.727   5.974 -0.2926  0.4609 -0.4732
19580TIP3    H180231   6.331   2.704   5.932  1.1904  0.0439  2.4293
19580TIP3    H280232   6.205   2.643   5.991  0.1751  0.4540  0.7615
19581TIP3   OH280233   2.068   0.710  12.643  0.1934  0.0657  0.0656
19581TIP3    H180234   2.131   0.781  12.633 -0.3853  0.6721  0.6338
19581TIP3    H280235   1.982   0.752  12.631 -0.0862 -0.8994 -1.5520
19582TIP3   OH280236   0.964   1.362  16.671 -0.4396  0.4225 -0.4122
19582TIP3    H180237   0.870   1.380  16.666 -0.7968 -1.2984 -0.4559
19582TIP3    H280238   1.001   1.408  16.596 -1.1446  1.5783 -0.0879
19583TIP3   OH280239   1.316   4.549  11.661 -0.5733  0.4327  0.3256
19583TIP3    H180240   1.397   4.508  11.631  0.1591  2.2460 -0.3158
19583TIP3    H280241   1.247   4.505  11.611  0.1446 -0.1726 -0.1612
19584TIP3   OH280242   2.725   3.003   0.533  0.4178 -0.1618 -0.4038
19584TIP3    H180243   2.673   3.024   0.455 -0.2167  0.0860  0.0774
19584TIP3    H280244   2.741   3.088   0.574  1.3150 -0.2233 -0.6113
19585TIP3   OH280245   1.889   4.037   0.964  0.0344 -0.2287  0.1055
19585TIP3    H180246   1.819   4.101   0.966 -0.1947 -0.4685 -0.1299
19585TIP3    H280247   1.959   4.075   1.017 -0.4009 -0.1382  0.6200
19586TIP3   OH280248   1.457   5.697  15.068  0.4611  0.4297 -0.0004
19586TIP3    H180249   1.373   5.653  15.056  0.6090 -0.3827  1.6656
19586TIP3    H280250   1.436   5.774  15.120  0.9277 -0.6758  1.9095
19587TIP3   OH280251   1.428   6.085  11.399  0.3335 -0.1999  0.1186
19587TIP3    H180252   1.420   6.035  11.480 -2.6232  0.0786  0.1143
19587TIP3    H280253   1.402   6.174  11.424  3.3203  0.9148 -0.3572
19588TIP3   OH280254   6.164   0.073   0.262  0.1461  0.0136  0.2554
19588TIP3    H180255   6.130   0.105   0.346  0.2555  2.6798 -0.6180
19588TIP3    H280256   6.136   0.139   0.199  0.7623 -1.5140 -1.6944
19589TIP3   OH280257   2.593   5.383  14.248 -0.2055 -0.1578  0.0625
19589TIP3    H180258   2.653   5.310  14.231 -1.1342 -0.4562 -2.2674
19589TIP3    H280259   2.604   5.440  14.172 -3.2170 -0.5017 -0.7349
19590TIP3   OH280260   5.984   3.092   0.189  0.0877  0.4625  0.1296
19590TIP3    H180261   5.970   3.174   0.141  1.6821  0.0964 -1.0369
19590TIP3    H280262   5.901   3.077   0.235 -0.8255  1.8429 -0.9739
19591TIP3   OH280263   2.391   6.351   1.903  0.1555  0.2157 -0.2423
19591TIP3    H180264   2.320   6.307   1.855 -0.2310 -0.1493  0.6362
19591TIP3    H280265   2.346   6.395   1.975  0.7573  0.5536 -0.0712
19592TIP3   OH280266   4.268   5.042   2.812 -0.0860 -0.0975 -0.2609
19592TIP3    H180267   4.262   5.026   2.906 -1.1903  1.1165 -0.0870
19592TIP3    H280268   4.288   4.957   2.774  0.9915 -0.4999  1.1167
19593TIP3   OH280269   5.366   6.632   3.035  0.5787 -0.1143  0.4698
19593TIP3    H180270   5.424   6.701   3.065  1.8536 -1.5924  1.5714
19593TIP3    H280271   5.375   6.633   2.939  0.5150  1.2530  0.4581
19594TIP3   OH280272   2.113   3.241   1.386  0.1938 -0.7919  0.2116
19594TIP3    H180273   2.020   3.224   1.371  0.3667 -0.1278 -2.0412
19594TIP3    H280274   2.118   3.265   1.478 -1.9288 -0.5286  0.3270
19595TIP3   OH280275   0.188   0.467  15.991  0.1300  0.3281 -0.2646
19595TIP3    H180276   0.254   0.471  16.060 -0.0491  0.1907 -0.0863
19595TIP3    H280277   0.143   0.551  15.996 -2.3838 -1.0067  2.2637
19596TIP3   OH280278   0.829   3.703  14.933 -0.1322  0.0166  0.8298
19596TIP3    H180279   0.779   3.712  15.014 -2.3291 -0.7624 -0.3545
19596TIP3    H280280   0.775   3.745  14.866  1.6204  0.6386 -0.2756
19597TIP3   OH280281   2.121   4.272  14.187  0.0178 -0.2129  0.4438
19597TIP3    H180282   2.169   4.196  14.152 -0.7826 -1.2148  1.4391
19597TIP3    H280283   2.046   4.282  14.128  0.7206  0.5330 -0.3468
19598TIP3   OH280284   1.392   2.846   3.952 -0.0653  0.5611  0.3548
19598TIP3    H180285   1.479   2.809   3.934 -0.9687 -0.8599 -1.5488
19598TIP3    H280286   1.361   2.876   3.866 -2.4222 -1.3187  0.4355
19599TIP3   OH280287   3.061   2.357   6.522  0.2478 -0.1041  0.1326
19599TIP3    H180288   3.031   2.306   6.597 -1.9625  0.0363 -0.5743
19599TIP3    H280289   3.036   2.447   6.542 -1.1688 -0.1828 -1.0876
19600TIP3   OH280290   2.564   2.797  13.023  0.7592  0.1407 -0.2856
19600TIP3    H180291   2.612   2.860  13.077 -0.2070 -0.8663  1.8649
19600TIP3    H280292   2.620   2.720  13.022  1.5210  0.6821 -2.1506
19601TIP3   OH280293   1.715   2.553  14.012 -0.3645 -0.0301 -0.2157
19601TIP3    H180294   1.653   2.558  14.085  0.3152 -1.7044  0.5271
19601TIP3    H280295   1.668   2.588  13.937 -1.5045  0.5884  0.7611
19602TIP3   OH280296   1.171   4.292  15.177  0.2471  0.3962  0.1892
19602TIP3    H180297   1.253   4.287  15.226  0.1113  1.7146  0.5885
19602TIP3    H280298   1.108   4.327  15.239 -0.4004  0.2587 -0.3772
19603TIP3   OH280299   0.792   5.827  14.989 -0.4926  0.3999  0.1819
19603TIP3    H180300   0.748   5.763  15.044 -0.0608 -0.4087 -0.3851
19603TIP3    H280301   0.786   5.910  15.037 -1.8378  0.1236  0.5095
19604TIP3   OH280302   0.414   0.532   3.913 -0.0340  0.0101 -0.4183
19604TIP3    H180303   0.451   0.529   4.001  1.1279  2.9234 -0.7123
19604TIP3    H280304   0.479   0.489   3.858  0.0493 -0.2740 -0.1037
19605TIP3   OH280305   6.299   1.677  13.844 -0.7834 -0.3183  0.4150
19605TIP3    H180306   6.248   1.619  13.789 -2.0752  1.6498 -0.5954
19605TIP3    H280307   6.238   1.705  13.912  0.1053 -0.8707  1.4771
19606TIP3   OH280308   2.000   2.762  10.860  0.0256 -0.1243  0.7913
19606TIP3    H180309   2.041   2.678  10.839  1.4108  0.6257  0.3777
19606TIP3    H280310   2.073   2.823  10.866 -0.3822  0.2264  5.7671
19607TIP3   OH280311   2.258   0.391  11.371 -0.4570  0.0079 -0.2726
19607TIP3    H180312   2.275   0.416  11.280  0.2569  0.0227 -0.1410
19607TIP3    H280313   2.191   0.323  11.365 -2.8814  2.2510 -0.6251
19608TIP3   OH280314   5.886   0.419  14.363 -0.4049 -0.0370 -0.0821
19608TIP3    H180315   5.790   0.424  14.373 -0.5260 -0.7331 -0.8052
19608TIP3    H280316   5.918   0.497  14.408 -1.2017 -0.6347  1.6030
19609TIP3   OH280317   3.678   1.558   1.668  0.8000  0.3684 -0.7384
19609TIP3    H180318   3.654   1.647   1.642 -1.2463 -0.4679 -1.9275
19609TIP3    H280319   3.705   1.516   1.587  0.5506 -0.4584 -0.3987
19610TIP3   OH280320   5.112   1.875  11.800  0.1005 -0.1857 -0.3120
19610TIP3    H180321   5.090   1.794  11.753 -1.1041 -0.0825  0.0480
19610TIP3    H280322   5.197   1.857  11.840 -0.0656 -1.2103 -0.3965
19611TIP3   OH280323   1.768   1.657  16.485  0.2244  0.1459 -0.2209
19611TIP3    H180324   1.798   1.586  16.428  0.9661  0.4844 -0.2644
19611TIP3    H280325   1.674   1.665  16.467  0.6219  0.9627 -2.1904
19612TIP3   OH280326   2.894   2.856   2.547  0.0617  0.2404 -0.1256
19612TIP3    H180327   2.916   2.778   2.496  1.8230  0.8193 -0.3013
19612TIP3    H280328   2.806   2.880   2.516 -0.3365 -1.4005 -0.3746
19613TIP3   OH280329   4.157   6.640   2.043 -0.2797  0.0059 -0.4896
19613TIP3    H180330   4.232   6.677   1.996 -1.7534 -0.4885 -3.4655
19613TIP3    H280331   4.151   6.550   2.011 -1.0825 -0.5428  1.1113
19614TIP3   OH280332   1.955   5.695   2.165 -0.2799  0.1249 -0.4819
19614TIP3    H180333   1.972   5.787   2.186  1.8021 -0.4420  0.5818
19614TIP3    H280334   1.882   5.671   2.221  1.5539  0.1903  2.0973
19615TIP3   OH280335   5.506   3.523  13.025 -0.2969 -0.0368  0.3481
19615TIP3    H180336   5.414   3.505  13.005  0.4261 -1.1886 -2.3501
19615TIP3    H280337   5.520   3.613  12.996  0.2866 -1.1081 -3.0722
19616TIP3   OH280338   4.039   3.293  10.623 -0.6826 -0.2809 -0.3902
19616TIP3    H180339   3.946   3.282  10.607 -0.3797 -1.4220 -1.4812
19616TIP3    H280340   4.056   3.386  10.607 -1.8196  0.2141  1.0132
19617TIP3   OH280341   5.548   3.985  12.138 -0.3324  0.1422 -0.9765
19617TIP3    H180342   5.598   3.904  12.128 -0.3295 -0.0298  0.1947
19617TIP3    H280343   5.462   3.956  12.168  0.4649  0.6016  2.2132
19618TIP3   OH280344   2.501   2.496  17.004 -0.2957  0.4372  0.3101
19618TIP3    H180345   2.437   2.477  16.935 -0.1728  0.4931  0.1779
19618TIP3    H280346   2.450   2.538  17.073 -0.4037  0.4724  0.2107
19619TIP3   OH280347   4.048   1.057   1.818  0.4233 -0.1988 -0.0286
19619TIP3    H180348   4.044   0.999   1.742  3.2482  1.2925 -1.4784
19619TIP3    H280349   4.043   0.998   1.893 -0.1442 -1.9646 -1.3763
19620TIP3   OH280350   2.654   0.512   3.335 -0.0460 -0.1917  0.0022
19620TIP3    H180351   2.678   0.596   3.295 -1.2566  0.0863 -0.1985
19620TIP3    H280352   2.716   0.449   3.299  1.3893  0.7295  0.7545
19621TIP3   OH280353   3.287   5.801   5.248 -0.3374 -0.1982 -0.3267
19621TIP3    H180354   3.234   5.869   5.291  1.5985  0.9230  0.3987
19621TIP3    H280355   3.313   5.743   5.319  0.2747 -0.1456 -0.5095
19622TIP3   OH280356   6.558   3.956  13.469  0.2237  0.7730  0.3954
19622TIP3    H180357   6.471   3.953  13.510 -1.4707  1.6991 -2.7666
19622TIP3    H280358   6.555   3.887  13.403  2.1353  0.5083  0.5229
19623TIP3   OH280359   2.456   2.632   2.594 -0.5994  0.0560  0.4760
19623TIP3    H180360   2.451   2.626   2.690 -1.5575 -2.7101  0.3085
19623TIP3    H280361   2.400   2.707   2.572  1.3683  2.1923  2.1350
19624TIP3   OH280362   5.042   5.850  12.825  0.1667 -0.6326  0.2226
19624TIP3    H180363   5.103   5.788  12.865 -2.0727 -1.7859  2.1202
19624TIP3    H280364   4.986   5.796  12.770 -0.5572  0.0231  0.3050
19625TIP3   OH280365   6.301   2.086   4.436 -0.1832 -0.2210 -0.4362
19625TIP3    H180366   6.330   2.115   4.522 -1.8511  0.5467 -0.0981
19625TIP3    H280367   6.249   2.007   4.453 -1.6011  0.6456 -0.5481
19626TIP3   OH280368   4.200   3.576   2.134  0.5985 -0.1195  0.7820
19626TIP3    H180369   4.251   3.504   2.096  0.6155  0.6171 -0.6548
19626TIP3    H280370   4.209   3.565   2.229  1.4493 -1.3918  0.5720
19627TIP3   OH280371   2.192   2.871  12.589 -0.3292  0.2055 -1.2404
19627TIP3    H180372   2.201   2.790  12.638 -0.2870  0.1859 -1.2809
19627TIP3    H280373   2.122   2.919  12.634 -0.7371 -0.0973 -1.5548
19628TIP3   OH280374   0.145   4.086   1.050  0.3974  0.2215  0.2816
19628TIP3    H180375   0.224   4.032   1.048  0.3610  0.1609  0.4362
19628TIP3    H280376   0.101   4.069   0.967 -1.1413 -2.2503  1.4975
19629TIP3   OH280377   2.238   0.633  10.288  0.2433 -0.5413 -0.0415
19629TIP3    H180378   2.292   0.711  10.271  1.3031 -1.0873  0.6860
19629TIP3    H280379   2.231   0.629  10.383 -0.5690 -0.8426 -0.1049
19630TIP3   OH280380   4.690   5.538  14.859 -0.4270  0.3201  0.1167
19630TIP3    H180381   4.662   5.573  14.944  1.6974 -1.1270  1.5185
19630TIP3    H280382   4.613   5.495  14.824 -1.4811  1.3461  1.0885
19631TIP3   OH280383   1.328   2.235   6.513  0.3338  0.4563 -0.1242
19631TIP3    H180384   1.385   2.311   6.502  0.8843  0.0076 -0.4080
19631TIP3    H280385   1.385   2.166   6.546 -0.3479  0.4149  1.0553
19632TIP3   OH280386   5.652   3.519   1.557  0.1891  0.4954 -0.2389
19632TIP3    H180387   5.692   3.533   1.642  1.7438  1.2998 -1.0708
19632TIP3    H280388   5.689   3.436   1.526 -0.8609 -0.1314  0.0975
19633TIP3   OH280389   3.071   4.166   3.560  0.1333 -0.0720 -0.5412
19633TIP3    H180390   3.019   4.090   3.586 -0.0602 -0.6466 -2.4439
19633TIP3    H280391   3.135   4.130   3.498  1.1108  1.0688 -0.2214
19634TIP3   OH280392   4.967   2.066  14.848  0.2458  0.0831  0.1979
19634TIP3    H180393   5.051   2.075  14.804  0.0983  0.4511 -0.0108
19634TIP3    H280394   4.939   2.156  14.866 -0.6086  0.0171 -0.7049
19635TIP3   OH280395   5.874   4.896   0.173 -0.1144  0.0385  0.5025
19635TIP3    H180396   5.892   4.973   0.227 -0.0902  0.9913 -0.8157
19635TIP3    H280397   5.956   4.879   0.127  0.5800 -2.1521  2.3573
19636TIP3   OH280398   5.623   5.920  13.269  0.2008 -0.2991  0.3912
19636TIP3    H180399   5.628   5.978  13.345 -1.5409  0.1684  0.1905
19636TIP3    H280400   5.529   5.909  13.253  0.5219 -0.8376 -1.3637
19637TIP3   OH280401   1.151   3.649  11.618 -0.3469  0.0850 -0.0012
19637TIP3    H180402   1.202   3.668  11.697  0.6351 -1.2550 -0.2728
19637TIP3    H280403   1.147   3.732  11.571  0.5526  0.4987  0.6290
19638TIP3   OH280404   3.081   3.064   3.461  0.4079  0.2758  0.4763
19638TIP3    H180405   3.062   3.145   3.413  1.6818  0.6583  0.5962
19638TIP3    H280406   3.093   3.092   3.551  0.2542 -0.1343  0.6250
19639TIP3   OH280407   4.432   6.086  14.028 -0.4474 -0.2526 -0.3673
19639TIP3    H180408   4.466   6.171  14.002  0.4994 -0.5548 -0.1413
19639TIP3    H280409   4.479   6.064  14.108 -0.9765 -0.8098 -0.2011
19640TIP3   OH280410   3.137   1.175   5.600 -0.0126 -0.9511 -0.0106
19640TIP3    H180411   3.084   1.236   5.549  0.4633 -1.7137 -1.4853
19640TIP3    H280412   3.128   1.205   5.691  1.2395  2.1221 -0.7748
19641TIP3   OH280413   1.769   0.981   5.385  0.4799 -0.7569 -0.0203
19641TIP3    H180414   1.788   1.071   5.358  0.5540 -0.7243  0.1411
19641TIP3    H280415   1.818   0.927   5.323  1.5349 -0.6659  0.7100
19642TIP3   OH280416   1.289   6.540  12.875 -0.2093 -0.2817  0.0053
19642TIP3    H180417   1.225   6.611  12.887  0.8614  0.7791 -0.3746
19642TIP3    H280418   1.374   6.584  12.880  0.5322 -1.7619  1.1649
19643TIP3   OH280419   3.581   3.871   3.543 -0.2916  0.2461 -0.1631
19643TIP3    H180420   3.608   3.909   3.459  0.9608 -0.7840 -0.2510
19643TIP3    H280421   3.652   3.813   3.567 -0.3677  0.9310  1.9063
19644TIP3   OH280422   5.129   2.542   2.670 -0.1824  0.2802  0.2813
19644TIP3    H180423   5.146   2.498   2.586  0.6098  0.6694  0.2241
19644TIP3    H280424   5.079   2.620   2.645  0.9030  0.9173  0.0419
19645TIP3   OH280425   4.004   6.720  10.807 -0.3551 -0.2799  0.6167
19645TIP3    H180426   4.096   6.718  10.779 -0.3197 -2.0932  0.7542
19645TIP3    H280427   4.000   6.792  10.870  0.7468  0.4483 -0.1053
19646TIP3   OH280428   6.672   4.053   2.273 -0.4470 -0.4617  0.0911
19646TIP3    H180429   6.598   4.003   2.305 -0.4949 -0.4876 -0.0593
19646TIP3    H280430   6.634   4.133   2.235 -0.3506 -0.1830  0.5775
19647TIP3   OH280431   1.377   4.029  13.663 -0.0681 -0.6602  0.0198
19647TIP3    H180432   1.397   4.113  13.703 -0.8633 -0.4137 -0.0748
19647TIP3    H280433   1.342   3.976  13.735 -0.9972 -0.3949 -0.2255
19648TIP3   OH280434   4.711   5.901  12.179 -0.3133  0.2666  0.1071
19648TIP3    H180435   4.627   5.947  12.169 -0.0072  1.2527  1.6885
19648TIP3    H280436   4.703   5.855  12.262  0.3488 -0.4562 -0.2219
19649TIP3   OH280437   4.383   3.447   2.965 -0.3487  0.3875  0.2167
19649TIP3    H180438   4.366   3.356   2.942  0.8083 -0.9837  4.0117
19649TIP3    H280439   4.479   3.454   2.968 -0.4152  1.8671 -0.4688
19650TIP3   OH280440   3.182   3.650   1.282  0.2776 -0.0715 -0.0234
19650TIP3    H180441   3.260   3.656   1.338 -0.0157 -1.3990  0.5902
19650TIP3    H280442   3.121   3.598   1.334  0.1103 -1.6581 -1.7131
19651TIP3   OH280443   6.479   2.488   1.213  0.6013  0.1695  0.0950
19651TIP3    H180444   6.566   2.513   1.182  0.5602 -1.1419 -1.2402
19651TIP3    H280445   6.469   2.397   1.183 -1.3216  0.3873 -0.0390
19652TIP3   OH280446   2.697   1.340   4.967 -0.0590 -0.4141 -0.1056
19652TIP3    H180447   2.681   1.434   4.962 -0.1584 -0.4080  0.2623
19652TIP3    H280448   2.633   1.302   4.907  2.3442 -0.0487 -3.1509
19653TIP3   OH280449   4.060   2.235  12.220 -0.0988 -0.1734  0.5538
19653TIP3    H180450   4.125   2.285  12.171  1.0081 -1.2715  0.8724
19653TIP3    H280451   3.976   2.260  12.180  0.5895  0.5702 -0.4685
19654TIP3   OH280452   5.824   3.709   3.026  0.1588 -0.7021 -0.3142
19654TIP3    H180453   5.808   3.623   2.987 -0.1784 -1.5996  1.6440
19654TIP3    H280454   5.742   3.731   3.070  0.6484  0.0343  0.2511
19655TIP3   OH280455   0.387   4.174   1.383  0.2580 -0.3671  0.0100
19655TIP3    H180456   0.301   4.215   1.375  0.4217 -0.1387 -0.6774
19655TIP3    H280457   0.419   4.200   1.469 -0.4789 -0.6909  0.3855
19656TIP3   OH280458   0.871   6.001  14.419  0.7435 -1.0920  0.2871
19656TIP3    H180459   0.848   5.996  14.512 -0.2047  1.7949  0.3225
19656TIP3    H280460   0.808   5.944  14.375  0.2160 -1.3119  1.3040
19657TIP3   OH280461   4.028   3.906  12.574  0.6193  0.6504  0.2827
19657TIP3    H180462   4.122   3.895  12.561  0.6672  0.5949  0.6484
19657TIP3    H280463   4.013   4.000  12.568  0.7171  0.6693  0.3382
19658TIP3   OH280464   3.311   6.304  12.673 -0.0490 -0.2743 -0.3022
19658TIP3    H180465   3.290   6.309  12.766  0.3662 -1.0862 -0.1569
19658TIP3    H280466   3.253   6.367  12.631 -0.5897 -0.2705  0.4480
19659TIP3   OH280467   4.190   2.830  13.980  0.1913  0.4509  0.0026
19659TIP3    H180468   4.104   2.863  13.952  0.7769  0.5386 -1.8329
19659TIP3    H280469   4.226   2.790  13.901  2.5604  1.9219  0.2559
19660TIP3   OH280470   6.150   3.787   1.217 -0.0666  0.1611  0.0995
19660TIP3    H180471   6.064   3.825   1.197  0.3893  0.9562 -0.4222
19660TIP3    H280472   6.145   3.697   1.185 -0.7529  0.1595  0.2065
19661TIP3   OH280473   6.779   3.070  16.400  0.1844  0.1968  0.0422
19661TIP3    H180474   6.839   3.130  16.445  1.4673 -0.7468 -0.3399
19661TIP3    H280475   6.718   3.128  16.354  2.1613  1.3029 -1.3888
19662TIP3   OH280476   5.293   0.118   3.473  0.3300 -0.1093 -0.0116
19662TIP3    H180477   5.234   0.112   3.397 -0.4014  1.9939  0.3203
19662TIP3    H280478   5.264   0.197   3.519  1.9151 -0.3515  1.4820
19663TIP3   OH280479   4.285   2.692   4.212  0.9540 -0.2149 -0.1332
19663TIP3    H180480   4.374   2.676   4.241  0.6262 -0.0700  0.9863
19663TIP3    H280481   4.240   2.609   4.226  0.0566  0.6524  2.6401
19664TIP3   OH280482   4.969   3.480  13.275  0.2625 -0.2030 -0.4478
19664TIP3    H180483   4.983   3.456  13.367 -1.2672 -0.0383 -0.1599
19664TIP3    H280484   5.031   3.424  13.227  0.1351 -1.2638  0.5743
19665TIP3   OH280485   0.406   3.236  13.751 -0.5146 -0.2706 -0.4270
19665TIP3    H180486   0.349   3.159  13.750  0.1296 -0.7561 -1.4548
19665TIP3    H280487   0.426   3.252  13.659  3.1671 -1.7976 -0.0845
19666TIP3   OH280488   6.485   3.257   5.274 -0.1926  0.3189 -0.3063
19666TIP3    H180489   6.490   3.224   5.185 -0.6683 -0.0758 -0.1901
19666TIP3    H280490   6.507   3.182   5.329  0.5780  0.6826 -0.1039
19667TIP3   OH280491   1.050   4.807  12.921 -0.2516 -0.0007  0.2251
19667TIP3    H180492   0.955   4.818  12.934 -0.2507 -0.8345  1.0128
19667TIP3    H280493   1.085   4.799  13.010  0.2347 -2.2734 -0.1266
19668TIP3   OH280494   3.091   6.718  16.008 -0.0957  0.1870 -0.5346
19668TIP3    H180495   3.095   6.809  16.039 -0.5816  0.2239 -0.5664
19668TIP3    H280496   3.002   6.690  16.030  0.3644 -0.6088  0.3672
19669TIP3   OH280497   1.307   3.498  16.294 -0.1932 -0.3700  0.4485
19669TIP3    H180498   1.325   3.563  16.226 -0.6680 -1.4289 -0.7221
19669TIP3    H280499   1.216   3.472  16.278 -0.4127 -0.4174  1.6970
19670TIP3   OH280500   3.998   4.828  15.234 -0.7163 -0.0070  0.1301
19670TIP3    H180501   4.009   4.855  15.325 -2.4366  1.3177  0.0032
19670TIP3    H280502   3.989   4.733  15.238 -3.2367  0.1895  1.7035
19671TIP3   OH280503   0.188   0.516   3.159  0.5443 -0.4989  0.0686
19671TIP3    H180504   0.144   0.536   3.242 -0.4038 -0.1952 -0.4931
19671TIP3    H280505   0.182   0.597   3.108 -1.2415 -1.4157 -1.3119
19672TIP3   OH280506   2.245   0.947  13.221 -0.0432 -0.0894  0.4449
19672TIP3    H180507   2.193   0.896  13.160 -0.4703 -0.1366  0.8423
19672TIP3    H280508   2.255   0.891  13.298 -0.3195  0.3241  0.7927
19673TIP3   OH280509   5.999   5.590   5.519 -0.8266  0.0731  0.6078
19673TIP3    H180510   6.030   5.532   5.588 -1.0730 -0.2814  0.4252
19673TIP3    H280511   6.078   5.621   5.476 -0.7271 -1.6376 -0.5280
19674TIP3   OH280512   5.708   6.379  16.097 -0.4612 -0.7250 -0.0333
19674TIP3    H180513   5.630   6.405  16.146 -1.0744 -1.0807 -0.7788
19674TIP3    H280514   5.751   6.461  16.074 -0.7000 -0.5172  0.2590
19675TIP3   OH280515   3.332   3.983  11.490 -0.1270 -0.6506 -0.6985
19675TIP3    H180516   3.275   3.916  11.451  0.4755 -1.1288 -0.7782
19675TIP3    H280517   3.351   4.043  11.418  0.7706 -1.3862 -1.1019
19676TIP3   OH280518   5.724   2.199  13.412 -0.1626  0.1835 -0.5370
19676TIP3    H180519   5.787   2.262  13.376  0.9871 -0.5673  0.0758
19676TIP3    H280520   5.667   2.177  13.338 -0.3985  1.7050 -0.8259
19677TIP3   OH280521   4.192   3.136  14.055 -0.4693  0.0643  0.2751
19677TIP3    H180522   4.190   3.193  14.132  0.6063  2.0218 -1.0788
19677TIP3    H280523   4.267   3.166  14.004 -0.4960 -1.8983 -1.0351
19678TIP3   OH280524   1.538   5.060  15.640  0.7982 -0.3213 -0.1983
19678TIP3    H180525   1.496   4.975  15.635  2.0617 -0.9122 -1.8761
19678TIP3    H280526   1.501   5.110  15.567  1.6742 -0.2595 -0.6257
19679TIP3   OH280527   4.258   0.027  14.683  0.3677  0.3463 -0.3127
19679TIP3    H180528   4.323  -0.027  14.638  0.3274 -0.5799  0.6870
19679TIP3    H280529   4.225  -0.030  14.753  2.1357  2.4238  2.4335
19680TIP3   OH280530   5.443   2.763   1.961  0.0725  0.0493 -0.4922
19680TIP3    H180531   5.393   2.842   1.981 -0.2056 -0.3014  0.2596
19680TIP3    H280532   5.379   2.691   1.968  0.4716 -0.3085 -0.4631
19681TIP3   OH280533   6.095   4.974   6.204 -0.4893 -0.4635  0.2210
19681TIP3    H180534   6.143   5.013   6.277  0.1041  0.6303 -0.7248
19681TIP3    H280535   6.010   4.950   6.241  0.4753 -1.7502  1.7402
19682TIP3   OH280536   3.607   6.703  14.862  0.1996  0.4411 -0.9001
19682TIP3    H180537   3.631   6.680  14.952 -1.9692  0.2509 -0.3379
19682TIP3    H280538   3.632   6.627  14.811  2.2634  0.8837 -0.6476
19683TIP3   OH280539   3.351   3.097   3.191 -0.3296 -0.5273  0.2310
19683TIP3    H180540   3.387   3.071   3.275 -1.0212 -0.4412  0.5589
19683TIP3    H280541   3.405   3.051   3.126  2.2477  1.7883  0.5490
19684TIP3   OH280542   3.015   6.693   1.888 -0.1538  0.1870  0.4462
19684TIP3    H180543   3.024   6.602   1.860  1.1809  0.2397  0.6641
19684TIP3    H280544   3.046   6.694   1.978  0.0690  0.9059  0.3666
19685TIP3   OH280545   6.182   1.274   1.596 -0.2371  0.6440  0.0607
19685TIP3    H180546   6.140   1.198   1.636  1.6235 -0.0227  0.8442
19685TIP3    H280547   6.274   1.249   1.587 -0.1034  1.7753 -2.2538
19686TIP3   OH280548   1.560   2.238   0.757 -0.2976  0.0737  0.4651
19686TIP3    H180549   1.573   2.155   0.803  1.5225 -0.7843 -1.4472
19686TIP3    H280550   1.500   2.218   0.686 -0.6975  0.6602  0.6313
19687TIP3   OH280551   1.828   5.743  16.178  0.8131  0.1864  0.2016
19687TIP3    H180552   1.784   5.720  16.096 -1.6237  3.3095  0.4220
19687TIP3    H280553   1.797   5.678  16.241  3.1326 -2.5866 -1.2756
19688TIP3   OH280554   2.847   2.163  11.435  0.0054  0.3211  0.0756
19688TIP3    H180555   2.801   2.230  11.385  1.4620  1.7559  0.5909
19688TIP3    H280556   2.881   2.209  11.512  1.2210 -0.9440  0.3378
19689TIP3   OH280557   2.999   1.101  12.772  0.4782  0.1014  0.3092
19689TIP3    H180558   2.944   1.165  12.726  0.3723 -0.2758 -0.0923
19689TIP3    H280559   2.961   1.096  12.860  0.0320  0.0398  0.1169
19690TIP3   OH280560   4.714   5.000   2.006  0.2795  0.3675 -0.2866
19690TIP3    H180561   4.731   5.018   2.098  1.2458  0.6116 -0.5067
19690TIP3    H280562   4.736   5.081   1.960  0.9000 -0.0994 -0.8462
19691TIP3   OH280563   5.485   6.616   4.846  0.1304 -0.0111  0.0024
19691TIP3    H180564   5.496   6.653   4.759 -0.0822  0.1395  0.0392
19691TIP3    H280565   5.541   6.538   4.847  0.2018  0.0390 -0.2369
19692TIP3   OH280566   1.631   1.277  15.244 -0.1118  0.7206 -0.0642
19692TIP3    H180567   1.607   1.205  15.302  1.6057 -1.6410 -2.0783
19692TIP3    H280568   1.556   1.287  15.185 -0.2254  0.3065  0.0080
19693TIP3   OH280569   5.679   5.160   0.478 -0.6552  0.2557  0.2976
19693TIP3    H180570   5.741   5.207   0.533  0.7648  0.5072 -1.4522
19693TIP3    H280571   5.671   5.074   0.519  0.4445  0.3988  0.8411
19694TIP3   OH280572   0.054   3.575   2.343  0.3646 -0.4383  0.2529
19694TIP3    H180573   0.144   3.572   2.376  0.4632  0.6863  0.1141
19694TIP3    H280574   0.064   3.575   2.248  0.2179 -0.2353  0.2375
19695TIP3   OH280575   3.145   6.663  15.751  0.1490  0.1692  0.4912
19695TIP3    H180576   3.227   6.697  15.715  0.4597 -0.4810  0.5687
19695TIP3    H280577   3.135   6.709  15.834  1.0446 -0.5767  1.0336
19696TIP3   OH280578   0.043   4.712  12.860 -0.3542  0.6602 -0.3924
19696TIP3    H180579  -0.015   4.753  12.924 -0.1290  1.7525 -0.8651
19696TIP3    H280580   0.008   4.738  12.775  0.7791  1.2843 -0.6913
19697TIP3   OH280581   3.865   1.722   2.525 -0.1811 -1.0776  0.0881
19697TIP3    H180582   3.844   1.797   2.581 -1.9704 -2.5264  1.4703
19697TIP3    H280583   3.782   1.698   2.485  0.6269 -1.5488 -1.3859
19698TIP3   OH280584   3.733   6.174   1.783 -0.8653 -0.0159 -0.6962
19698TIP3    H180585   3.794   6.247   1.771  2.1078 -2.5305 -2.3746
19698TIP3    H280586   3.648   6.211   1.759  0.2456  3.1575 -0.3188
19699TIP3   OH280587   5.982   4.024   5.360  0.3958 -0.5476  0.6335
19699TIP3    H180588   6.066   4.067   5.340  0.0580 -0.1413  0.0659
19699TIP3    H280589   5.996   3.932   5.335  0.8957 -0.6369  1.2025
19700TIP3   OH280590   4.351   5.038   1.283  0.1197 -0.5387 -0.1233
19700TIP3    H180591   4.402   5.009   1.359  0.0544 -2.0326 -0.6156
19700TIP3    H280592   4.263   5.050   1.317  0.2297 -0.5573  0.1770
19701TIP3   OH280593   3.958   6.144  10.788 -0.2371  0.5064 -0.4211
19701TIP3    H180594   4.001   6.184  10.863 -0.5244 -0.2996  0.1819
19701TIP3    H280595   3.904   6.214  10.752 -0.3445  0.8088  0.3107
19702TIP3   OH280596   4.198   6.287   5.095  0.0410 -0.4396 -0.4098
19702TIP3    H180597   4.287   6.257   5.111  0.7399  0.9312 -1.5889
19702TIP3    H280598   4.186   6.361   5.155 -0.3717 -0.6940 -0.1670
19703TIP3   OH280599   1.973   5.924   5.525 -0.1576 -0.5597 -0.2137
19703TIP3    H180600   2.036   5.864   5.483  2.7017  0.4274  2.3335
19703TIP3    H280601   1.999   6.011   5.495 -0.6378 -0.1667  0.4811
19704TIP3   OH280602   4.175   1.177  11.356 -0.4904 -0.1728 -0.1267
19704TIP3    H180603   4.211   1.149  11.272 -0.0962  0.8957 -0.3219
19704TIP3    H280604   4.080   1.167  11.346 -0.3332 -2.5083  0.2158
19705TIP3   OH280605   4.878   6.180  13.913 -0.5028 -0.2063 -0.4351
19705TIP3    H180606   4.888   6.165  14.007 -1.1680  0.7604 -0.1958
19705TIP3    H280607   4.833   6.102  13.881  0.4655 -0.9204 -0.1190
19706TIP3   OH280608   3.598   5.076  14.480  0.1946 -0.4600 -0.0140
19706TIP3    H180609   3.521   5.081  14.537 -0.2289  1.0085 -0.6633
19706TIP3    H280610   3.565   5.096  14.393  1.2000 -0.4987 -0.4192
19707TIP3   OH280611   6.843   6.119  15.931 -0.4215  0.3146  0.0842
19707TIP3    H180612   6.906   6.159  15.991 -0.7238 -0.1430  0.7309
19707TIP3    H280613   6.779   6.188  15.912 -1.4498 -0.0527  1.9079
19708TIP3   OH280614   6.790   4.694  17.006 -0.0684  0.3452 -0.2269
19708TIP3    H180615   6.728   4.689  16.934 -1.0527 -0.3912  0.6370
19708TIP3    H280616   6.743   4.738  17.076 -0.0541 -1.2623  0.8470
19709TIP3   OH280617   5.634   6.305   5.259 -0.2460 -0.5534 -0.0868
19709TIP3    H180618   5.697   6.375   5.278 -1.2057  1.3320 -3.1090
19709TIP3    H280619   5.552   6.336   5.296 -0.0948 -1.4835  1.0576
19710TIP3   OH280620   1.922   4.248  11.727 -0.3418 -0.1710  0.4438
19710TIP3    H180621   2.010   4.282  11.743 -0.5902  0.1385  1.1525
19710TIP3    H280622   1.896   4.209  11.810 -0.4883 -1.1554 -0.0427
19711TIP3   OH280623   3.607   6.196   0.195 -0.1787 -0.2465 -0.0728
19711TIP3    H180624   3.597   6.113   0.241 -0.5445  0.2762  0.8112
19711TIP3    H280625   3.615   6.172   0.103  0.5451 -1.3144  0.2504
19712TIP3   OH280626   0.191   5.160   0.716 -0.0875  0.6930 -0.1655
19712TIP3    H180627   0.172   5.210   0.795 -2.9920 -1.1733  0.4663
19712TIP3    H280628   0.110   5.112   0.698  1.6887 -1.8440 -2.1092
19713TIP3   OH280629   4.287   6.162  10.709 -0.4308  0.2709 -0.3428
19713TIP3    H180630   4.198   6.197  10.699 -1.1317 -0.8712  1.3563
19713TIP3    H280631   4.341   6.238  10.731 -1.0005  0.9587 -1.2543
19714TIP3   OH280632   0.914   3.212   5.590  0.4310  0.8101  0.5489
19714TIP3    H180633   0.848   3.281   5.592  0.2968  0.6793  0.5799
19714TIP3    H280634   0.998   3.259   5.590  0.3351  0.9981 -0.2780
19715TIP3   OH280635   6.517   6.578  16.055 -0.4033 -0.0556 -0.2059
19715TIP3    H180636   6.478   6.627  15.982  0.0287 -1.1803 -1.2190
19715TIP3    H280637   6.536   6.645  16.121  0.1612  1.1485 -1.5373
19716TIP3   OH280638   4.589   6.740   5.469 -0.0692 -0.5479  0.4095
19716TIP3    H180639   4.614   6.795   5.395  1.8335  0.8306  1.9615
19716TIP3    H280640   4.505   6.774   5.498  0.1097  0.1858  0.0817
19717TIP3   OH280641   4.493   6.782  15.634  0.2265 -0.6466 -0.3914
19717TIP3    H180642   4.446   6.814  15.711  0.2429 -1.0417 -0.2130
19717TIP3    H280643   4.452   6.697  15.615  2.2158 -2.0013  1.0126
19718TIP3   OH280644   1.034   0.938  10.999  0.7228  0.5378  0.7357
19718TIP3    H180645   1.022   0.948  10.905  2.5858 -0.3107  0.3718
19718TIP3    H280646   1.128   0.922  11.010  0.7004  1.5312  2.8251
19719TIP3   OH280647   5.235   0.130  11.253 -0.1576  0.0228  0.0559
19719TIP3    H180648   5.309   0.090  11.297 -0.7091 -0.4900  0.5446
19719TIP3    H280649   5.170   0.060  11.248 -0.6908  0.5253 -0.1526
19720TIP3   OH280650   3.098   3.091  15.771  0.4234 -0.0465  0.1750
19720TIP3    H180651   3.167   3.127  15.828  1.9842 -2.4447 -0.0289
19720TIP3    H280652   3.099   3.148  15.694  1.6621  0.4153  0.5015
19721TIP3   OH280653   3.803   2.357  14.929 -0.3363 -0.2036  0.0430
19721TIP3    H180654   3.872   2.295  14.952 -0.6998 -0.7773 -0.3854
19721TIP3    H280655   3.820   2.434  14.984  1.5931  0.3304 -1.2007
19722TIP3   OH280656   2.164   5.134   3.803 -0.3420  0.7048  0.6710
19722TIP3    H180657   2.258   5.142   3.815  0.1157 -2.0433 -0.2454
19722TIP3    H280658   2.127   5.148   3.890  1.0713  0.2775  1.3754
19723TIP3   OH280659   2.514   6.705  10.846 -0.1048 -0.1401 -0.4324
19723TIP3    H180660   2.464   6.627  10.823  0.3753  0.1258 -2.5832
19723TIP3    H280661   2.602   6.673  10.866 -0.3137 -0.2875  0.2923
19724TIP3   OH280662   1.591   0.119  13.836 -0.0337  0.1420 -0.2838
19724TIP3    H180663   1.606   0.075  13.752  0.0609  0.5631 -0.4865
19724TIP3    H280664   1.512   0.076  13.871 -1.5959  1.6480 -1.7536
19725TIP3   OH280665   6.350   2.700  10.726  1.1047 -0.0933 -0.0114
19725TIP3    H180666   6.287   2.755  10.680  1.9840  0.3458 -0.7240
19725TIP3    H280667   6.395   2.651  10.657  1.6646 -0.2632  0.4633
19726TIP3   OH280668   6.755   2.691  16.952  0.1850 -0.2466  0.0759
19726TIP3    H180669   6.712   2.776  16.940 -0.1348 -0.4099  0.0546
19726TIP3    H280670   6.811   2.703  17.029  1.1366  0.3733 -0.6871
19727TIP3   OH280671   5.083   5.543   2.924  0.0481 -0.3681  0.0857
19727TIP3    H180672   5.053   5.462   2.964 -0.9574  0.1564  0.4420
19727TIP3    H280673   5.156   5.517   2.868 -0.5970 -1.5870 -0.2255
19728TIP3   OH280674   5.685   1.962   5.918  0.0942 -0.3012  0.0171
19728TIP3    H180675   5.752   1.896   5.904 -0.0129 -0.8291  1.7340
19728TIP3    H280676   5.673   1.964   6.013  0.6087  2.7202  0.1068
19729TIP3   OH280677   1.110   3.069  10.527  0.2406 -0.4082  0.3959
19729TIP3    H180678   1.190   3.033  10.566 -1.3493 -2.0127  2.3874
19729TIP3    H280679   1.041   3.007  10.550 -1.8764  1.6351  0.0098
19730TIP3   OH280680   5.660   6.849  15.175  0.5202  0.0899 -0.9043
19730TIP3    H180681   5.722   6.922  15.168 -0.7528  1.0802 -2.4411
19730TIP3    H280682   5.700   6.779  15.124  1.3929 -0.0621 -0.0466
19731TIP3   OH280683   0.401   2.842   2.368  0.2157  0.0254 -0.1541
19731TIP3    H180684   0.419   2.840   2.274 -0.0741 -0.1055 -0.2102
19731TIP3    H280685   0.485   2.860   2.409  0.2402  0.6570 -0.4717
19732TIP3   OH280686   3.626   5.960  15.301  0.4889 -0.9901 -0.2937
19732TIP3    H180687   3.693   5.898  15.329  1.5885  0.8611  1.4366
19732TIP3    H280688   3.544   5.911  15.309  1.4552 -2.8123 -0.9361
19733TIP3   OH280689   6.108   5.044  11.392  0.7295 -0.0866  0.2301
19733TIP3    H180690   6.145   4.990  11.462 -0.0352 -1.6132 -0.4924
19733TIP3    H280691   6.016   5.056  11.417  0.0379 -1.9341 -1.1885
19734TIP3   OH280692   2.902   3.774  15.598 -0.1298 -0.2570 -0.0202
19734TIP3    H180693   2.861   3.860  15.583  0.0868 -0.1592 -0.0492
19734TIP3    H280694   2.844   3.732  15.662  0.3045  0.3104  0.7749
19735TIP3   OH280695   2.858   2.140  16.654  0.1037 -0.0429  0.9454
19735TIP3    H180696   2.847   2.103  16.742  1.2437  0.5057  1.3491
19735TIP3    H280697   2.803   2.218  16.654  0.0083 -0.1109  1.1413
19736TIP3   OH280698   0.823   3.854  14.511  0.0344  0.3094 -0.3978
19736TIP3    H180699   0.820   3.933  14.456  1.1157 -0.2809 -1.3547
19736TIP3    H280700   0.904   3.863  14.561  0.5268 -0.4860 -1.0168
19737TIP3   OH280701   4.342   2.068  15.078 -0.3987  0.3921  0.2433
19737TIP3    H180702   4.437   2.064  15.079 -0.3430 -1.3077 -2.2954
19737TIP3    H280703   4.322   2.159  15.057  0.6456  0.8128  1.0111
19738TIP3   OH280704   6.642   2.858  13.434  0.1945  0.2514 -0.3018
19738TIP3    H180705   6.712   2.807  13.474 -1.2419 -0.9263  0.8415
19738TIP3    H280706   6.638   2.827  13.344 -0.3117 -1.3522  0.2361
19739TIP3   OH280707   1.069   6.621  14.922  0.3184  0.1864  0.4354
19739TIP3    H180708   1.076   6.641  14.829 -2.2773 -0.2559  0.0785
19739TIP3    H280709   1.140   6.671  14.963  2.3718 -0.6441 -1.8739
19740TIP3   OH280710   2.841   0.739   0.732  0.6317  0.6365 -0.4876
19740TIP3    H180711   2.864   0.683   0.807 -1.9678  0.9387  0.6475
19740TIP3    H280712   2.874   0.825   0.757 -0.1485  0.7212  0.3283
19741TIP3   OH280713   2.223   4.174  13.861 -0.5707 -0.2521 -0.2184
19741TIP3    H180714   2.314   4.203  13.871 -0.4481 -0.9021  0.6384
19741TIP3    H280715   2.200   4.139  13.947 -1.2882 -1.0662 -0.7317
19742TIP3   OH280716   4.416   2.627   0.736  0.4354 -0.6185  0.3994
19742TIP3    H180717   4.498   2.664   0.704 -0.0435  0.6213  0.5422
19742TIP3    H280718   4.432   2.532   0.740  1.4702 -0.5140 -0.6642
19743TIP3   OH280719   0.504   6.323   2.638 -0.0736 -0.3682 -0.1606
19743TIP3    H180720   0.549   6.259   2.694  0.2881  0.4606  0.5266
19743TIP3    H280721   0.574   6.380   2.606 -0.3492 -0.5196 -1.0577
19744TIP3   OH280722   6.782   3.547  13.253 -0.4286 -0.2670 -0.7459
19744TIP3    H180723   6.812   3.538  13.344 -0.8043 -1.1650 -0.7003
19744TIP3    H280724   6.718   3.618  13.256  0.0969  0.2006 -0.4470
19745TIP3   OH280725   0.255   3.390  16.813 -0.1685  0.2871 -0.0606
19745TIP3    H180726   0.210   3.468  16.782  0.9597  1.5180  1.2959
19745TIP3    H280727   0.185   3.334  16.847 -0.9413  0.8865 -0.6337
19746TIP3   OH280728   2.341   0.145  14.247  0.8067  0.9668  0.9941
19746TIP3    H180729   2.421   0.170  14.294  0.6458  1.4825  1.0071
19746TIP3    H280730   2.281   0.219  14.262  0.3074  0.5573  1.0358
19747TIP3   OH280731   4.609   1.578   0.422 -0.5775  0.4425 -0.2293
19747TIP3    H180732   4.544   1.643   0.399 -1.9828 -0.9754 -0.4028
19747TIP3    H280733   4.559   1.504   0.456  0.9576 -0.5414  0.0122
19748TIP3   OH280734   6.108   6.501   3.841  0.3439  0.5147 -0.4252
19748TIP3    H180735   6.036   6.563   3.854  0.5097  0.8637 -1.1611
19748TIP3    H280736   6.068   6.415   3.855 -0.0497  0.7423 -0.1218
19749TIP3   OH280737   4.341   4.979  14.919  0.1344 -0.9630 -0.7661
19749TIP3    H180738   4.268   5.014  14.868  0.8537 -0.3690 -1.4018
19749TIP3    H280739   4.418   5.026  14.888  0.5545 -0.2697  1.1573
19750TIP3   OH280740   0.543   4.516  12.043 -0.8474 -0.3269  1.1231
19750TIP3    H180741   0.500   4.602  12.048 -1.7790 -0.6708 -0.4130
19750TIP3    H280742   0.631   4.535  12.009 -0.7255  0.1140  1.6854
19751TIP3   OH280743   3.242   1.070   4.733 -0.4244  0.3225 -0.1503
19751TIP3    H180744   3.216   1.012   4.805 -0.1477  0.7261  0.2841
19751TIP3    H280745   3.325   1.034   4.702 -0.9249 -0.3011 -0.7831
19752TIP3   OH280746   6.662   5.088  12.812 -0.1939 -0.4098 -0.1941
19752TIP3    H180747   6.756   5.096  12.829  0.2368 -1.5400 -1.8301
19752TIP3    H280748   6.656   5.050  12.725 -2.1550 -1.7987  0.4594
19753TIP3   OH280749   6.064   5.383   5.749  0.0721 -0.3524 -0.1411
19753TIP3    H180750   6.114   5.422   5.820 -0.8685  1.3618 -0.3838
19753TIP3    H280751   5.999   5.328   5.792 -1.1490  1.4639  0.4060
19754TIP3   OH280752   2.198   4.185   0.333 -0.0303  0.1287 -0.2892
19754TIP3    H180753   2.194   4.147   0.245 -0.2915 -0.3252 -0.0801
19754TIP3    H280754   2.213   4.111   0.391 -0.7603  0.3044  0.1368
19755TIP3   OH280755   4.573   3.493  15.236  0.5819  0.2280  0.1347
19755TIP3    H180756   4.660   3.453  15.237  0.7632  0.6174  0.9357
19755TIP3    H280757   4.586   3.580  15.273 -0.3744 -0.1956  1.5419
19756TIP3   OH280758   0.532   2.161  15.831 -0.0784  0.4914  0.0726
19756TIP3    H180759   0.542   2.218  15.754 -1.6321 -1.3348 -1.5774
19756TIP3    H280760   0.509   2.221  15.902 -2.1858  1.9450 -1.6958
19757TIP3   OH280761   1.701   0.488  15.320  0.4055  0.5415 -0.4520
19757TIP3    H180762   1.752   0.497  15.401 -2.1748  1.8333  1.1861
19757TIP3    H280763   1.710   0.574  15.278 -1.1869  1.1606  0.4027
19758TIP3   OH280764   3.987   2.943  12.646 -0.1196 -0.6792  0.0327
19758TIP3    H180765   4.046   2.926  12.572  2.7462  3.3973  0.9963
19758TIP3    H280766   3.922   3.004  12.611 -0.2519 -0.6565  0.3191
19759TIP3   OH280767   5.701   4.214  12.202  0.5908 -0.3027  0.2521
19759TIP3    H180768   5.653   4.131  12.207 -0.1102  0.1136  0.6446
19759TIP3    H280769   5.633   4.281  12.208  0.9571  0.3294 -1.8415
19760TIP3   OH280770   1.648   3.421  14.718  0.3206  0.0527  0.4669
19760TIP3    H180771   1.659   3.496  14.776 -0.8947 -0.1430  0.9615
19760TIP3    H280772   1.602   3.456  14.641 -1.9881 -0.5089  1.5153
19761TIP3   OH280773   1.132   5.388  11.828  0.4651  0.3103  0.0089
19761TIP3    H180774   1.122   5.377  11.923 -1.9993 -1.5250 -0.3642
19761TIP3    H280775   1.130   5.483  11.815 -3.5029  0.6343  1.5582
19762TIP3   OH280776   2.226   0.719  16.396  0.1185 -0.1403  1.2037
19762TIP3    H180777   2.246   0.695  16.487  2.3025 -0.5339  0.6578
19762TIP3    H280778   2.280   0.661  16.343 -2.2039 -0.9458 -0.4543
19763TIP3   OH280779   3.267   1.961   4.350 -0.4566 -0.2371  0.0459
19763TIP3    H180780   3.317   2.015   4.290 -0.7179  0.6334  0.5889
19763TIP3    H280781   3.312   1.877   4.351 -0.0581 -0.0389 -0.8323
19764TIP3   OH280782   0.795   3.390   4.743  0.2243  0.3252  0.3554
19764TIP3    H180783   0.853   3.338   4.799 -0.4893 -1.0059 -0.0973
19764TIP3    H280784   0.742   3.325   4.696 -2.5312  1.4546  1.6818
19765TIP3   OH280785   0.882   0.174  13.607 -0.1996 -0.3371 -0.2154
19765TIP3    H180786   0.925   0.205  13.527 -0.6799  1.6469  0.2500
19765TIP3    H280787   0.847   0.253  13.648 -1.2226 -1.4876  1.2329
19766TIP3   OH280788   3.664   1.748   3.057  0.0034  0.1601 -0.1464
19766TIP3    H180789   3.608   1.747   2.980  1.2293  0.8044 -1.0798
19766TIP3    H280790   3.664   1.657   3.087 -0.2495 -0.1704 -1.0984
19767TIP3   OH280791   0.535   4.142   3.400  0.0044 -0.1750 -0.0592
19767TIP3    H180792   0.495   4.055   3.402  0.8248 -0.5567  1.7114
19767TIP3    H280793   0.624   4.128   3.432  0.3371  1.2460 -0.2840
19768TIP3   OH280794   0.241   3.195   0.368 -0.4616  0.2827  0.4683
19768TIP3    H180795   0.176   3.216   0.435 -2.6643 -0.9230 -1.1424
19768TIP3    H280796   0.251   3.100   0.373  0.4621  0.3527  0.0622
19769TIP3   OH280797   0.620   5.560   0.516 -0.2873 -0.1931  0.3582
19769TIP3    H180798   0.630   5.490   0.581 -1.0404 -0.8077 -0.1762
19769TIP3    H280799   0.526   5.576   0.511 -0.0766  1.6268  1.2363
19770TIP3   OH280800   4.239   1.375   0.236 -0.0812 -0.3990 -0.2314
19770TIP3    H180801   4.314   1.376   0.296 -0.3942 -2.3726  0.2494
19770TIP3    H280802   4.163   1.389   0.292 -0.2423 -0.3987 -0.4496
19771TIP3   OH280803   2.780   1.307  13.710 -0.0990  0.0318 -0.1547
19771TIP3    H180804   2.839   1.346  13.645  0.4944  0.5252  0.6556
19771TIP3    H280805   2.790   1.363  13.787 -2.0047  0.4161 -0.1550
19772TIP3   OH280806   6.512   2.951   5.421 -0.1296  0.6435  0.0898
19772TIP3    H180807   6.425   2.920   5.394 -0.7680  2.3385  0.1126
19772TIP3    H280808   6.526   2.912   5.507 -0.4096 -0.4396 -0.3283
19773TIP3   OH280809   0.720   1.864  14.642  0.1840 -0.1269 -0.4727
19773TIP3    H180810   0.742   1.784  14.692  0.9326  1.2036  1.4743
19773TIP3    H280811   0.802   1.888  14.599  0.1918  0.0718 -0.3457
19774TIP3   OH280812   3.456   2.733  16.950 -0.4674 -0.2102 -0.1529
19774TIP3    H180813   3.418   2.808  16.904 -1.3490 -0.5909 -0.0627
19774TIP3    H280814   3.430   2.657  16.899 -0.2436 -0.5222  0.1893
19775TIP3   OH280815   6.831   5.886   1.117 -0.4227 -0.9447  0.3207
19775TIP3    H180816   6.759   5.823   1.116 -1.1078 -0.2795  2.4518
19775TIP3    H280817   6.828   5.927   1.030 -2.8993 -0.6550  0.4799
19776TIP3   OH280818   4.239   4.091   1.733 -0.2970  0.0852 -0.2762
19776TIP3    H180819   4.303   4.162   1.727  0.6622 -0.4506  2.3476
19776TIP3    H280820   4.285   4.014   1.699  0.5167 -0.2943  1.5849
19777TIP3   OH280821   2.742   6.583  13.423 -0.1955  0.0007  0.6445
19777TIP3    H180822   2.650   6.610  13.429  0.3947  2.5394 -0.1750
19777TIP3    H280823   2.756   6.567  13.329  0.0608 -1.0378  0.8469
19778TIP3   OH280824   6.469   5.765  11.032  0.7387  0.7034 -0.3177
19778TIP3    H180825   6.405   5.697  11.053  0.2269  1.3489  0.2362
19778TIP3    H280826   6.554   5.720  11.037  0.3623 -0.1107 -0.8668
19779TIP3   OH280827   1.940   4.597  12.766 -0.1547 -0.0241  0.0249
19779TIP3    H180828   1.993   4.627  12.841 -1.1793  0.2425  0.6639
19779TIP3    H280829   1.964   4.505  12.756  3.5062  1.0042 -2.3619
19780TIP3   OH280830   6.245   4.335  11.730 -0.5143 -0.3289 -0.5574
19780TIP3    H180831   6.303   4.411  11.720 -1.3288  1.0095  3.2737
19780TIP3    H280832   6.202   4.328  11.645  1.5262  1.7923 -1.9228
19781TIP3   OH280833   2.102   1.926  14.975 -0.1493 -0.3332  0.6260
19781TIP3    H180834   2.067   1.982  14.905 -0.3500 -0.0289  0.9658
19781TIP3    H280835   2.188   1.962  14.993  0.1325 -0.7603  0.1495
19782TIP3   OH280836   2.266   4.402   5.688 -0.5742  0.4272 -0.4214
19782TIP3    H180837   2.338   4.462   5.709 -0.7764  0.7143 -0.5413
19782TIP3    H280838   2.248   4.356   5.770 -1.2538  1.4255 -0.0036
19783TIP3   OH280839   3.481   3.046  13.717 -0.5561 -0.4003 -0.0961
19783TIP3    H180840   3.490   2.991  13.639 -0.8494 -0.0917 -0.3535
19783TIP3    H280841   3.540   3.007  13.781 -1.9789 -1.9913  0.3067
19784TIP3   OH280842   1.634   1.930   1.208 -0.2465 -0.4947 -0.1705
19784TIP3    H180843   1.605   1.868   1.275  3.0445 -0.5243  1.4101
19784TIP3    H280844   1.681   1.998   1.257  1.4166  0.0496 -2.3431
19785TIP3   OH280845   6.762   6.366  15.492 -0.4471  0.1302  0.9321
19785TIP3    H180846   6.681   6.322  15.517 -0.9854 -0.4618 -1.5959
19785TIP3    H280847   6.827   6.334  15.555 -1.4415 -2.1139  0.9066
19786TIP3   OH280848   6.674   6.772   4.308 -0.2791 -0.2302 -0.4411
19786TIP3    H180849   6.586   6.806   4.322 -0.1992  0.3311 -1.2214
19786TIP3    H280850   6.732   6.844   4.331  0.1269 -1.3597  2.4729
19787TIP3   OH280851   4.681   3.061  13.713  0.5319  0.0639  0.5132
19787TIP3    H180852   4.687   2.968  13.736  1.3638  0.3540  1.6259
19787TIP3    H280853   4.678   3.063  13.618  2.7827 -1.0446  0.3513
19788TIP3   OH280854   3.815   6.754  16.811  0.1681  0.7469 -0.8378
19788TIP3    H180855   3.785   6.766  16.720 -0.0900  0.9856 -0.7212
19788TIP3    H280856   3.764   6.817  16.861 -0.5378 -0.1604 -0.3604
19789TIP3   OH280857   1.979   3.842  14.988 -0.5437 -0.6216 -0.2756
19789TIP3    H180858   2.062   3.879  15.015 -0.7419 -0.9198  0.7764
19789TIP3    H280859   1.985   3.749  15.010 -0.5631 -0.9846 -1.6519
19790TIP3   OH280860   2.707   2.622  12.211  0.0274  0.3424  0.5050
19790TIP3    H180861   2.791   2.580  12.234 -0.4645 -1.2948 -0.5220
19790TIP3    H280862   2.682   2.580  12.129 -0.9113  2.1513 -0.1665
19791TIP3   OH280863   1.839   2.970  16.575 -0.0213 -0.6233  0.0468
19791TIP3    H180864   1.764   2.910  16.573 -0.5554  0.0417 -0.6134
19791TIP3    H280865   1.808   3.047  16.528  0.6200  0.2127  0.9820
19792TIP3   OH280866   1.019   5.622   4.694  0.2731 -0.7890 -0.6592
19792TIP3    H180867   1.054   5.704   4.727 -0.8788 -0.7726  0.6141
19792TIP3    H280868   1.067   5.554   4.743 -0.2930 -0.8058 -0.1166
19793TIP3   OH280869   3.238   3.523   5.383 -0.6706  0.1320  0.1847
19793TIP3    H180870   3.143   3.519   5.384 -0.6505 -2.5848  1.3213
19793TIP3    H280871   3.265   3.493   5.470  1.2083 -0.6797 -0.6027
19794TIP3   OH280872   4.277   6.128  15.050 -0.0908 -0.2648  0.2011
19794TIP3    H180873   4.262   6.222  15.045 -0.5943 -0.3711 -0.2870
19794TIP3    H280874   4.192   6.091  15.073 -0.0802 -0.6704 -0.3952
19795TIP3   OH280875   2.403   0.603   6.255  0.1420  0.4640  0.2533
19795TIP3    H180876   2.335   0.554   6.301 -0.5652 -0.2547 -1.4763
19795TIP3    H280877   2.460   0.636   6.325 -0.6021 -0.9631  1.6082
19796TIP3   OH280878   0.863   5.021   5.068 -0.5053 -0.3529  0.1750
19796TIP3    H180879   0.820   4.971   4.999  0.7666 -1.9693  0.4771
19796TIP3    H280880   0.817   4.996   5.149 -0.7818  0.0776  0.1529
19797TIP3   OH280881   4.525   1.981   4.685 -0.0201  0.0172  0.0651
19797TIP3    H180882   4.497   2.064   4.645 -2.9626 -1.4522 -1.2403
19797TIP3    H280883   4.490   1.984   4.774  0.9175  0.5937  0.4406
19798TIP3   OH280884   3.046   3.638  15.387  0.4954 -0.0988 -0.2446
19798TIP3    H180885   2.995   3.679  15.457  1.1243  1.9577 -0.9137
19798TIP3    H280886   2.982   3.587  15.337 -0.3145 -0.0617  0.7191
19799TIP3   OH280887   1.313   4.059  12.998 -0.2992  0.2287 -0.2099
19799TIP3    H180888   1.219   4.072  12.984 -0.5836 -2.0352 -0.7271
19799TIP3    H280889   1.341   4.138  13.045 -1.9567  2.0872 -2.1335
19800TIP3   OH280890   2.039   3.822   5.475  0.1404  0.0494  0.2642
19800TIP3    H180891   2.016   3.731   5.457  0.4173 -0.2420  1.3213
19800TIP3    H280892   2.111   3.817   5.538  1.0747  0.9856 -0.6792
19801TIP3   OH280893   0.472   3.400   2.556  0.0469  0.4143  0.0867
19801TIP3    H180894   0.519   3.365   2.631  0.0377  0.3566  0.0651
19801TIP3    H280895   0.536   3.399   2.485 -0.0248  0.2194  0.0251
19802TIP3   OH280896   0.068   3.159  15.471  0.4295  0.0387 -0.1508
19802TIP3    H180897   0.049   3.067  15.451  0.6149  0.3567 -1.9640
19802TIP3    H280898   0.013   3.179  15.547 -0.1146 -1.3876 -0.1435
19803TIP3   OH280899   1.369   0.020  14.453  0.3369 -0.1184  0.0847
19803TIP3    H180900   1.282  -0.008  14.482  0.1716  0.3857  0.0940
19803TIP3    H280901   1.426  -0.054  14.473  0.1811  0.0940  1.4564
19804TIP3   OH280902   3.829   2.303   1.647 -0.2220 -0.2053 -0.0976
19804TIP3    H180903   3.789   2.290   1.733  0.6025 -1.2904  0.1458
19804TIP3    H280904   3.893   2.233   1.639  0.5474  0.5683 -1.1204
19805TIP3   OH280905   1.745   3.090   5.400  0.0470  0.4897  0.2480
19805TIP3    H180906   1.710   3.069   5.314  0.6899 -1.6379  0.4329
19805TIP3    H280907   1.728   3.183   5.412 -1.7255  0.4238 -1.3853
19806TIP3   OH280908   0.766   4.911  13.671  0.1117 -0.7868  0.4795
19806TIP3    H180909   0.726   4.998  13.667 -1.2553 -1.3913  0.3088
19806TIP3    H280910   0.755   4.876  13.583  3.3929 -0.0424 -0.3774
19807TIP3   OH280911   1.641   0.252   5.942  0.3306  0.8758 -0.1231
19807TIP3    H180912   1.598   0.191   5.883 -1.0877  0.8109  0.9328
19807TIP3    H280913   1.649   0.333   5.892 -0.3961  0.6722 -0.5789
19808TIP3   OH280914   0.823   3.119  11.504  0.1680 -0.2418 -0.5355
19808TIP3    H180915   0.884   3.046  11.515  0.6892 -0.1255 -2.3397
19808TIP3    H280916   0.737   3.078  11.507  0.4481 -0.9358 -1.3961
19809TIP3   OH280917   2.385   2.437   4.283 -0.5625  0.2131 -0.1275
19809TIP3    H180918   2.442   2.362   4.299 -1.7848 -0.7070  0.0330
19809TIP3    H280919   2.404   2.463   4.193  0.3215  0.1247  0.0267
19810TIP3   OH280920   2.951   3.576   5.400 -0.4462 -0.4867  0.2268
19810TIP3    H180921   2.909   3.649   5.447 -0.6935  0.2441 -1.0659
19810TIP3    H280922   2.878   3.520   5.373 -0.4319 -0.1875 -0.4404
19811TIP3   OH280923   4.316   5.868   5.371  0.2272  0.0573  0.0139
19811TIP3    H180924   4.348   5.913   5.450 -1.7715  0.3353  0.7029
19811TIP3    H280925   4.233   5.911   5.350 -0.3609 -1.4686 -0.9692
19812TIP3   OH280926   6.063   3.668  13.059 -0.2821 -0.2166  0.0403
19812TIP3    H180927   6.099   3.728  13.125 -1.2997  0.7079 -0.2242
19812TIP3    H280928   6.017   3.724  12.998 -2.2820 -1.3545  0.4322
19813TIP3   OH280929   0.349   4.802   2.159  0.2679  0.3907 -0.0393
19813TIP3    H180930   0.441   4.827   2.166  0.2171  0.6550 -0.3345
19813TIP3    H280931   0.344   4.752   2.078  0.6827 -1.9571  1.2753
19814TIP3   OH280932   5.130   5.162   4.898  0.1851  0.2740  0.1249
19814TIP3    H180933   5.162   5.101   4.965 -0.5921  0.6414  0.8457
19814TIP3    H280934   5.048   5.195   4.933  0.7400  1.9810 -0.1192
19815TIP3   OH280935   1.980   2.748   6.321  0.3020 -0.6706  0.3410
19815TIP3    H180936   1.912   2.683   6.306 -1.4785  0.9943  0.8365
19815TIP3    H280937   1.994   2.747   6.415 -0.6030  0.4327  0.5141
19816TIP3   OH280938   3.319   4.850   1.456  0.3193 -0.0134  0.3211
19816TIP3    H180939   3.301   4.824   1.366 -1.9941  2.1402  0.0067
19816TIP3    H280940   3.395   4.800   1.482 -0.0075 -2.0275 -2.2285
19817TIP3   OH280941   2.993   5.599  13.161 -0.7294 -0.1821 -0.0435
19817TIP3    H180942   3.020   5.508  13.150  1.5142  0.5677 -1.6452
19817TIP3    H280943   2.905   5.603  13.123  0.1673 -1.2139 -2.4365
19818TIP3   OH280944   6.652   0.185  16.932 -0.1328  0.0429 -0.4161
19818TIP3    H180945   6.589   0.257  16.931  0.9769  1.0451 -0.5363
19818TIP3    H280946   6.657   0.158  17.024 -0.8549 -0.1691 -0.4340
19819TIP3   OH280947   4.110   1.729   4.817 -0.1802 -0.4683 -0.2104
19819TIP3    H180948   4.087   1.661   4.753 -0.7762  0.2075 -0.7335
19819TIP3    H280949   4.082   1.693   4.901  3.0829 -2.5614  0.1482
19820TIP3   OH280950   4.771   4.772   4.174  0.7677  0.5297 -0.4578
19820TIP3    H180951   4.698   4.832   4.160  0.3100 -0.0707 -0.7038
19820TIP3    H280952   4.796   4.743   4.086  1.9381  1.4591 -0.4517
19821TIP3   OH280953   2.643   5.177   1.187  0.3100  0.2422 -0.0399
19821TIP3    H180954   2.570   5.175   1.249  0.7244  2.5530  0.6380
19821TIP3    H280955   2.622   5.250   1.128  1.3231 -0.0708 -0.8147
19822TIP3   OH280956   2.766   5.670   1.191 -0.0107 -0.2522 -0.1705
19822TIP3    H180957   2.821   5.654   1.268 -0.1354  1.9339  0.4296
19822TIP3    H280958   2.826   5.704   1.125 -0.4857  1.6118  0.3044
19823TIP3   OH280959   5.776   6.597  15.936 -0.3238  0.6320 -0.1350
19823TIP3    H180960   5.735   6.546  15.866 -1.1827 -0.9976  1.4440
19823TIP3    H280961   5.868   6.602  15.913 -0.3025 -1.3019 -0.5931
19824TIP3   OH280962   5.416   4.023   2.484 -0.0324  0.4450 -0.1915
19824TIP3    H180963   5.438   4.097   2.427  1.6696 -0.1044 -0.3076
19824TIP3    H280964   5.450   4.048   2.570 -0.7991  0.4193  0.1267
19825TIP3   OH280965   5.335   6.673  14.195  0.2974  0.0787  0.2932
19825TIP3    H180966   5.309   6.621  14.271 -1.4239  1.1831  0.5271
19825TIP3    H280967   5.271   6.744  14.192  1.5057  1.1796 -1.0445
19826TIP3   OH280968   0.283   0.349  13.195  0.5796  0.3604  0.0077
19826TIP3    H180969   0.296   0.439  13.164  0.2995  0.7109  0.8661
19826TIP3    H280970   0.369   0.322  13.226  0.7927  0.1177 -0.7736
19827TIP3   OH280971   6.066   1.179   5.697  0.2501 -0.3083  0.0729
19827TIP3    H180972   6.016   1.238   5.641  0.0106 -0.9831 -0.4342
19827TIP3    H280973   6.034   1.197   5.786 -1.5285 -1.3137 -0.3101
19828TIP3   OH280974   2.846   2.619   1.282  0.5754 -0.5770 -0.2275
19828TIP3    H180975   2.836   2.582   1.195 -0.3153 -0.8343 -0.0240
19828TIP3    H280976   2.937   2.599   1.307  0.3780 -1.8662 -0.4680
19829TIP3   OH280977   5.154   4.709   0.175  0.0740  0.2919 -0.4368
19829TIP3    H180978   5.074   4.713   0.226  1.2763  1.5573  1.4927
19829TIP3    H280979   5.131   4.745   0.089 -1.3574  0.8565  0.1646
19830TIP3   OH280980   2.187   0.127   0.080  0.1586  0.1159  0.2844
19830TIP3    H180981   2.275   0.108   0.048  0.2331  1.6473 -0.5561
19830TIP3    H280982   2.128   0.086   0.016  0.1381 -3.2218  2.2592
19831TIP3   OH280983   3.133   2.680  13.676  0.3903  0.1558 -0.3495
19831TIP3    H180984   3.155   2.734  13.752  3.5014  0.9749 -1.6977
19831TIP3    H280985   3.195   2.608  13.679  0.1574 -0.1278 -1.8069
19832TIP3   OH280986   5.551   1.869   3.742 -0.2591 -0.3095 -0.6192
19832TIP3    H180987   5.637   1.857   3.700 -0.8245 -0.4157 -1.7749
19832TIP3    H280988   5.562   1.831   3.830  1.3365  1.0822 -0.1673
19833TIP3   OH280989   3.772   1.072   1.430 -0.1394  0.1695 -0.0642
19833TIP3    H180990   3.813   1.092   1.346 -1.1556  0.7511 -0.4331
19833TIP3    H280991   3.812   1.133   1.492  0.1722  0.1409 -0.2361
19834TIP3   OH280992   6.036   1.045  14.299 -0.0673 -0.1747 -0.7138
19834TIP3    H180993   6.128   1.055  14.276 -0.1138 -1.2179 -1.4392
19834TIP3    H280994   5.998   1.132  14.287  0.3599 -0.2142 -2.6178
19835TIP3   OH280995   4.083   2.395  11.989  0.8673 -0.3669  0.2739
19835TIP3    H180996   4.075   2.335  11.915  0.3703  1.3829 -1.1656
19835TIP3    H280997   4.167   2.440  11.975 -1.8332  4.5862 -3.0751
19836TIP3   OH280998   3.661   6.677   2.279 -0.2779  0.0100  0.0914
19836TIP3    H180999   3.714   6.689   2.201  1.2814 -0.7230  0.9649
19836TIP3    H281000   3.724   6.649   2.346 -1.2848  2.0196  2.0165
19837TIP3   OH281001   3.560   3.963  13.870 -0.2207  0.1672 -0.6709
19837TIP3    H181002   3.528   3.877  13.843 -0.4377 -0.0833  0.3502
19837TIP3    H281003   3.620   3.989  13.799  0.3208 -1.0839 -0.7104
19838TIP3   OH281004   4.915   1.421  11.483  0.0862 -0.4185  0.0602
19838TIP3    H181005   4.988   1.403  11.542 -0.6789 -0.1237  1.1234
19838TIP3    H281006   4.882   1.334  11.458  0.0414 -0.5444  0.5487
19839TIP3   OH281007   5.796   4.344  10.358 -0.0071  0.4897 -0.6617
19839TIP3    H181008   5.821   4.388  10.439 -0.2231  0.6877 -0.7018
19839TIP3    H281009   5.879   4.313  10.321  0.3602  2.2460 -1.4428
19840TIP3   OH281010   1.549   1.549   2.447 -0.3537 -0.2352 -0.5634
19840TIP3    H181011   1.519   1.497   2.373 -0.9862 -1.0364  0.2285
19840TIP3    H281012   1.590   1.486   2.506  0.9643  0.5294 -0.6233
19841TIP3   OH281013   2.719   2.038   6.356 -0.0660 -0.1169  0.1663
19841TIP3    H181014   2.695   2.080   6.274 -0.3476  0.2368  0.4312
19841TIP3    H281015   2.815   2.044   6.358 -0.0890  0.2806  0.0834
19842TIP3   OH281016   5.017   3.644   1.934  0.4338  0.0286 -0.3357
19842TIP3    H181017   4.922   3.659   1.929  0.3896  0.0397  0.4326
19842TIP3    H281018   5.042   3.620   1.845  0.1146  2.2758 -1.0992
19843TIP3   OH281019   6.839   1.937  16.257 -0.8019 -0.1448 -0.4722
19843TIP3    H181020   6.934   1.946  16.260 -0.9457  2.3531 -0.9347
19843TIP3    H281021   6.822   1.887  16.178  0.1117 -0.2565 -0.6085
19844TIP3   OH281022   0.181   2.058   6.738  0.2657  0.1456  0.1970
19844TIP3    H181023   0.248   2.123   6.757  1.0065 -0.8924  1.2114
19844TIP3    H281024   0.229   1.977   6.721 -0.6058 -0.0261 -1.7233
19845TIP3   OH281025   5.693   0.274   4.059 -0.2715  0.1852  0.3353
19845TIP3    H181026   5.637   0.266   3.982 -0.0059  2.2921 -0.1592
19845TIP3    H281027   5.654   0.216   4.124 -1.7029 -0.0943 -0.7315
19846TIP3   OH281028   1.346   4.138   3.925  0.3042 -0.7870 -0.8196
19846TIP3    H181029   1.407   4.205   3.894 -0.4616  0.4201  0.1663
19846TIP3    H281030   1.397   4.084   3.984  1.5444 -2.5633 -3.3674
19847TIP3   OH281031   4.893   3.852  13.870  0.7599  0.1026 -0.1909
19847TIP3    H181032   4.881   3.803  13.789 -2.4571 -1.3122  0.9699
19847TIP3    H281033   4.974   3.817  13.908  0.9780 -0.9833 -1.5695
19848TIP3   OH281034   0.779   6.151  11.870  0.0639  0.3956  0.1569
19848TIP3    H181035   0.829   6.092  11.927 -0.3047 -0.7638 -0.6719
19848TIP3    H281036   0.830   6.153  11.788 -0.6351  0.1214 -0.2932
19849TIP3   OH281037   3.877   1.822  11.385  0.3248  0.5461  0.3333
19849TIP3    H181038   3.928   1.807  11.305 -0.2777 -2.7469  0.4077
19849TIP3    H281039   3.929   1.783  11.455 -1.9160 -2.6068  0.4555
19850TIP3   OH281040   3.479   6.333   0.594  0.3475 -0.1510  0.2078
19850TIP3    H181041   3.502   6.241   0.583  2.1380  0.0987  1.3782
19850TIP3    H281042   3.514   6.375   0.516  0.6271 -0.3078  0.2454
19851TIP3   OH281043   2.309   5.289   5.778  0.5907 -0.2495 -0.0304
19851TIP3    H181044   2.353   5.349   5.839 -0.0524  2.0458 -1.6725
19851TIP3    H281045   2.227   5.266   5.822  0.3743  0.9551  0.2569
19852TIP3   OH281046   1.899   5.671  14.983  0.0708 -0.3905 -0.1188
19852TIP3    H181047   1.848   5.675  14.902  2.0979 -0.7277 -1.4860
19852TIP3    H281048   1.985   5.639  14.956  1.1552  0.5005  2.0172
19853TIP3   OH281049   5.933   3.248  15.823  0.9067  0.1833 -0.0435
19853TIP3    H181050   5.918   3.183  15.755 -2.0595  1.0684 -0.3772
19853TIP3    H281051   5.946   3.330  15.775  0.9022  0.4625  0.4261
19854TIP3   OH281052   5.303   6.764   1.176  0.0639 -0.1080 -0.3066
19854TIP3    H181053   5.225   6.769   1.120 -0.2666 -0.3166  0.1238
19854TIP3    H281054   5.313   6.853   1.210  0.1477 -0.0273 -0.5441
19855TIP3   OH281055   3.248   3.256  13.360  0.2956  0.2204 -0.2228
19855TIP3    H181056   3.339   3.262  13.331  0.4137 -1.6341 -0.3614
19855TIP3    H281057   3.209   3.340  13.335  1.2060 -0.0517 -2.8488
19856TIP3   OH281058   2.364   5.192   1.674 -0.6488 -0.0711  0.6274
19856TIP3    H181059   2.296   5.138   1.633  0.3992  0.3932 -1.9022
19856TIP3    H281060   2.324   5.278   1.685 -0.5021  0.2316 -0.9600
19857TIP3   OH281061   5.491   2.114   4.423 -0.0372  0.0780  0.7536
19857TIP3    H181062   5.535   2.180   4.478  3.8697 -0.6482 -1.1124
19857TIP3    H281063   5.516   2.138   4.333  0.6615 -3.2597 -0.0772
19858TIP3   OH281064   6.443   2.647  16.262  0.2594 -0.5303  0.4007
19858TIP3    H181065   6.370   2.585  16.263  1.6174 -2.1614  0.9833
19858TIP3    H281066   6.494   2.627  16.340  0.8577  1.2051  0.5070
19859TIP3   OH281067   1.646   6.733   1.890 -0.1820  0.2130  0.6835
19859TIP3    H181068   1.581   6.688   1.944  0.5609 -1.1411  0.4936
19859TIP3    H281069   1.724   6.678   1.896  0.8551  1.6295  0.6348
19860TIP3   OH281070   5.713   1.316  16.402 -0.1581  0.2246 -0.3003
19860TIP3    H181071   5.672   1.276  16.324  0.1857 -0.3787 -0.1792
19860TIP3    H281072   5.691   1.256  16.473  0.1019  0.4243 -0.0533
19861TIP3   OH281073   4.246   2.161   4.439 -0.1011 -0.2399 -0.1782
19861TIP3    H181074   4.226   2.073   4.469  1.3780 -1.0801 -1.5148
19861TIP3    H281075   4.202   2.169   4.355  0.1559  0.1245 -0.2815
19862TIP3   OH281076   3.325   4.338   1.429  0.0152 -0.6030  0.6833
19862TIP3    H181077   3.258   4.407   1.435  0.6401  0.0008  0.8080
19862TIP3    H281078   3.276   4.260   1.403 -0.8733 -0.3772  1.6174
19863TIP3   OH281079   4.793   1.574   0.221  0.2775 -0.1147 -0.4336
19863TIP3    H181080   4.724   1.586   0.287 -0.3255  3.0352 -1.4480
19863TIP3    H281081   4.751   1.525   0.151 -0.2454 -0.1765 -0.0835
19864TIP3   OH281082   6.475   2.584  15.458 -0.0921 -0.3486 -0.1179
19864TIP3    H181083   6.387   2.577  15.496 -0.2007 -0.6154 -0.4130
19864TIP3    H281084   6.465   2.550  15.369 -0.1602  1.5915 -0.9038
19865TIP3   OH281085   2.748   4.298   3.059 -0.3315 -0.3424  0.3756
19865TIP3    H181086   2.807   4.373   3.062 -0.6580 -0.0332 -0.8193
19865TIP3    H281087   2.805   4.224   3.039 -0.3814  0.0142 -1.1678
19866TIP3   OH281088   0.760   1.379   2.107 -0.4532 -0.5927  0.2816
19866TIP3    H181089   0.668   1.401   2.119 -0.9918 -1.3975 -1.8536
19866TIP3    H281090   0.774   1.384   2.012  1.9309  0.3050  0.6119
19867TIP3   OH281091   3.799   5.061  12.337  0.5640 -0.5463  0.4066
19867TIP3    H181092   3.833   5.039  12.250 -1.5705  0.4857 -0.7676
19867TIP3    H281093   3.821   5.153  12.349 -0.0779 -0.3988  0.4801
19868TIP3   OH281094   1.712   6.443  13.097  0.1188 -0.3737  0.2544
19868TIP3    H181095   1.780   6.501  13.132 -0.5621 -0.2583  1.4424
19868TIP3    H281096   1.700   6.376  13.165 -3.2045  1.4107  1.6441
19869TIP3   OH281097   1.472   4.924  11.892  0.3365 -0.1495 -0.5840
19869TIP3    H181098   1.534   4.857  11.864  1.1738  0.2091  0.3752
19869TIP3    H281099   1.517   4.973  11.961 -0.4399  1.1008 -0.9218
19870TIP3   OH281100   2.350   3.902   2.527  0.1043 -0.2339  0.0062
19870TIP3    H181101   2.299   3.831   2.566 -0.0954  0.0346  0.2410
19870TIP3    H281102   2.402   3.937   2.599 -1.4013  1.2733  0.4454
19871TIP3   OH281103   0.989   2.656   3.562 -0.3740  0.1891 -0.3002
19871TIP3    H181104   0.954   2.723   3.620  1.6414  0.5632  0.5918
19871TIP3    H281105   0.989   2.576   3.615  0.3188  0.2533 -0.1910
19872TIP3   OH281106   0.769   0.529  16.999  0.1487 -0.1863  0.1397
19872TIP3    H181107   0.840   0.575  17.043 -0.6306 -0.1838  1.4556
19872TIP3    H281108   0.770   0.442  17.039  0.2195 -0.5999 -0.7535
19873TIP3   OH281109   6.821   3.240   0.113 -0.5749 -0.4139  0.5342
19873TIP3    H181110   6.816   3.259   0.207  0.5633 -0.3729  0.6039
19873TIP3    H281111   6.821   3.145   0.107 -1.1656 -0.4141  0.5403
19874TIP3   OH281112   6.028   4.205   4.965 -0.1235 -0.0062 -0.3986
19874TIP3    H181113   5.937   4.185   4.985 -0.0902 -0.1485 -0.3859
19874TIP3    H281114   6.064   4.236   5.049 -0.3886  0.9126 -0.6117
19875TIP3   OH281115   1.465   1.277   0.459  0.3372 -0.7561  0.4719
19875TIP3    H181116   1.473   1.274   0.364 -1.3521 -0.9337  0.3036
19875TIP3    H281117   1.444   1.188   0.484 -1.6925 -0.2610  0.7105
19876TIP3   OH281118   6.106   5.167   1.085 -0.0806  0.3345 -0.1412
19876TIP3    H181119   6.017   5.174   1.050  0.5754 -0.3686 -2.0778
19876TIP3    H281120   6.101   5.096   1.149 -1.0839  0.9252  0.4707
19877TIP3   OH281121   1.051   2.296  11.522 -0.2395 -0.2355  0.0596
19877TIP3    H181122   1.009   2.279  11.606  0.6249 -2.0461  0.1664
19877TIP3    H281123   1.124   2.354  11.542 -2.5280  3.0208 -0.1333
19878TIP3   OH281124   6.588   2.385   2.643  0.7135 -0.2869  0.0073
19878TIP3    H181125   6.649   2.367   2.715  1.2698  3.1026  0.5600
19878TIP3    H281126   6.510   2.419   2.686  0.6499  0.7849 -0.9227
19879TIP3   OH281127   0.439   0.246   4.685  0.0885  0.4490 -0.3402
19879TIP3    H181128   0.393   0.312   4.632 -1.5363 -0.3620 -0.0146
19879TIP3    H281129   0.414   0.267   4.775 -1.7727 -1.4675 -0.3168
19880TIP3   OH281130   2.266   3.488   2.261 -0.1415  0.0922 -0.7050
19880TIP3    H181131   2.304   3.576   2.261 -0.3526  0.2307 -3.0207
19880TIP3    H281132   2.330   3.434   2.216 -0.1809 -0.9084  0.3839
19881TIP3   OH281133   5.796   1.062   0.370  0.5461 -0.0045 -0.1546
19881TIP3    H181134   5.806   1.152   0.400  1.5194  0.0162 -0.4934
19881TIP3    H281135   5.816   1.009   0.447 -0.3767  0.0614  0.1405
19882TIP3   OH281136   4.046   5.408  12.953  0.2999 -0.0797  0.3966
19882TIP3    H181137   4.070   5.499  12.940  1.3998 -0.5051 -0.7246
19882TIP3    H281138   4.021   5.376  12.866 -1.6230 -0.4514  1.0333
19883TIP3   OH281139   2.778   4.937   4.508  0.1051 -0.4825  0.5250
19883TIP3    H181140   2.799   5.019   4.552 -0.2033 -1.1947  2.0612
19883TIP3    H281141   2.682   4.936   4.504  0.1448  0.2396 -1.5231
19884TIP3   OH281142   5.650   4.461  11.511  0.8871 -0.4827 -0.1609
19884TIP3    H181143   5.625   4.370  11.494  0.2344 -0.1427 -1.1082
19884TIP3    H281144   5.723   4.454  11.573  0.2664 -1.6078  0.4768
19885TIP3   OH281145   5.598   0.632  15.259 -0.0636 -0.3578 -0.2275
19885TIP3    H181146   5.634   0.604  15.175 -0.5268  0.3648 -0.6798
19885TIP3    H281147   5.503   0.622  15.248 -0.1480  0.0698  0.0840
19886TIP3   OH281148   2.470   6.183  10.936 -0.1668 -0.0598 -0.0258
19886TIP3    H181149   2.401   6.151  10.878 -0.7090 -1.0316  1.1125
19886TIP3    H281150   2.491   6.108  10.992  0.1239  0.9307  1.2384
19887TIP3   OH281151   3.423   5.226   3.684  0.0449  0.1984  1.1049
19887TIP3    H181152   3.336   5.242   3.722 -0.3387  1.2413 -0.1572
19887TIP3    H281153   3.483   5.275   3.741 -0.1497 -0.6243  2.0556
19888TIP3   OH281154   2.963   1.148  14.864 -0.3749 -0.3438 -0.0305
19888TIP3    H181155   2.885   1.191  14.900 -0.0103 -0.5870  1.0817
19888TIP3    H281156   3.012   1.119  14.940 -0.3541 -2.2992 -0.7308
19889TIP3   OH281157   1.936   4.372   3.099 -0.2260 -0.1263 -0.2376
19889TIP3    H181158   1.962   4.463   3.091 -0.2388 -0.1886 -1.1555
19889TIP3    H281159   2.011   4.328   3.138  1.2135 -0.3338 -3.0047
19890TIP3   OH281160   3.011   4.977  13.067  0.1705 -0.0512 -0.3555
19890TIP3    H181161   2.958   4.944  13.140  1.3865 -1.3056  0.0155
19890TIP3    H281162   3.092   5.007  13.108  0.4385  0.2321 -1.0739
19891TIP3   OH281163   3.973   4.373   2.323  0.1691 -0.1585  0.2496
19891TIP3    H181164   4.068   4.380   2.333  0.0679 -0.1777  1.3245
19891TIP3    H281165   3.939   4.452   2.363 -0.3077 -0.5099  0.5438
19892TIP3   OH281166   5.457   3.363   5.587  0.0251  0.3176  0.0242
19892TIP3    H181167   5.502   3.383   5.669 -1.2164  1.2719  0.5008
19892TIP3    H281168   5.526   3.334   5.528  0.7854 -1.7903  1.8120
19893TIP3   OH281169   2.752   5.326  11.088 -0.5592  0.5166  0.1324
19893TIP3    H181170   2.771   5.236  11.062 -1.1221 -0.0018  1.4743
19893TIP3    H281171   2.663   5.341  11.058 -1.4353 -0.2869  2.1651
19894TIP3   OH281172   1.612   0.870   2.412 -0.0255 -0.2203  0.2813
19894TIP3    H181173   1.592   0.794   2.467  2.0571 -1.9923 -1.2431
19894TIP3    H281174   1.628   0.833   2.325  0.6321  2.0239 -0.6206
19895TIP3   OH281175   6.458   1.849   1.399 -0.2085  0.1864 -0.1898
19895TIP3    H181176   6.442   1.913   1.468 -0.0746  1.4265 -1.2648
19895TIP3    H281177   6.372   1.835   1.359 -0.0553  0.5359 -0.6511
19896TIP3   OH281178   0.729   0.937  16.326 -0.2623 -0.1797 -0.1323
19896TIP3    H181179   0.695   0.987  16.400 -0.8327  1.8826 -1.6887
19896TIP3    H281180   0.781   1.000  16.276 -1.2459 -0.9991 -2.3465
19897TIP3   OH281181   2.732   4.416   5.000 -0.3832  0.5493  0.0891
19897TIP3    H181182   2.647   4.412   5.043 -0.7202  2.9249 -0.2038
19897TIP3    H281183   2.717   4.379   4.913 -1.2526  1.3019 -0.0991
19898TIP3   OH281184   5.898   3.608  16.725  0.3266  0.0886 -0.3568
19898TIP3    H181185   5.849   3.610  16.643 -0.9770  2.1153  0.3814
19898TIP3    H281186   5.850   3.547  16.780  1.9685 -2.3478 -1.4326
19899TIP3   OH281187   5.013   0.419   2.912 -0.3767 -0.0203  0.3478
19899TIP3    H181188   5.035   0.506   2.945 -1.3835  0.4569 -0.1783
19899TIP3    H281189   4.969   0.436   2.828  1.0592 -1.1251 -0.6985
19900TIP3   OH281190   6.202   4.668   0.533  0.0639 -0.0498  0.7177
19900TIP3    H181191   6.228   4.690   0.622 -2.0055 -1.1027  1.6463
19900TIP3    H281192   6.127   4.610   0.543 -1.6742  1.5719 -1.6985
19901TIP3   OH281193   3.751   4.494  11.085  0.4641  0.3126  0.4379
19901TIP3    H181194   3.762   4.568  11.026 -1.4242  1.4078  1.3750
19901TIP3    H281195   3.839   4.455  11.092  0.6559 -0.3662 -3.5939
19902TIP3   OH281196   1.919   6.087   1.590  0.2317 -0.5267  0.3644
19902TIP3    H181197   1.955   6.107   1.503 -0.3635 -0.4340  0.1386
19902TIP3    H281198   1.989   6.111   1.651  1.2759 -2.0524 -0.1739
19903TIP3   OH281199   5.868   4.433   4.626 -0.2373 -0.3269  0.6060
19903TIP3    H181200   5.894   4.453   4.716 -2.4362  0.4362  1.1506
19903TIP3    H281201   5.779   4.399   4.634 -1.5243  2.2049 -1.4253
19904TIP3   OH281202   6.746   1.164  15.516  0.2725 -0.7397 -0.2399
19904TIP3    H181203   6.815   1.100  15.533  0.5873 -0.7474 -1.4530
19904TIP3    H281204   6.761   1.192  15.425  0.2180  1.1337  0.2821
19905TIP3   OH281205   6.516   1.628   4.600  0.1639  0.3276  0.1060
19905TIP3    H181206   6.579   1.671   4.657 -0.6995  2.0865 -0.1951
19905TIP3    H281207   6.515   1.681   4.521 -0.0820 -0.9568 -0.7837
19906TIP3   OH281208   2.392   1.702   0.185  0.0281  0.4259  0.0974
19906TIP3    H181209   2.400   1.608   0.200 -0.5488  0.3936  0.1933
19906TIP3    H281210   2.418   1.742   0.268 -0.1581  0.3394  0.1966
19907TIP3   OH281211   4.436   2.007  11.256 -0.3389 -0.0941 -0.2000
19907TIP3    H181212   4.356   2.056  11.278 -0.7646 -0.8759  0.0450
19907TIP3    H281213   4.482   2.063  11.194 -1.0887  0.3701 -0.3542
19908TIP3   OH281214   4.525   1.855   4.030 -0.0605  0.0514  0.0553
19908TIP3    H181215   4.456   1.915   4.003 -0.4859  0.2918  1.5755
19908TIP3    H281216   4.481   1.771   4.042 -0.3737  0.4354  2.0447
19909TIP3   OH281217   3.101   6.294   4.520 -0.2844 -0.2062 -0.7145
19909TIP3    H181218   3.064   6.289   4.608 -0.2729  0.8487 -0.6334
19909TIP3    H281219   3.137   6.382   4.514  1.1627 -0.8025 -1.2226
19910TIP3   OH281220   1.661   1.116  13.925  0.4257 -0.3351 -0.8739
19910TIP3    H181221   1.627   1.199  13.891 -0.8647 -0.6408 -0.4070
19910TIP3    H281222   1.605   1.049  13.886 -0.1457 -0.7937  0.6447
19911TIP3   OH281223   2.042   5.459  11.984 -0.1246  1.2067  0.7876
19911TIP3    H181224   1.975   5.497  12.041 -0.9912  1.5622 -0.4185
19911TIP3    H281225   2.031   5.506  11.901 -0.5948 -1.0272 -0.4747
19912TIP3   OH281226   4.027   6.022   3.890 -0.2646  0.2664 -0.4276
19912TIP3    H181227   4.049   6.097   3.835 -0.1409  1.6428  1.3975
19912TIP3    H281228   3.959   5.976   3.842 -0.5207  1.7011 -1.5009
19913TIP3   OH281229   4.771   5.392   0.654 -0.0291  0.0841 -0.0482
19913TIP3    H181230   4.764   5.464   0.717  3.7106 -0.7080  1.5236
19913TIP3    H281231   4.808   5.432   0.576 -0.4386  0.2785 -0.1482
19914TIP3   OH281232   6.154   5.819   0.101 -0.3065 -0.1373 -0.0227
19914TIP3    H181233   6.073   5.775   0.074 -0.3311 -0.0896 -0.0279
19914TIP3    H281234   6.214   5.808   0.028 -0.7759  1.0521 -0.6205
19915TIP3   OH281235   1.913   5.978   2.207  0.3466 -0.2324  0.3957
19915TIP3    H181236   1.912   6.070   2.233  0.9976 -0.2644  0.5368
19915TIP3    H281237   1.895   5.931   2.288 -0.7795 -0.2045  0.1752
19916TIP3   OH281238   4.584   1.836   1.818 -0.0167  0.4837  0.5159
19916TIP3    H181239   4.664   1.874   1.855  1.2775  0.9417 -2.4876
19916TIP3    H281240   4.613   1.754   1.777 -1.0640  0.6755 -0.6567
19917TIP3   OH281241   0.812   3.332   0.334  0.1860  0.1342 -0.0292
19917TIP3    H181242   0.843   3.413   0.294  0.5071  0.3931  0.7219
19917TIP3    H281243   0.740   3.303   0.278 -0.9262  1.7294  0.4981
19918TIP3   OH281244   3.493   3.031   3.449  0.1663  0.6379 -0.4835
19918TIP3    H181245   3.503   3.123   3.473  0.2537  0.9695 -1.7088
19918TIP3    H281246   3.582   2.998   3.441  0.1652  0.7990 -1.2710
19919TIP3   OH281247   0.782   2.618   2.110 -0.0388 -0.4976  0.2189
19919TIP3    H181248   0.835   2.658   2.178 -1.6452  2.2794  0.0099
19919TIP3    H281249   0.701   2.593   2.154 -0.0628 -1.1695 -0.1865
19920TIP3   OH281250   2.138   4.978   0.464  0.3350  1.2899  0.3979
19920TIP3    H181251   2.157   4.961   0.372  1.6069  0.5999  0.7665
19920TIP3    H281252   2.130   5.073   0.470  1.6111  1.4520 -0.1870
19921TIP3   OH281253   3.940   2.922   2.775 -0.3373 -0.1942 -0.1214
19921TIP3    H181254   3.909   2.872   2.700  0.1869 -0.6259 -0.0555
19921TIP3    H281255   4.032   2.898   2.784 -0.1901  0.4638  0.1714
19922TIP3   OH281256   3.147   0.568   4.299  0.0424  0.2715  0.2527
19922TIP3    H181257   3.060   0.596   4.328 -0.1749  1.0992 -1.0541
19922TIP3    H281258   3.207   0.601   4.366 -0.5057  1.3398  0.2517
19923TIP3   OH281259   3.977   0.210   0.832 -0.3842 -0.5155 -0.1617
19923TIP3    H181260   3.885   0.186   0.826 -0.8105  1.1395 -0.6168
19923TIP3    H281261   4.024   0.126   0.830 -1.7065 -1.2957 -2.7209
19924TIP3   OH281262   2.508   3.952   0.268  1.0159  0.0404  0.6174
19924TIP3    H181263   2.531   4.044   0.254  1.8936 -0.2398  0.1134
19924TIP3    H281264   2.593   3.907   0.271  0.5669 -0.9113 -0.2722
19925TIP3   OH281265   1.341   6.715  12.639 -0.2638  0.8396  0.1080
19925TIP3    H181266   1.388   6.798  12.638  2.3007 -0.4604 -2.5926
19925TIP3    H281267   1.393   6.659  12.696 -0.5222  0.3506 -0.1294
19926TIP3   OH281268   4.862   1.845   3.750  0.0946  0.1777 -0.2739
19926TIP3    H181269   4.792   1.788   3.782  1.0889 -1.0582 -0.2155
19926TIP3    H281270   4.875   1.817   3.659  1.6388 -0.8258  0.2030
19927TIP3   OH281271   4.523   1.305  13.538  1.0658  0.7635  0.2394
19927TIP3    H181272   4.586   1.238  13.564 -0.8355 -0.7688  1.1276
19927TIP3    H281273   4.497   1.279  13.449 -1.0137 -0.8687  1.2285
19928TIP3   OH281274   3.490   5.920   1.451 -1.0848 -0.7487 -0.0718
19928TIP3    H181275   3.571   5.903   1.402 -1.2949  0.2306 -0.7744
19928TIP3    H281276   3.426   5.860   1.413 -0.8894 -0.9972 -0.0169
19929TIP3   OH281277   0.871   4.112  11.046  0.2004 -0.0121  0.7217
19929TIP3    H181278   0.950   4.108  10.992 -0.5397 -1.2569 -0.2969
19929TIP3    H281279   0.799   4.111  10.984 -0.6494  1.8579  1.6085
19930TIP3   OH281280   3.847   1.513   1.889  0.0827 -0.3093 -0.4222
19930TIP3    H181281   3.776   1.554   1.838  0.4095 -0.6035 -1.1218
19930TIP3    H281282   3.830   1.419   1.883  0.3670 -0.3656 -0.3417
19931TIP3   OH281283   0.334   1.934   2.875  0.0552  0.0589  0.7114
19931TIP3    H181284   0.266   1.898   2.933  0.2699  1.4294  1.8496
19931TIP3    H281285   0.305   2.023   2.855  0.8477  0.1893  0.0745
19932TIP3   OH281286   3.756   0.473   4.781 -0.0385  0.4317  0.1913
19932TIP3    H181287   3.705   0.412   4.727  0.1432 -0.3631  0.8901
19932TIP3    H281288   3.704   0.484   4.860  1.0994 -0.8342  1.1591
19933TIP3   OH281289   2.278   3.049   4.077 -0.1229 -0.1352  0.3589
19933TIP3    H181290   2.373   3.057   4.085 -0.1570  1.5329 -0.5567
19933TIP3    H281291   2.262   2.954   4.077  1.7831 -0.5512 -2.1441
19934TIP3   OH281292   6.133   2.439   4.310  0.7775 -0.2424 -0.2848
19934TIP3    H181293   6.144   2.363   4.253 -2.3807  0.1712 -1.6523
19934TIP3    H281294   6.063   2.490   4.269 -1.9338  0.0076  3.9658
19935TIP3   OH281295   1.800   2.512   3.684  0.4726 -0.0136  0.1428
19935TIP3    H181296   1.832   2.463   3.608 -0.7770 -0.3321 -0.2187
19935TIP3    H281297   1.796   2.603   3.654  0.9123  0.0058  0.1475
19936TIP3   OH281298   2.160   6.770   2.094  0.4324 -0.2697 -0.4347
19936TIP3    H181299   2.104   6.822   2.036 -0.0549  0.2036  0.4308
19936TIP3    H281300   2.237   6.826   2.108  1.0411 -0.8206 -1.4338
19937TIP3   OH281301   2.854   4.943   3.187  0.0513 -0.8329  0.2037
19937TIP3    H181302   2.888   4.870   3.135  0.2143 -1.5873  1.3111
19937TIP3    H281303   2.796   4.901   3.251 -1.1802  0.2024 -0.2035
19938TIP3   OH281304   2.772   6.128  11.453 -0.3577  0.2888 -0.1579
19938TIP3    H181305   2.858   6.086  11.457 -1.0641 -1.3046 -0.5663
19938TIP3    H281306   2.765   6.158  11.362 -0.9424 -1.2955 -0.6796
19939TIP3   OH281307   0.169   0.952   0.616 -0.5384 -0.0739  0.0595
19939TIP3    H181308   0.190   0.864   0.650 -0.6664  0.2991  1.1520
19939TIP3    H281309   0.243   0.973   0.559 -1.6801 -1.8908 -2.2733
19940TIP3   OH281310   1.469   5.539  13.388  0.3961 -0.0948 -0.0839
19940TIP3    H181311   1.495   5.588  13.310 -0.1780  0.7324  0.2362
19940TIP3    H281312   1.396   5.588  13.424  0.3648 -0.7221  0.7292
19941TIP3   OH281313   3.482   1.792  13.328  0.3579 -0.3319 -0.6803
19941TIP3    H181314   3.530   1.873  13.310 -0.1681  0.0443 -0.4152
19941TIP3    H281315   3.550   1.730  13.354  0.6145  0.4808  0.7109
19942TIP3   OH281316   0.882   5.178  13.071 -0.1852 -0.5794  0.3781
19942TIP3    H181317   0.880   5.266  13.110 -1.1254 -0.7003  0.6327
19942TIP3    H281318   0.834   5.186  12.989  0.3062 -0.7165  0.0674
19943TIP3   OH281319   0.034   4.207   5.580 -0.3964  0.2181 -0.1661
19943TIP3    H181320   0.083   4.287   5.603 -0.8007  0.4128  0.0277
19943TIP3    H281321   0.067   4.183   5.494 -0.6887  0.9356 -0.4854
19944TIP3   OH281322   6.590   1.721  11.913 -0.1818  0.7043  0.2320
19944TIP3    H181323   6.617   1.761  11.831 -1.6102  1.8901  0.3033
19944TIP3    H281324   6.516   1.665  11.889 -1.8194  2.4614  0.8987
19945TIP3   OH281325   5.278   4.783  12.961  0.4775 -0.1218  0.4918
19945TIP3    H181326   5.343   4.782  13.031 -1.0034 -1.2287  1.9254
19945TIP3    H281327   5.205   4.833  12.998 -0.0228 -0.0308 -0.5921
19946TIP3   OH281328   3.439   0.785  14.933  0.0363 -0.4590  0.9510
19946TIP3    H181329   3.425   0.805  14.840  0.5555  0.0899  0.9819
19946TIP3    H281330   3.498   0.709  14.932 -1.6230 -1.8238  0.8367
19947TIP3   OH281331   0.191   0.037   2.455  0.2421  0.4515  0.2091
19947TIP3    H181332   0.264   0.099   2.458 -0.0647  0.7850  1.8617
19947TIP3    H281333   0.222  -0.040   2.502 -0.4358  0.5804  0.8876
19948TIP3   OH281334   3.385   2.390   3.203  0.2774 -0.3431  0.1236
19948TIP3    H181335   3.385   2.368   3.109 -0.7095 -0.5706  0.1572
19948TIP3    H281336   3.477   2.385   3.229  0.5626 -0.2923 -0.8312
19949TIP3   OH281337   4.345   0.969  13.821  0.3979 -0.6582 -0.1455
19949TIP3    H181338   4.421   1.018  13.852 -0.8180 -0.3290  2.5873
19949TIP3    H281339   4.335   0.995  13.730  0.6505  3.1443  0.7409
19950TIP3   OH281340   0.926   5.353   3.031 -0.0360  0.4132  0.2177
19950TIP3    H181341   0.908   5.260   3.018 -1.0358  0.3684  1.7203
19950TIP3    H281342   1.019   5.356   3.050 -0.1669 -0.4134  1.0987
19951TIP3   OH281343   0.093   2.296  16.940 -0.3002  0.3369  0.3418
19951TIP3    H181344   0.073   2.203  16.929 -0.1816  0.1537  1.5978
19951TIP3    H281345   0.027   2.341  16.886 -0.5865 -0.4504  0.0167
19952TIP3   OH281346   3.842   2.768  14.930 -0.3877  0.6321 -0.1182
19952TIP3    H181347   3.754   2.746  14.902  0.5347 -1.5614 -1.5672
19952TIP3    H281348   3.898   2.705  14.885  1.8803  1.5822  1.1947
19953TIP3   OH281349   0.575   2.151   2.521 -0.3335  0.0150 -0.1485
19953TIP3    H181350   0.491   2.107   2.510 -0.3489  0.4025 -1.7971
19953TIP3    H281351   0.554   2.244   2.529 -0.0041  0.3513 -2.5399
19954TIP3   OH281352   2.941   0.271   5.452  0.4109 -0.0084  0.6547
19954TIP3    H181353   2.862   0.310   5.488  1.9731  3.0262  1.1877
19954TIP3    H281354   2.928   0.272   5.357 -0.0254  0.9111  0.7182
19955TIP3   OH281355   2.349   6.212  13.679 -0.3498  0.3492  0.5850
19955TIP3    H181356   2.277   6.154  13.656  0.6171 -1.2644  1.4535
19955TIP3    H281357   2.414   6.199  13.610  0.9630 -1.6571  2.0857
19956TIP3   OH281358   5.016   6.614  13.540  0.1973  0.4345  0.5322
19956TIP3    H181359   4.963   6.568  13.475  0.2926 -0.8444  1.3183
19956TIP3    H281360   5.076   6.547  13.574  0.8217  1.3128  1.2298
19957TIP3   OH281361   3.034   0.159  15.425 -0.4867  0.0727  0.0268
19957TIP3    H181362   3.080   0.192  15.347 -0.1402 -0.3103  0.0628
19957TIP3    H281363   3.002   0.238  15.469 -0.9154  0.2854 -0.6364
19958TIP3   OH281364   0.477   6.587  13.949 -0.5669 -0.5119 -0.2756
19958TIP3    H181365   0.496   6.650  13.879  1.5663 -1.5754 -0.7545
19958TIP3    H281366   0.554   6.591  14.006 -2.4717  0.7128  2.4055
19959TIP3   OH281367   1.459   1.648  11.661  0.2662 -0.4351  0.4524
19959TIP3    H181368   1.380   1.607  11.628 -0.1137  0.3554  0.3529
19959TIP3    H281369   1.515   1.659  11.584 -0.0193  0.0803  0.3139
19960TIP3   OH281370   6.335   1.093   4.407  0.3277 -0.8985  0.3933
19960TIP3    H181371   6.298   1.154   4.343 -0.3695 -0.8669  0.8134
19960TIP3    H281372   6.346   1.144   4.486  1.6586 -0.8152  0.1702
19961TIP3   OH281373   6.554   4.599   5.064 -0.2580  0.4660  0.0070
19961TIP3    H181374   6.477   4.595   5.122 -0.0347 -1.4338  0.2154
19961TIP3    H281375   6.626   4.621   5.123 -0.5940  2.3235 -0.1986
19962TIP3   OH281376   5.436   4.682  14.073 -0.4776 -0.3188  0.2963
19962TIP3    H181377   5.522   4.677  14.115 -0.6393 -0.3928  0.6184
19962TIP3    H281378   5.446   4.752  14.008  0.2453 -1.2627 -0.6446
19963TIP3   OH281379   4.058   2.647  11.373  0.2567 -0.2153  0.8643
19963TIP3    H181380   4.123   2.713  11.347  0.8019 -0.8649  0.5587
19963TIP3    H281381   4.058   2.584  11.301 -0.7744 -0.1811  0.8257
19964TIP3   OH281382   3.483   0.076  16.044  0.5543 -0.4540 -0.3592
19964TIP3    H181383   3.549   0.133  16.084  0.3579 -0.3186 -0.2259
19964TIP3    H281384   3.498   0.084  15.950  1.2697 -1.0746 -0.3092
19965TIP3   OH281385   6.808   0.555   4.993 -0.0872 -0.4375 -0.1703
19965TIP3    H181386   6.816   0.480   4.935  1.4040  0.9698 -1.8741
19965TIP3    H281387   6.716   0.554   5.020  0.0723 -3.3588  0.6250
19966TIP3   OH281388   2.449   3.429  15.507  0.1214  0.2030 -0.2605
19966TIP3    H181389   2.447   3.451  15.413 -2.8431  0.5193 -0.1997
19966TIP3    H281390   2.389   3.355  15.516  0.4998  0.0647  1.3932
19967TIP3   OH281391   1.714   1.854  11.276 -0.1448 -0.1214 -0.5101
19967TIP3    H181392   1.656   1.877  11.203 -0.2481 -0.3148 -0.4895
19967TIP3    H281393   1.800   1.845  11.235 -0.4467 -1.6245 -0.8696
19968TIP3   OH281394   6.140   0.995   6.743  0.2045 -0.3702 -0.4963
19968TIP3    H181395   6.218   1.017   6.795  0.4152 -0.5761 -0.7201
19968TIP3    H281396   6.099   0.923   6.790 -1.4953  1.5854  1.2433
19969TIP3   OH281397   5.220   3.058  10.687  0.4667  0.2490  0.6454
19969TIP3    H181398   5.288   3.003  10.648  1.2155  0.8496  1.0740
19969TIP3    H281399   5.232   3.144  10.647  1.2179  0.8644  2.1014
19970TIP3   OH281400   6.475   4.001   2.666  0.1185 -0.5082 -0.2156
19970TIP3    H181401   6.516   3.957   2.740  1.1382 -0.0745 -0.5128
19970TIP3    H281402   6.507   3.953   2.589 -0.1462 -0.3336 -0.4383
19971TIP3   OH281403   0.508   5.946   1.507 -0.7223 -0.0221  0.3942
19971TIP3    H181404   0.583   5.888   1.514 -0.5676  0.2477  1.0597
19971TIP3    H281405   0.546   6.033   1.498 -0.9530  0.1108  0.6941
19972TIP3   OH281406   5.602   4.567   4.363 -0.6189 -0.1633  0.2487
19972TIP3    H181407   5.571   4.491   4.314 -0.7614  0.9557 -1.5321
19972TIP3    H281408   5.690   4.544   4.391 -0.2602 -0.6496 -1.1664
19973TIP3   OH281409   5.990   0.542  16.372  0.1447 -0.7694 -0.5907
19973TIP3    H181410   5.907   0.549  16.325 -0.2826  0.1376  0.2519
19973TIP3    H281411   5.965   0.531  16.464  0.9577 -0.6930 -0.3505
19974TIP3   OH281412   4.032   3.836  15.229  0.1543 -0.1680 -0.2140
19974TIP3    H181413   4.020   3.926  15.260  0.4882 -0.6424  1.3633
19974TIP3    H281414   4.016   3.841  15.134 -2.5401  1.0718  0.2010
19975TIP3   OH281415   6.247   5.894  13.880  0.0566 -0.5035 -0.1364
19975TIP3    H181416   6.174   5.872  13.822  0.6774 -1.1426 -0.6961
19975TIP3    H281417   6.322   5.848  13.843  0.9071  0.6949  0.0161
19976TIP3   OH281418   6.570   0.982   4.594 -0.2353 -0.4917 -0.3139
19976TIP3    H181419   6.512   0.935   4.534  0.5447 -2.0013  0.0692
19976TIP3    H281420   6.640   1.016   4.539 -0.2825 -0.6251 -0.4575
19977TIP3   OH281421   0.498   0.341  14.733  0.4407  0.1080 -0.0062
19977TIP3    H181422   0.543   0.262  14.705  1.4278  0.7063 -0.1644
19977TIP3    H281423   0.469   0.383  14.652 -0.1672 -0.1347  0.0812
19978TIP3   OH281424   4.097   2.936  12.370  0.8673 -0.5682 -0.1995
19978TIP3    H181425   4.172   2.876  12.373  0.0353 -1.6750 -0.8434
19978TIP3    H281426   4.079   2.948  12.277 -0.7594 -1.6313 -0.0631
19979TIP3   OH281427   5.053   4.529   1.854  0.2861  0.5078  0.6000
19979TIP3    H181428   4.998   4.488   1.787 -0.0130  1.5094  0.2138
19979TIP3    H281429   5.123   4.465   1.870  0.2867  0.1900 -0.5719
19980TIP3   OH281430   0.309   4.927   1.778 -0.2199 -0.0337  0.3109
19980TIP3    H181431   0.298   4.833   1.792  0.9677 -0.0041  1.7078
19980TIP3    H281432   0.350   4.935   1.692 -0.1357 -0.7927  0.2782
19981TIP3   OH281433   2.698   1.114   5.561  0.5840 -0.0138  0.0739
19981TIP3    H181434   2.748   1.132   5.641 -0.0522 -0.1437  0.5063
19981TIP3    H281435   2.706   1.194   5.510  1.5004 -0.1440 -0.0079
19982TIP3   OH281436   3.814   1.899  10.693 -0.1805  0.1033  0.4415
19982TIP3    H181437   3.750   1.828  10.692  0.6156 -0.6699  1.6498
19982TIP3    H281438   3.894   1.859  10.726  0.9501  1.0627 -1.0102
19983TIP3   OH281439   6.188   5.479   0.189 -0.8881 -0.2513 -0.2950
19983TIP3    H181440   6.109   5.492   0.135 -1.2126 -1.2272 -0.0730
19983TIP3    H281441   6.250   5.436   0.130 -0.7244 -0.0193 -0.2944
19984TIP3   OH281442   6.740   1.048  14.737  0.0050 -0.3160 -0.3684
19984TIP3    H181443   6.783   1.132  14.752  0.4855 -0.6811  0.3466
19984TIP3    H281444   6.758   1.028  14.645 -1.4961  1.1260 -1.0118
19985TIP3   OH281445   3.759   1.976   1.919 -0.1888  0.5905  0.0517
19985TIP3    H181446   3.827   1.984   1.987 -1.1574 -0.8359  1.2500
19985TIP3    H281447   3.808   1.966   1.837  1.0110  1.5511  0.6115
19986TIP3   OH281448   2.864   1.703  12.846  0.1083  0.3572 -0.2107
19986TIP3    H181449   2.824   1.785  12.874 -0.3530  0.1673 -0.3089
19986TIP3    H281450   2.957   1.714  12.866  0.2133  1.2653 -1.0621
19987TIP3   OH281451   3.129   2.638  17.051 -0.0999 -0.2006 -0.3574
19987TIP3    H181452   3.209   2.630  16.998  0.0878  0.4044 -0.1699
19987TIP3    H281453   3.120   2.732  17.066 -0.7331 -0.2874 -0.1947
19988TIP3   OH281454   0.579   2.230   4.666  0.6901  0.0633 -0.2170
19988TIP3    H181455   0.620   2.223   4.580 -0.1083  0.8771 -0.6816
19988TIP3    H281456   0.487   2.209   4.650  0.8523 -1.5723  0.7712
19989TIP3   OH281457   6.015   2.705   2.436 -0.4989  0.4416  0.6932
19989TIP3    H181458   5.973   2.694   2.521  0.2476  0.2237  1.0481
19989TIP3    H281459   5.970   2.644   2.379 -0.5685  0.1063  1.1000
19990TIP3   OH281460   1.294   5.813  15.810  0.1752  0.2194 -0.2138
19990TIP3    H181461   1.252   5.863  15.880  0.4967 -0.7033  0.6612
19990TIP3    H281462   1.250   5.842  15.730 -0.9657  0.4933  0.4919
19991TIP3   OH281463   5.013   1.028  11.847 -0.3349 -0.2044  0.5367
19991TIP3    H181464   5.025   0.948  11.796  0.6414 -0.3695  1.0021
19991TIP3    H281465   5.099   1.070  11.845 -0.4992  0.1767  1.3910
19992TIP3   OH281466   5.020   4.299   3.409 -0.3449  0.2590  0.0203
19992TIP3    H181467   4.944   4.345   3.374 -0.7223  1.0830  1.7699
19992TIP3    H281468   5.064   4.364   3.464  0.7517 -0.6527  0.2676
19993TIP3   OH281469   2.149   0.265  13.079  0.5110 -0.4025  0.2463
19993TIP3    H181470   2.085   0.205  13.116  0.0456 -0.3681 -0.4867
19993TIP3    H281471   2.215   0.208  13.039 -0.6519 -0.4764 -1.6997
19994TIP3   OH281472   3.693   0.330   0.813 -0.1472 -0.0945  0.0222
19994TIP3    H181473   3.773   0.383   0.820  0.5411 -1.0157 -0.5567
19994TIP3    H281474   3.633   0.369   0.876  0.2204  1.5513 -0.5938
19995TIP3   OH281475   2.600   6.730  12.616  0.6030 -0.3092  0.5703
19995TIP3    H181476   2.559   6.779  12.544  1.9520  1.8996  1.2254
19995TIP3    H281477   2.555   6.761  12.694  0.2906 -1.4501  0.8554
19996TIP3   OH281478   2.271   1.329   3.320 -0.5605 -0.5329  0.8886
19996TIP3    H181479   2.335   1.396   3.341 -0.2969 -0.4971  0.0222
19996TIP3    H281480   2.219   1.367   3.249  0.9482 -1.9953 -1.1479
19997TIP3   OH281481   1.116   0.447   5.376 -0.5709 -0.5580  0.2214
19997TIP3    H181482   1.188   0.436   5.438 -0.5400 -0.2040  0.2553
19997TIP3    H281483   1.158   0.440   5.290 -0.1146  1.6333  0.2066
19998TIP3   OH281484   0.407   1.678   1.425  0.1955  0.2988  0.0800
19998TIP3    H181485   0.424   1.624   1.502  0.7185  0.0416 -0.2079
19998TIP3    H281486   0.353   1.750   1.458 -0.1601 -0.1740  0.5462
19999TIP3   OH281487   5.418   0.312   5.712 -0.4336  0.0544 -0.0797
19999TIP3    H181488   5.401   0.258   5.636 -1.1067  0.2988 -0.1096
19999TIP3    H281489   5.349   0.378   5.711 -0.1656  0.3556  0.4684
20000TIP3   OH281490   2.132   6.479   4.269 -0.1885  0.4707 -0.4074
20000TIP3    H181491   2.094   6.415   4.329  0.9125  1.0174  0.9172
20000TIP3    H281492   2.084   6.466   4.187 -1.0887 -0.9314  0.3019
20001TIP3   OH281493   3.835   2.402  11.270 -0.2915  0.5906 -0.6207
20001TIP3    H181494   3.900   2.431  11.206  0.1412 -0.1065 -0.5116
20001TIP3    H281495   3.804   2.318  11.237 -1.1414  0.9096 -0.6644
20002TIP3   OH281496   0.973   2.398  12.444 -0.0753  1.1225 -0.5198
20002TIP3    H181497   1.047   2.387  12.505 -0.2486  1.7626 -0.1813
20002TIP3    H281498   0.995   2.476  12.394  0.3775  0.2351 -1.7545
20003TIP3   OH281499   6.618   4.285   5.568  0.0637  0.3466  0.1664
20003TIP3    H181500   6.587   4.318   5.652 -1.1291  0.1610 -0.1840
20003TIP3    H281501   6.705   4.248   5.587 -0.5587 -0.5136  1.5027
20004TIP3   OH281502   6.101   5.820   0.377  0.1095  0.2354 -0.5715
20004TIP3    H181503   6.006   5.829   0.374  0.0763  0.1113 -0.0242
20004TIP3    H281504   6.128   5.820   0.285 -0.4018  0.4251 -0.7266
20005TIP3   OH281505   2.168   0.822   0.408 -0.3731  0.5557 -0.0671
20005TIP3    H181506   2.165   0.886   0.337  0.4262  1.5671  0.7800
20005TIP3    H281507   2.144   0.872   0.486  0.1653 -0.1929  0.5923
20006TIP3   OH281508   0.734   5.555  12.090  0.5904 -0.7233  0.0417
20006TIP3    H181509   0.776   5.598  12.165  0.4654  0.2543 -0.4280
20006TIP3    H281510   0.797   5.489  12.061  0.5482 -1.2638  1.1331
20007TIP3   OH281511   4.058   2.515  13.367  0.2072  0.1576  0.5168
20007TIP3    H181512   4.090   2.507  13.457 -2.3032 -0.8168  1.4066
20007TIP3    H281513   3.970   2.479  13.370 -0.3622  1.1384 -2.1284
20008TIP3   OH281514   1.239   5.890   2.535  0.5023  0.4585  0.2298
20008TIP3    H181515   1.216   5.873   2.626  0.2718  1.5069  0.3844
20008TIP3    H281516   1.155   5.903   2.491  0.6583  1.2531  0.1528
20009TIP3   OH281517   4.690   1.143  14.854 -0.3091  0.1237 -0.3168
20009TIP3    H181518   4.653   1.210  14.912  2.2078 -1.8104  4.0812
20009TIP3    H281519   4.621   1.077  14.847 -1.0207  0.8611 -0.3939
20010TIP3   OH281520   1.875   0.582   6.706 -0.6239 -0.4855 -0.3109
20010TIP3    H181521   1.842   0.662   6.749  0.4326 -0.3072  0.2031
20010TIP3    H281522   1.802   0.521   6.709 -0.1161 -1.1640  3.4742
20011TIP3   OH281523   0.329   6.784  15.812 -0.3590  0.1748  0.2673
20011TIP3    H181524   0.357   6.730  15.886 -1.1483 -0.9564 -0.2483
20011TIP3    H281525   0.234   6.774  15.808 -0.7137  2.5126  0.8369
20012TIP3   OH281526   0.876   1.375   6.585  0.7103 -0.3504 -0.1856
20012TIP3    H181527   0.938   1.332   6.526 -0.6834 -1.5146 -0.8811
20012TIP3    H281528   0.798   1.389   6.532 -0.8611 -2.0575  1.4647
20013TIP3   OH281529   1.200   0.304  16.385  0.3588 -0.1357 -0.0492
20013TIP3    H181530   1.237   0.388  16.359 -3.6278  1.8395 -0.0894
20013TIP3    H281531   1.147   0.277  16.309 -1.7492 -0.4671  1.4542
20014TIP3   OH281532   0.942   5.978   2.626 -0.0938  0.2753  0.7558
20014TIP3    H181533   0.871   5.982   2.562  0.3520  0.8594  0.2817
20014TIP3    H281534   0.925   5.898   2.676 -0.1334 -0.5158 -0.4733
20015TIP3   OH281535   3.366   6.661  15.583  0.3044  0.5662  0.2215
20015TIP3    H181536   3.432   6.638  15.517 -0.6894  0.5099 -0.7938
20015TIP3    H281537   3.297   6.595  15.572  0.8939 -0.5479  2.5693
20016TIP3   OH281538   6.393   1.707  14.344  0.2487 -0.0479 -0.4428
20016TIP3    H181539   6.358   1.763  14.413 -0.9579 -0.8257 -0.4079
20016TIP3    H281540   6.488   1.713  14.355  0.1048  0.8511  0.4556
20017TIP3   OH281541   6.541   2.648   2.543  0.1679 -0.6851 -0.0325
20017TIP3    H181542   6.461   2.608   2.576 -0.7048  1.0880  0.1325
20017TIP3    H281543   6.605   2.636   2.614 -0.2298 -1.2887  0.2294
20018TIP3   OH281544   4.133   0.797   5.165  0.0479 -0.1071  0.0543
20018TIP3    H181545   4.165   0.707   5.163  1.8874  0.4947  0.4903
20018TIP3    H281546   4.198   0.844   5.217 -0.1218  1.7641 -1.3331
20019TIP3   OH281547   1.061   4.375  13.619 -0.1228  0.8724 -0.6150
20019TIP3    H181548   1.129   4.346  13.680  0.2903  0.1155 -1.4098
20019TIP3    H281549   1.049   4.468  13.639 -0.6857  0.4495  1.2554
20020TIP3   OH281550   0.625   6.090   2.724  0.0024 -0.0211  0.3264
20020TIP3    H181551   0.693   6.080   2.656 -0.5188 -0.9535 -0.0744
20020TIP3    H281552   0.573   6.010   2.718  0.8576 -0.8695  2.8797
20021TIP3   OH281553   1.604   5.848   1.363  0.5996  0.4440  0.2022
20021TIP3    H181554   1.509   5.851   1.374  0.7835  0.9959  1.9386
20021TIP3    H281555   1.624   5.924   1.308  0.0107 -0.0353 -0.7220
20022TIP3   OH281556   0.007   4.436  12.078  0.0996  0.2672 -0.1493
20022TIP3    H181557  -0.049   4.435  12.155 -0.1944  0.6741 -0.3532
20022TIP3    H281558   0.048   4.349  12.077 -1.3306 -0.4374 -0.5780
20023TIP3   OH281559   1.547   3.723  17.020  0.0063 -0.3021 -0.3808
20023TIP3    H181560   1.519   3.724  16.929 -0.5934  1.4593 -0.2214
20023TIP3    H281561   1.518   3.638  17.053  0.5792 -1.1299 -1.9110
20024TIP3   OH281562   2.996   6.827   5.692  1.0904  0.3592  0.0925
20024TIP3    H181563   2.956   6.865   5.614  1.8460  1.1866  0.0862
20024TIP3    H281564   3.018   6.737   5.667 -1.6088 -0.4807  0.4153
20025TIP3   OH281565   0.973   0.324   0.230 -0.1530 -0.2475 -0.0366
20025TIP3    H181566   0.886   0.284   0.242 -1.0661  1.4142 -0.7805
20025TIP3    H281567   0.981   0.384   0.304  0.6996 -0.9152  0.4258
20026TIP3   OH281568   0.844   0.054   4.269 -0.1532 -0.4835 -0.1376
20026TIP3    H181569   0.930   0.018   4.250 -1.0006 -1.4404 -2.5713
20026TIP3    H281570   0.846   0.143   4.232  0.2356  0.0668  1.1541
20027TIP3   OH281571   4.923   2.409  15.816  0.1345 -0.0037 -0.0439
20027TIP3    H181572   4.962   2.341  15.762  0.0575 -0.6252  0.6596
20027TIP3    H281573   4.854   2.447  15.762  1.1415  0.5324 -0.9880
20028TIP3   OH281574   3.421   5.547  12.996  0.0308 -0.0383  0.1890
20028TIP3    H181575   3.372   5.563  13.077 -1.6838  0.9739 -0.9744
20028TIP3    H281576   3.491   5.612  12.996 -0.6573  0.7172  0.3465
20029TIP3   OH281577   6.275   5.882  15.783 -0.3218 -0.4909  0.2001
20029TIP3    H181578   6.240   5.916  15.866 -1.0700 -0.6974 -0.0225
20029TIP3    H281579   6.199   5.844  15.739  0.2683 -1.3156 -0.1176
20030TIP3   OH281580   3.885   6.413   6.094 -0.0706  0.7697  0.2656
20030TIP3    H181581   3.854   6.416   6.003 -2.1051 -0.8674  0.8363
20030TIP3    H281582   3.970   6.370   6.089 -0.5427 -0.0825 -0.7958
20031TIP3   OH281583   1.872   5.905  16.668  0.0059 -0.3670 -0.1293
20031TIP3    H181584   1.883   5.997  16.641 -0.6296 -0.2725 -0.0735
20031TIP3    H281585   1.928   5.856  16.608 -0.9138 -0.0997 -1.2331
20032TIP3   OH281586   2.618   3.619  14.384 -0.0762 -0.4416  0.6005
20032TIP3    H181587   2.622   3.536  14.431  3.2339  0.7013  2.6008
20032TIP3    H281588   2.686   3.612  14.317 -0.4386  0.3195  0.1404
20033TIP3   OH281589   0.122   1.426  14.227 -0.6127 -0.5365 -0.5812
20033TIP3    H181590   0.039   1.380  14.240 -1.2800  1.0567  1.1236
20033TIP3    H281591   0.117   1.502  14.284  2.1449 -0.5171 -0.2340
20034TIP3   OH281592   4.236   6.294  10.191  0.2230  0.2491  0.5136
20034TIP3    H181593   4.160   6.350  10.207 -0.6873 -0.2100 -1.8081
20034TIP3    H281594   4.300   6.353  10.150 -1.0014 -0.4004 -2.6005
20035TIP3   OH281595   4.910   0.282   0.767 -0.3771 -0.5445  0.1821
20035TIP3    H181596   4.954   0.332   0.698  0.4665 -0.8511  0.4864
20035TIP3    H281597   4.909   0.340   0.842 -0.2795 -0.6220  0.2440
20036TIP3   OH281598   4.105   1.093   0.828  0.6634  0.2299  0.4773
20036TIP3    H181599   4.094   1.168   0.887  2.6204  1.7539 -0.9422
20036TIP3    H281600   4.055   1.023   0.869 -0.7926  2.1316  2.1886
20037TIP3   OH281601   2.857   5.407   3.519 -0.2343 -0.3314 -0.7204
20037TIP3    H181602   2.924   5.344   3.494 -0.0998 -0.1964 -0.7029
20037TIP3    H281603   2.802   5.359   3.581  0.6775 -0.0190  0.3733
20038TIP3   OH281604   6.526   6.498  10.868  0.1773 -0.2903 -0.3198
20038TIP3    H181605   6.439   6.527  10.842 -0.2678  0.4190  1.7698
20038TIP3    H281606   6.585   6.565  10.835 -0.3680  0.5802  0.4121
20039TIP3   OH281607   2.922   4.565  12.605 -0.4940 -0.2664  0.3552
20039TIP3    H181608   2.858   4.594  12.670 -0.4075  0.4497  0.1342
20039TIP3    H281609   2.895   4.608  12.524  0.3276  0.1500  0.2910
20040TIP3   OH281610   2.355   2.462  16.767 -0.2081 -0.2262  0.0801
20040TIP3    H181611   2.377   2.553  16.747 -1.9546  0.4516  1.0281
20040TIP3    H281612   2.325   2.426  16.684 -1.3964  0.6722  0.1002
20041TIP3   OH281613   6.352   5.858   1.648 -0.6608 -0.5192 -0.2643
20041TIP3    H181614   6.378   5.797   1.579  0.2524 -0.9790  0.4723
20041TIP3    H281615   6.433   5.879   1.694 -1.3817 -1.0185  1.3052
20042TIP3   OH281616   0.315   5.700   3.387  0.1744 -0.1737 -0.4527
20042TIP3    H181617   0.331   5.645   3.463  0.1790  2.2204  1.4064
20042TIP3    H281618   0.244   5.759   3.415 -1.3052 -0.5691 -3.0721
20043TIP3   OH281619   1.805   6.026  13.046  0.0646 -0.0860  0.1428
20043TIP3    H181620   1.890   6.048  13.010 -0.4887  1.6758 -0.1742
20043TIP3    H281621   1.792   6.088  13.118 -0.7609 -0.6118  0.4609
20044TIP3   OH281622   4.609   4.502   2.035 -0.5042 -0.0998 -0.5334
20044TIP3    H181623   4.621   4.574   1.972  0.4431  1.1038  0.9438
20044TIP3    H281624   4.625   4.423   1.985 -1.5028  0.7050 -2.2123
20045TIP3   OH281625   5.847   2.134   4.458  0.1825  0.2339 -0.2998
20045TIP3    H181626   5.802   2.209   4.497  0.5919  0.9958 -1.2541
20045TIP3    H281627   5.930   2.170   4.426 -0.2068 -0.3021 -2.0317
20046TIP3   OH281628   2.276   5.506   0.472  0.7245  0.0006  0.1797
20046TIP3    H181629   2.312   5.595   0.476 -0.3934  0.4435  0.8176
20046TIP3    H281630   2.209   5.510   0.403 -1.0058  0.3338  1.7920
20047TIP3   OH281631   3.305   5.216   0.256 -0.1061  0.1507  0.5437
20047TIP3    H181632   3.216   5.247   0.238  0.0120  0.8083  1.0913
20047TIP3    H281633   3.293   5.140   0.313 -0.3053  0.4388  0.8871
20048TIP3   OH281634   5.897   1.954  15.000 -0.0460 -0.4384  0.4885
20048TIP3    H181635   5.912   1.988  14.912  0.7995  1.5765  1.3329
20048TIP3    H281636   5.985   1.942  15.037 -0.3483 -2.4218  0.6994
20049TIP3   OH281637   5.017   2.332   4.725  0.0417  0.2229 -0.0096
20049TIP3    H181638   4.963   2.411   4.735  0.4500  0.6622 -1.0921
20049TIP3    H281639   5.071   2.350   4.649  0.8198 -0.7341  0.2982
20050TIP3   OH281640   3.763   3.193  13.218 -0.0905 -0.4355 -0.2968
20050TIP3    H181641   3.752   3.099  13.206  0.3257 -0.3047 -1.9937
20050TIP3    H281642   3.816   3.220  13.144  0.8761  0.9495  0.8430
20051TIP3   OH281643   3.456   4.901  13.942  1.0110  0.4094 -0.0379
20051TIP3    H181644   3.399   4.856  14.004  1.3081  0.5925  0.3749
20051TIP3    H281645   3.397   4.956  13.892  0.8802  1.0413  0.7786
20052TIP3   OH281646   1.514   4.375   3.872 -0.0950 -0.2360  0.4143
20052TIP3    H181647   1.537   4.424   3.951  0.6515  0.0586  0.0173
20052TIP3    H281648   1.571   4.411   3.804  0.3039 -1.4983  0.0606
20053TIP3   OH281649   0.896   3.584  12.164  0.1549 -0.0118  0.0627
20053TIP3    H181650   0.818   3.542  12.128 -0.0698 -0.5898  1.1831
20053TIP3    H281651   0.863   3.658  12.215  0.4707  0.7890 -0.8526
20054TIP3   OH281652   3.370   6.245   4.022 -1.1591  0.2498  0.3162
20054TIP3    H181653   3.315   6.235   4.100 -3.1815  1.3103 -0.8717
20054TIP3    H281654   3.372   6.339   4.007  2.2103  0.4232  1.0288
20055TIP3   OH281655   1.254   0.589   2.448  0.3893  0.0055  0.1720
20055TIP3    H181656   1.203   0.615   2.371 -0.4227 -1.1947  0.2676
20055TIP3    H281657   1.344   0.586   2.418  0.2031  0.5685 -0.4541
20056TIP3   OH281658   2.020   5.480   0.242 -0.7451 -0.3596 -0.3431
20056TIP3    H181659   1.965   5.409   0.276 -1.7336  0.2571 -0.5969
20056TIP3    H281660   1.971   5.560   0.264 -0.0635  0.1914 -0.8027
20057TIP3   OH281661   3.289   0.548   2.290  0.4588  0.1141 -0.3948
20057TIP3    H181662   3.293   0.550   2.195  3.4425  3.0185 -0.4024
20057TIP3    H281663   3.210   0.599   2.312  1.3313  1.9894 -1.3976
20058TIP3   OH281664   4.361   4.543   0.155  0.1000 -1.0944 -0.3509
20058TIP3    H181665   4.431   4.549   0.091  0.8580  0.3852  0.5617
20058TIP3    H281666   4.315   4.627   0.148  1.3860 -0.0548  2.2883
20059TIP3   OH281667   0.869   4.954  10.612 -0.5169  0.0877  0.7761
20059TIP3    H181668   0.782   4.937  10.578 -0.3540  0.7348  0.0131
20059TIP3    H281669   0.915   4.998  10.541  0.3921 -0.1141  1.2148
20060TIP3   OH281670   1.175   0.836   4.940  0.3813  0.2460  0.0005
20060TIP3    H181671   1.092   0.869   4.905  0.2088 -0.2393 -0.0627
20060TIP3    H281672   1.206   0.904   4.999  0.0545  0.5333 -0.1578
20061TIP3   OH281673   4.048   4.289  11.960  0.1197 -0.2684  0.4588
20061TIP3    H181674   3.978   4.272  12.022 -1.6265 -1.3693 -1.6935
20061TIP3    H281675   4.059   4.384  11.962 -2.4501  0.0998 -0.1657
20062TIP3   OH281676   6.069   6.112   2.286 -0.4021  0.1210  0.3849
20062TIP3    H181677   6.140   6.163   2.326 -0.3742  0.8496 -0.5728
20062TIP3    H281678   6.062   6.146   2.197  0.3157 -2.2287 -0.6652
20063TIP3   OH281679   1.236   3.641  11.869 -0.0354 -0.5417 -0.2089
20063TIP3    H181680   1.196   3.574  11.925  0.2059  1.0421  1.9990
20063TIP3    H281681   1.330   3.633  11.887 -0.0093  0.3971  0.1378
20064TIP3   OH281682   4.683   0.639   0.796  0.0699 -0.0636  0.4193
20064TIP3    H181683   4.761   0.658   0.743 -0.2264 -0.5199 -0.1937
20064TIP3    H281684   4.614   0.622   0.732 -0.9404  1.8492  0.9286
20065TIP3   OH281685   4.043   0.020  15.417 -0.2488  0.2520  0.2728
20065TIP3    H181686   4.127   0.032  15.372  1.5935  3.2477  3.9199
20065TIP3    H281687   3.997   0.103  15.403 -1.7122 -0.5452  0.1266
20066TIP3   OH281688   5.368   1.046  12.829 -0.1357  0.0494  0.5102
20066TIP3    H181689   5.362   1.135  12.864 -0.0201  0.4706 -0.4907
20066TIP3    H281690   5.426   1.054  12.753 -1.0862 -0.6504 -0.3209
20067TIP3   OH281691   6.091   2.104   4.934  0.0862 -0.1481  0.1117
20067TIP3    H181692   6.045   2.135   5.012  0.8595 -1.0686  0.9501
20067TIP3    H281693   6.175   2.073   4.966  0.4862 -0.3934 -1.1229
20068TIP3   OH281694   1.600   5.018  13.394 -0.0365  0.2311  0.4380
20068TIP3    H181695   1.619   5.112  13.404 -0.6358  0.3821  0.1963
20068TIP3    H281696   1.520   5.005  13.445 -2.7454  0.8417 -3.2432
20069TIP3   OH281697   5.823   6.803  16.141  0.1246  0.3251  0.0046
20069TIP3    H181698   5.805   6.737  16.074  2.0035 -1.4651  1.1548
20069TIP3    H281699   5.869   6.873  16.095 -2.2040  1.1044 -1.3025
20070TIP3   OH281700   3.216   4.760  14.946 -0.3236 -0.0745  0.3684
20070TIP3    H181701   3.268   4.680  14.935 -0.2211 -0.0340  0.5600
20070TIP3    H281702   3.159   4.742  15.020  0.9728  0.6889  1.5877
20071TIP3   OH281703   6.526   3.916   3.797  0.1974 -0.0834 -0.5486
20071TIP3    H181704   6.520   3.826   3.764 -0.3736 -0.1308 -0.3207
20071TIP3    H281705   6.569   3.908   3.882 -0.8876 -0.2741 -0.0037
20072TIP3   OH281706   0.457   3.974  14.490 -0.3482 -0.1894  0.1885
20072TIP3    H181707   0.496   4.004  14.572  0.6990  2.0576 -1.0225
20072TIP3    H281708   0.460   3.879  14.495 -0.2013 -0.1276  2.6678
20073TIP3   OH281709   2.040   1.719   2.251  0.3937 -0.2317 -0.9294
20073TIP3    H181710   2.020   1.644   2.195  1.2091  1.0058 -2.9666
20073TIP3    H281711   2.127   1.747   2.223  0.5453  0.8512  0.5174
20074TIP3   OH281712   2.601   6.528   3.756 -0.0989  0.0003  0.2933
20074TIP3    H181713   2.519   6.569   3.781 -0.5389  0.9287 -2.2827
20074TIP3    H281714   2.626   6.572   3.674  1.7442 -1.8445 -0.2473
20075TIP3   OH281715   1.569   6.363   4.564 -0.0240  0.4119  0.3777
20075TIP3    H181716   1.613   6.446   4.581 -0.4092  1.0232 -1.3405
20075TIP3    H281717   1.477   6.380   4.581 -0.1613  0.4831 -0.4009
20076TIP3   OH281718   5.774   0.849  14.307 -0.1683 -0.3795  0.0384
20076TIP3    H181719   5.692   0.894  14.287  1.0140  1.7533 -0.2334
20076TIP3    H281720   5.822   0.910  14.363  0.5439 -2.3070  1.6393
20077TIP3   OH281721   0.351   4.395  10.866  0.3424 -0.5662  0.5560
20077TIP3    H181722   0.269   4.444  10.858  1.0819  0.6467  0.3047
20077TIP3    H281723   0.338   4.318  10.810 -0.6466 -0.4268  0.5697
20078TIP3   OH281724   6.363   6.737   5.906 -0.0412 -0.6195  0.0973
20078TIP3    H181725   6.281   6.688   5.893  0.2253 -1.1736  0.4446
20078TIP3    H281726   6.413   6.683   5.968  0.3502 -0.0039  0.3260
20079TIP3   OH281727   0.035   2.619  16.429  1.1384  0.2801 -0.3745
20079TIP3    H181728   0.022   2.635  16.335  0.5411 -0.7768 -0.4825
20079TIP3    H281729   0.068   2.703  16.463  0.7376  0.8747 -1.3996
20080TIP3   OH281730   6.730   0.828  16.874 -0.6719 -0.6379 -0.2247
20080TIP3    H181731   6.822   0.832  16.849 -0.4487 -1.5135  0.3828
20080TIP3    H281732   6.693   0.759  16.820 -0.2558 -2.3277  1.5293
20081TIP3   OH281733   1.850   4.735   3.997  0.3893  0.4486 -0.0633
20081TIP3    H181734   1.930   4.787   4.007  0.6957  0.0153 -0.2602
20081TIP3    H281735   1.799   4.783   3.932  1.2370 -0.1707 -1.2130
20082TIP3   OH281736   3.895   0.549  15.053  0.2786  0.5412 -0.6502
20082TIP3    H181737   3.806   0.532  15.022 -0.1468  2.5598 -0.6861
20082TIP3    H281738   3.925   0.465  15.086 -2.2020  0.1156  0.7755
20083TIP3   OH281739   1.677   2.876  14.215 -0.2403 -1.1110  0.2569
20083TIP3    H181740   1.707   2.949  14.270 -2.7770  0.3699 -0.1121
20083TIP3    H281741   1.752   2.855  14.159  0.5497  1.4217  0.2225
20084TIP3   OH281742   2.163   3.074  14.985  0.0617  0.3569 -0.0377
20084TIP3    H181743   2.125   3.033  15.062  0.6653  0.1421  0.1512
20084TIP3    H281744   2.145   3.013  14.914 -0.6225  0.6225 -0.1012
20085TIP3   OH281745   1.059   6.620  15.829  0.8587  0.4024 -0.1430
20085TIP3    H181746   1.056   6.627  15.734 -0.0074 -0.0675 -0.1637
20085TIP3    H281747   1.142   6.576  15.848  0.4381 -0.7060 -0.7696
20086TIP3   OH281748   4.504   1.864   2.477  0.1029 -0.8297 -0.5026
20086TIP3    H181749   4.598   1.871   2.494 -0.0108  0.3912 -0.2380
20086TIP3    H281750   4.493   1.894   2.387 -0.0973 -0.3644 -0.3268
20087TIP3   OH281751   6.790   6.355  13.872  0.0968 -0.6033  0.2456
20087TIP3    H181752   6.849   6.352  13.948 -0.3241  0.0796  0.6043
20087TIP3    H281753   6.847   6.377  13.799  0.5724 -1.6511  0.2880
20088TIP3   OH281754   5.851   4.683   4.516 -0.1358 -0.1252  0.1277
20088TIP3    H181755   5.814   4.731   4.590  0.5279 -1.4285  1.3472
20088TIP3    H281756   5.873   4.597   4.552 -0.2293 -0.9534 -1.7095
20089TIP3   OH281757   2.942   3.910  13.467 -0.2265 -0.2360  0.3189
20089TIP3    H181758   2.899   3.961  13.398  1.4471  0.9068  0.0886
20089TIP3    H281759   2.935   3.964  13.545  2.0579  0.7123 -0.0525
20090TIP3   OH281760   1.548   4.010   6.174  0.2598  0.8399  0.1064
20090TIP3    H181761   1.475   4.014   6.235 -0.9417 -3.8826 -0.6026
20090TIP3    H281762   1.626   4.013   6.230 -0.6868  0.4746  1.5114
20091TIP3   OH281763   5.451   0.512   4.734  0.2912 -0.3275 -0.2692
20091TIP3    H181764   5.374   0.569   4.733  0.4112 -0.1617 -1.2482
20091TIP3    H281765   5.457   0.478   4.645  1.0398 -0.7607 -0.0631
20092TIP3   OH281766   6.355   2.343  13.147  0.5296 -0.0032  0.6325
20092TIP3    H181767   6.405   2.350  13.228 -1.1974  0.1157  1.7351
20092TIP3    H281768   6.305   2.262  13.156  0.1115  0.1507 -0.1886
20093TIP3   OH281769   0.091   4.495  10.815 -0.4045 -0.2130 -0.2344
20093TIP3    H181770   0.025   4.513  10.748 -0.0205 -1.1097 -0.8886
20093TIP3    H281771   0.085   4.569  10.876  0.2002  1.3997 -2.0231
20094TIP3   OH281772   6.159   2.145   3.751  0.0990 -0.4858  0.1312
20094TIP3    H181773   6.160   2.086   3.676 -2.3751  0.3968 -0.7027
20094TIP3    H281774   6.181   2.230   3.715 -1.3495 -0.0078  0.3225
20095TIP3   OH281775   5.665   4.246   5.564 -0.1201  0.5653  0.1307
20095TIP3    H181776   5.689   4.158   5.591 -0.2234  0.2775 -0.6966
20095TIP3    H281777   5.738   4.276   5.511  1.0819  1.9618  2.4500
20096TIP3   OH281778   5.483   4.792   2.693 -0.1714 -0.8439 -0.5970
20096TIP3    H181779   5.428   4.802   2.615  0.6336 -1.2500 -1.2310
20096TIP3    H281780   5.434   4.732   2.749 -1.1001  0.0144 -0.4514
20097TIP3   OH281781   2.019   2.226   2.314 -0.0126  0.1284 -0.1396
20097TIP3    H181782   1.940   2.272   2.283 -0.2168 -0.6753 -0.8409
20097TIP3    H281783   2.066   2.292   2.365 -0.8652  0.7825 -0.1702
20098TIP3   OH281784   6.052   1.964   3.454 -0.3393  0.7170  0.2863
20098TIP3    H181785   6.138   1.953   3.494 -0.7108 -0.8839  0.7121
20098TIP3    H281786   6.062   1.926   3.367 -1.0587 -1.1708  0.9800
20099TIP3   OH281787   4.992   0.112  15.307 -0.3892 -0.3892  0.2656
20099TIP3    H181788   4.942   0.037  15.341  1.3317 -3.0541 -2.5723
20099TIP3    H281789   4.951   0.132  15.223  0.3085  0.6537  0.1584
20100TIP3   OH281790   6.028   4.298   5.861  0.0503  0.4138 -0.3691
20100TIP3    H181791   6.033   4.208   5.830 -1.0210 -0.0045  0.6010
20100TIP3    H281792   6.040   4.351   5.782 -1.0872 -0.5928 -1.2637
20101TIP3   OH281793   2.241   4.130  15.274 -0.2337  0.4071  0.1995
20101TIP3    H181794   2.195   4.214  15.273 -1.3298 -0.1587  1.0088
20101TIP3    H281795   2.310   4.140  15.209 -2.0273  1.0026 -1.7410
20102TIP3   OH281796   0.719   1.015   0.520 -0.0319  0.0499 -0.0024
20102TIP3    H181797   0.693   0.928   0.550  1.1948 -0.7275 -1.0885
20102TIP3    H281798   0.773   1.050   0.591  1.2637 -0.9873 -0.4239
20103TIP3   OH281799   3.988   3.784  10.669 -0.2918  0.9051 -0.0470
20103TIP3    H181800   3.975   3.785  10.764 -0.7943 -0.1656 -0.0959
20103TIP3    H281801   4.052   3.714  10.654  1.6217  2.6130 -0.3117
20104TIP3   OH281802   2.716   4.045   2.213 -0.2735 -0.1903  0.1235
20104TIP3    H181803   2.785   4.019   2.275  0.4582  0.0549 -0.5614
20104TIP3    H281804   2.644   4.074   2.268  0.3266 -0.0578  0.8657
20105TIP3   OH281805   6.425   2.708   1.004 -0.6915 -0.1481  0.3206
20105TIP3    H181806   6.497   2.771   1.016 -1.3814  0.4714  1.4336
20105TIP3    H281807   6.466   2.623   1.016  0.1684  0.1004 -0.7110
20106TIP3   OH281808   5.398   3.314   3.992  0.5879 -0.5966  0.5496
20106TIP3    H181809   5.382   3.264   3.912 -1.3132 -0.1242  0.5723
20106TIP3    H281810   5.423   3.401   3.961 -3.3189  0.6076  0.2645
20107TIP3   OH281811   2.920   4.311   3.935  0.3860  0.2325 -0.1187
20107TIP3    H181812   2.889   4.299   4.025  1.2136  0.9888  0.2910
20107TIP3    H281813   2.978   4.388   3.940  0.7907  0.0152 -1.2077
20108TIP3   OH281814   3.705   6.599   0.511 -0.5091  0.1140  0.1686
20108TIP3    H181815   3.799   6.610   0.495 -0.0708 -1.3842  1.4112
20108TIP3    H281816   3.681   6.521   0.462 -0.7811 -0.2934  0.9343
20109TIP3   OH281817   5.938   3.855   0.110  0.3410  0.0012  0.0036
20109TIP3    H181818   5.971   3.768   0.133  0.7476 -0.0156 -0.6234
20109TIP3    H281819   5.942   3.858   0.015  0.8524  0.9155  0.0467
20110TIP3   OH281820   5.521   0.474  15.853  0.1777  0.1100 -0.2074
20110TIP3    H181821   5.560   0.394  15.888 -0.6818 -0.5701 -0.7722
20110TIP3    H281822   5.489   0.449  15.766 -0.6060  0.9221 -0.1616
20111TIP3   OH281823   6.826   0.530   3.694  0.0093  0.3617  0.4321
20111TIP3    H181824   6.837   0.438   3.718 -0.9149 -0.1059 -0.8406
20111TIP3    H281825   6.912   0.557   3.662  0.7722  0.4853  2.4574
20112TIP3   OH281826   3.944   2.971   1.197 -0.1752  0.1295 -0.5963
20112TIP3    H181827   3.901   2.889   1.219 -2.2831  0.7931 -1.8597
20112TIP3    H281828   3.958   3.015   1.281 -2.1388 -0.1086 -0.0962
20113TIP3   OH281829   6.656   6.398   5.561 -0.3928 -0.7355 -0.1313
20113TIP3    H181830   6.709   6.435   5.632 -2.8131  1.5723  0.6466
20113TIP3    H281831   6.610   6.473   5.524 -2.3098 -2.4547 -1.4388
20114TIP3   OH281832   1.920   2.163  15.446  0.3401  0.2090  0.3650
20114TIP3    H181833   1.961   2.163  15.359  0.9591 -0.9479  0.6344
20114TIP3    H281834   1.861   2.239  15.445 -0.9542 -0.7299 -1.6764
20115TIP3   OH281835   0.338   2.291   4.184 -0.0123  0.3638 -0.5151
20115TIP3    H181836   0.412   2.266   4.128  0.2318  1.8320 -0.8847
20115TIP3    H281837   0.374   2.358   4.242 -0.4633 -0.5865  0.9138
20116TIP3   OH281838   1.972   4.840  15.865 -0.3669 -0.0660  0.0473
20116TIP3    H181839   1.981   4.843  15.960 -0.6747  0.4716  0.0671
20116TIP3    H281840   1.959   4.932  15.840 -0.5465 -0.2337 -0.4867
20117TIP3   OH281841   3.043   5.032   1.560  0.0778  0.2945  0.2432
20117TIP3    H181842   3.004   4.956   1.516 -1.2681  1.3300 -0.4598
20117TIP3    H281843   3.006   5.107   1.513 -0.1979  1.4200  2.1610
20118TIP3   OH281844   0.829   3.607   5.048 -0.8599  0.3910 -0.7213
20118TIP3    H181845   0.839   3.511   5.049  1.0770  0.5400 -1.6779
20118TIP3    H281846   0.767   3.624   4.978  1.2359 -0.0567 -2.8097
20119TIP3   OH281847   6.282   0.511  16.693  0.1325 -0.0044 -0.1887
20119TIP3    H181848   6.188   0.516  16.711  0.5031  1.4701  1.5571
20119TIP3    H281849   6.302   0.592  16.647  0.3648 -0.9150 -1.7955
20120TIP3   OH281850   2.202   2.749  14.545  0.3661 -0.3236 -0.1428
20120TIP3    H181851   2.251   2.800  14.609 -2.7340 -1.1150  3.2822
20120TIP3    H281852   2.191   2.663  14.587 -1.4944 -1.0614 -1.9490
20121TIP3   OH281853   0.479   1.110  16.934  0.8274  0.2860  0.0364
20121TIP3    H181854   0.467   1.021  16.900 -0.3851  0.5277 -0.2232
20121TIP3    H281855   0.395   1.153  16.916  1.7602  1.8098 -0.8001
20122TIP3   OH281856   4.967   0.344  15.533 -0.2739  0.2185 -0.1693
20122TIP3    H181857   4.998   0.373  15.619  0.1604  0.0008 -0.2477
20122TIP3    H281858   5.028   0.274  15.509 -0.6299  0.0173 -0.4824
20123TIP3   OH281859   4.538   0.075   2.076 -0.2314  0.0556  0.1698
20123TIP3    H181860   4.509   0.056   2.165 -0.3053  0.0501  0.1444
20123TIP3    H281861   4.514  -0.002   2.025  0.9398 -0.4866  0.3978
20124TIP3   OH281862   3.388   6.638   1.466 -0.1828 -0.0904  0.0934
20124TIP3    H181863   3.294   6.621   1.470 -0.0797 -0.6175  0.4907
20124TIP3    H281864   3.403   6.677   1.380 -0.6904 -0.4858 -0.1769
20125TIP3   OH281865   1.701   5.005  15.062 -0.5691 -0.0739 -0.4056
20125TIP3    H181866   1.677   5.003  14.969 -0.0419  0.0319 -0.5435
20125TIP3    H281867   1.790   5.039  15.063  0.2689 -2.1421 -0.0395
20126TIP3   OH281868   4.627   5.847  14.919  0.3180  0.5823 -0.4608
20126TIP3    H181869   4.603   5.759  14.950  1.4880 -0.4963 -2.3983
20126TIP3    H281870   4.545   5.895  14.915 -0.2161 -0.0808  1.5886
20127TIP3   OH281871   5.743   4.115   0.195  0.2189 -0.1562 -0.6383
20127TIP3    H181872   5.709   4.123   0.284  0.4376 -0.5275 -0.5192
20127TIP3    H281873   5.692   4.177   0.144 -1.4869 -1.5509 -0.7101
20128TIP3   OH281874   1.729   3.097   2.778 -0.1721 -0.7693  0.1379
20128TIP3    H181875   1.647   3.098   2.729 -0.8223  0.9779  1.1560
20128TIP3    H281876   1.741   3.188   2.806  2.6802 -0.7668 -0.8496
20129TIP3   OH281877   3.642   5.548  11.906 -0.6989 -0.2029  0.0657
20129TIP3    H181878   3.710   5.609  11.876 -0.3435 -0.4221  0.4127
20129TIP3    H281879   3.679   5.461  11.890 -1.3041 -0.3422 -0.6615
20130TIP3   OH281880   0.198   4.738  12.583  0.3843  0.2272  0.7825
20130TIP3    H181881   0.104   4.732  12.598  0.5485 -0.0145  1.7524
20130TIP3    H281882   0.217   4.831  12.584  0.2888  0.2421  1.4644
20131TIP3   OH281883   2.981   2.911   1.228 -0.0620  0.0291 -0.0217
20131TIP3    H181884   2.976   2.818   1.205  0.3014  0.4292 -1.9315
20131TIP3    H281885   3.072   2.924   1.255 -0.9690 -0.8809  4.0475
20132TIP3   OH281886   6.651   0.855  12.901  0.3134  0.5491 -0.2465
20132TIP3    H181887   6.697   0.779  12.939  2.5446  2.5611  1.3809
20132TIP3    H281888   6.660   0.844  12.807  2.1761 -0.3471 -0.0141
20133TIP3   OH281889   0.623   5.230  13.223  0.5534 -0.2366  0.5318
20133TIP3    H181890   0.587   5.291  13.287  0.7449  0.7253 -0.2618
20133TIP3    H281891   0.692   5.183  13.271  1.6152  1.4066  0.7010
20134TIP3   OH281892   0.548   2.407   5.346 -0.6272 -0.1683  0.1309
20134TIP3    H181893   0.465   2.361   5.336  0.1049 -1.3374 -0.7416
20134TIP3    H281894   0.613   2.350   5.305  0.3949  1.4144 -0.5516
20135TIP3   OH281895   4.485   5.809   0.728 -0.1555 -0.3881  0.3153
20135TIP3    H181896   4.391   5.826   0.737 -0.1416 -0.4052  0.5137
20135TIP3    H281897   4.507   5.839   0.640 -0.0685  0.9619  0.7635
20136TIP3   OH281898   4.887   4.445  12.145 -0.2274 -0.1486  0.2426
20136TIP3    H181899   4.863   4.479  12.059  0.3300 -1.0997 -0.3133
20136TIP3    H281900   4.954   4.506  12.177  0.9493 -0.7927 -0.8562
20137TIP3   OH281901   0.997   2.881   1.858  0.0704 -0.3750 -0.3092
20137TIP3    H181902   1.005   2.958   1.914 -0.1197 -0.3923 -0.2580
20137TIP3    H281903   1.086   2.863   1.829  0.3391 -0.9621  0.7998
20138TIP3   OH281904   6.657   6.649  12.504 -0.0686  0.3146  0.0213
20138TIP3    H181905   6.716   6.719  12.531  1.6740 -0.2503 -1.9997
20138TIP3    H281906   6.591   6.692  12.449  0.7618  0.4517 -0.8884
20139TIP3   OH281907   3.818   0.976  14.016  0.5361 -0.0722 -0.0520
20139TIP3    H181908   3.826   0.942  13.927  1.9770 -2.2842  0.8434
20139TIP3    H281909   3.886   1.043  14.022 -0.4354  1.0405 -0.9728
20140TIP3   OH281910   5.151   3.322  13.115  0.2405  0.5016 -0.5163
20140TIP3    H181911   5.141   3.233  13.150  2.7247  0.5436  0.4962
20140TIP3    H281912   5.182   3.308  13.025  1.3339  0.2850 -0.1284
20141TIP3   OH281913   0.011   2.415  14.278  0.5264 -0.2594 -0.5320
20141TIP3    H181914   0.001   2.509  14.293  0.7544  0.2276 -3.0399
20141TIP3    H281915  -0.078   2.382  14.274  0.3923  0.1719 -1.3057
20142TIP3   OH281916   4.613   3.519  13.911  0.5748  0.0451 -0.4077
20142TIP3    H181917   4.675   3.561  13.971  0.0934 -0.5996  0.5680
20142TIP3    H281918   4.617   3.571  13.831 -0.1204  2.0558  0.8081
20143TIP3   OH281919   3.138   1.506   0.188  0.4306 -0.0781 -0.3147
20143TIP3    H181920   3.193   1.502   0.266 -0.8555  0.8636  0.6875
20143TIP3    H281921   3.062   1.557   0.215 -1.4951 -2.2527 -1.3208
20144TIP3   OH281922   4.008   5.178  13.700  0.5149 -0.2907 -0.1268
20144TIP3    H181923   4.015   5.110  13.633  0.2963 -1.6183  1.1525
20144TIP3    H281924   3.930   5.154  13.751  0.8756  0.4785  0.8218
20145TIP3   OH281925   2.908   1.793   4.206  0.6227 -0.0543  0.1548
20145TIP3    H181926   2.970   1.720   4.207 -0.3321 -0.8852 -0.0684
20145TIP3    H281927   2.849   1.774   4.133  0.1439  0.7497  0.3214
20146TIP3   OH281928   3.123   6.227   5.458  0.3889 -0.3031  0.7152
20146TIP3    H181929   3.216   6.241   5.478  0.2204  0.6638  0.8700
20146TIP3    H281930   3.099   6.301   5.403 -0.4074 -0.3099  1.0434
20147TIP3   OH281931   2.753   6.691   4.028  0.1747  1.2623  0.0392
20147TIP3    H181932   2.795   6.719   3.946 -1.6971  2.5004 -0.5779
20147TIP3    H281933   2.774   6.598   4.035  0.2939  1.0872 -1.9301
20148TIP3   OH281934   1.602   6.696  11.561 -0.8610  0.3549  0.3058
20148TIP3    H181935   1.573   6.605  11.575 -2.6637  0.9438  0.7477
20148TIP3    H281936   1.663   6.712  11.633  1.3320 -1.1923 -1.0982
20149TIP3   OH281937   0.065   1.215   3.963  0.0098  0.1426 -0.2809
20149TIP3    H181938   0.019   1.292   3.930  0.6526 -0.6055 -3.2370
20149TIP3    H281939   0.018   1.141   3.924  0.3247 -0.9298  1.2648
20150TIP3   OH281940   1.194   6.532   3.223  0.0462 -0.5868 -0.4576
20150TIP3    H181941   1.161   6.616   3.254 -0.3588 -0.4272 -1.2845
20150TIP3    H281942   1.251   6.554   3.150  1.7213 -0.8889  0.7189
20151TIP3   OH281943   6.726   1.309   1.456 -0.0019 -0.2285 -0.1339
20151TIP3    H181944   6.724   1.217   1.430 -1.5770 -0.2893  0.0716
20151TIP3    H281945   6.768   1.308   1.542  1.8868 -0.4698 -1.0148
20152TIP3   OH281946   1.742   1.155   5.108 -0.2304  0.2439 -0.7280
20152TIP3    H181947   1.735   1.107   5.026 -1.4011  0.6784 -0.8945
20152TIP3    H281948   1.660   1.204   5.115 -0.3461 -0.1366  0.9192
20153TIP3   OH281949   0.701   4.466  16.824 -0.1360 -0.1048 -0.0473
20153TIP3    H181950   0.793   4.472  16.798 -0.1164 -1.4031 -0.3516
20153TIP3    H281951   0.655   4.442  16.744 -0.4616 -1.3951  0.5094
20154TIP3   OH281952   2.562   2.952   3.839  0.0534 -0.4164  0.6402
20154TIP3    H181953   2.615   2.874   3.824  0.1928 -0.4621  1.3379
20154TIP3    H281954   2.587   2.982   3.927 -0.1911  0.2583  0.4860
20155TIP3   OH281955   5.250   2.908  16.380 -0.2519  0.5545 -0.5745
20155TIP3    H181956   5.167   2.938  16.416 -0.9239 -0.5183 -1.1936
20155TIP3    H281957   5.252   2.946  16.292 -0.3955  0.0566 -0.7960
20156TIP3   OH281958   4.456   1.590  14.812 -0.6114 -0.0132  0.1683
20156TIP3    H181959   4.437   1.512  14.760 -0.7348 -0.8507  1.4370
20156TIP3    H281960   4.382   1.598  14.872 -1.1704  1.7558 -0.6725
20157TIP3   OH281961   0.639   3.798   0.322 -0.6898  0.3644 -0.1548
20157TIP3    H181962   0.720   3.847   0.339  0.1560 -0.8773 -0.4519
20157TIP3    H281963   0.616   3.760   0.406 -0.5494  0.1249 -0.2230
20158TIP3   OH281964   2.758   6.634  13.823 -0.6037 -0.1801 -0.1649
20158TIP3    H181965   2.704   6.687  13.766  0.2306 -1.1989 -1.9944
20158TIP3    H281966   2.811   6.580  13.764  0.6268 -0.9927  1.5583
20159TIP3   OH281967   2.846   4.385  12.891 -0.8940  0.3554  0.7502
20159TIP3    H181968   2.887   4.343  12.816 -0.4398  0.8087  0.7328
20159TIP3    H281969   2.777   4.440  12.854  1.6306  3.4728  0.2009
20160TIP3   OH281970   4.717   4.542  13.859  0.9132 -0.3559  0.1413
20160TIP3    H181971   4.724   4.446  13.867  0.0987 -0.3123  1.8624
20160TIP3    H281972   4.793   4.567  13.808 -0.1737 -2.1520 -2.6514
20161TIP3   OH281973   5.164   6.799  11.967 -0.1364 -0.0729 -0.2745
20161TIP3    H181974   5.218   6.757  11.900  0.2312  1.3445 -0.9013
20161TIP3    H281975   5.078   6.757  11.958  0.4425 -1.3486 -0.2136
20162TIP3   OH281976   4.674   4.874  12.309 -0.2550 -0.2422 -0.7184
20162TIP3    H181977   4.716   4.804  12.359 -2.0393 -0.2664  0.8455
20162TIP3    H281978   4.677   4.950  12.366  1.3143  0.9415 -2.2542
20163TIP3   OH281979   4.515   5.314  11.963  0.5918 -0.0722  0.3804
20163TIP3    H181980   4.517   5.323  12.058  2.6963  2.1214  0.2130
20163TIP3    H281981   4.603   5.340  11.934  0.2536 -1.3783 -2.1287
20164TIP3   OH281982   4.719   2.911   3.239  0.0666 -0.7998  0.3062
20164TIP3    H181983   4.660   2.844   3.275 -0.4217 -1.8708 -2.2310
20164TIP3    H281984   4.801   2.898   3.286  0.1964 -3.7203 -0.5074
20165TIP3   OH281985   3.839   0.322   1.187  0.3223 -0.7999  0.1330
20165TIP3    H181986   3.883   0.393   1.140 -0.8837  0.9189  1.5038
20165TIP3    H281987   3.859   0.337   1.279  1.3864 -3.2374  0.3949
20166TIP3   OH281988   0.689   1.273  16.987  0.2212 -0.8493  0.3404
20166TIP3    H181989   0.610   1.222  16.967  0.7114 -0.8922 -1.6410
20166TIP3    H281990   0.760   1.210  16.983  0.9933  0.0082 -3.2867
20167TIP3   OH281991   4.119   3.749  11.537  0.5697  0.3927  0.4790
20167TIP3    H181992   4.160   3.721  11.618  2.4471  1.2701 -0.1062
20167TIP3    H281993   4.164   3.830  11.514  0.4621 -0.1031 -1.7025
20168TIP3   OH281994   6.745   0.658  15.162 -0.2148 -0.0567 -0.4627
20168TIP3    H181995   6.690   0.618  15.230  0.2262 -0.6905 -0.4721
20168TIP3    H281996   6.721   0.613  15.082  0.3164 -0.3433 -0.4665
20169TIP3   OH281997   2.587   0.689   5.082 -0.0536 -0.1053  0.2613
20169TIP3    H181998   2.669   0.646   5.058 -0.2044 -0.0264 -0.4240
20169TIP3    H281999   2.538   0.695   4.999 -0.1902  1.0325  0.4046
20170TIP3   OH282000   5.882   2.932   3.313  0.3257 -0.2486  0.7626
20170TIP3    H182001   5.858   3.016   3.351  0.4703  0.3897 -0.4992
20170TIP3    H282002   5.952   2.952   3.251 -1.3484 -0.8441 -1.4771
20171TIP3   OH282003   3.613   1.068   2.019 -0.2695 -0.3012  0.4915
20171TIP3    H182004   3.543   1.005   2.008  0.8479 -1.4841 -0.1014
20171TIP3    H282005   3.644   1.055   2.109 -1.1294  0.6086  0.9473
20172TIP3   OH282006   2.725   2.397   2.863 -0.2112 -0.1393 -0.3142
20172TIP3    H182007   2.648   2.453   2.875 -0.4107 -0.2339 -1.0817
20172TIP3    H282008   2.704   2.344   2.786 -0.8821 -2.7267  1.5037
20173TIP3   OH282009   4.504   1.909   2.225 -0.2424 -0.0762  0.8913
20173TIP3    H182010   4.539   1.977   2.168  0.2622 -1.3612 -0.4002
20173TIP3    H282011   4.460   1.848   2.165  2.2236 -2.6663  1.4869
20174TIP3   OH282012   4.905   0.325  12.139  0.0349  0.2178  0.3695
20174TIP3    H182013   4.966   0.263  12.099  0.1716  0.6308 -0.0781
20174TIP3    H282014   4.893   0.393  12.072 -0.5824  0.3614  0.6201
20175TIP3   OH282015   3.909   4.858  14.763 -0.5188 -0.7050 -0.3440
20175TIP3    H182016   3.871   4.796  14.700 -3.4486  1.6263 -1.1064
20175TIP3    H282017   3.841   4.868  14.830  0.7294  0.1720  0.8479
20176TIP3   OH282018   2.703   2.302   1.160  0.0491 -0.6108  0.5003
20176TIP3    H182019   2.640   2.365   1.127  0.7029 -0.1998  0.0047
20176TIP3    H282020   2.715   2.239   1.089 -0.6330 -1.3233  1.0103
20177TIP3   OH282021   6.321   0.488  10.779 -0.2459 -0.6281  0.1784
20177TIP3    H182022   6.278   0.534  10.852 -1.9938 -0.0424 -1.1570
20177TIP3    H282023   6.255   0.426  10.748  1.4765 -2.9296  0.8397
20178TIP3   OH282024   0.118   3.984   3.496  0.1888 -0.0406  0.3390
20178TIP3    H182025   0.176   4.018   3.565  0.6240 -1.7778  0.8890
20178TIP3    H282026   0.050   3.936   3.544 -0.9203  0.7764 -0.3681
20179TIP3   OH282027   2.443   2.580   3.765 -0.2546 -0.4892 -0.3996
20179TIP3    H182028   2.492   2.510   3.722  0.8005  1.8769 -3.3763
20179TIP3    H282029   2.352   2.567   3.737 -0.5499 -1.9593  1.0550
20180TIP3   OH282030   2.125   0.864  11.221 -0.2902  0.0334 -0.4150
20180TIP3    H182031   2.127   0.829  11.310 -1.4334  2.9006  0.8474
20180TIP3    H282032   2.211   0.906  11.210 -1.1170  2.1101  0.5012
20181TIP3   OH282033   2.467   4.185   2.045 -0.0408 -0.2400  0.0745
20181TIP3    H182034   2.450   4.163   2.137 -2.4882  2.7772  0.5185
20181TIP3    H282035   2.553   4.227   2.046  0.3731 -1.0637  0.7895
20182TIP3   OH282036   2.861   6.265   3.485  0.0330 -0.6404  0.1506
20182TIP3    H182037   2.906   6.319   3.420  1.3116 -0.9998  0.7148
20182TIP3    H282038   2.892   6.176   3.468  0.8629 -0.6524  1.6353
20183TIP3   OH282039   0.869   5.297  10.719  0.4828 -0.3426  0.4604
20183TIP3    H182040   0.926   5.257  10.653 -0.1528 -1.2502  0.4400
20183TIP3    H282041   0.782   5.263  10.699  0.0197  0.6334  0.8014
20184TIP3   OH282042   3.583   5.615   3.121 -0.3471 -0.3007  0.2632
20184TIP3    H182043   3.679   5.618   3.115 -0.4152  0.0645 -1.2922
20184TIP3    H282044   3.556   5.707   3.120 -0.7195 -0.4039  0.6598
20185TIP3   OH282045   4.970   1.964   0.969 -0.2001  0.0462 -0.1002
20185TIP3    H182046   4.914   1.908   0.916 -0.4249 -1.0263  1.2303
20185TIP3    H282047   5.053   1.916   0.976 -0.0198  0.3837  0.1656
20186TIP3   OH282048   3.909   4.715   5.161  0.2260  0.2816  0.0573
20186TIP3    H182049   3.968   4.744   5.230 -1.0363  3.4993 -0.0379
20186TIP3    H282050   3.829   4.689   5.207  0.5910 -1.0399 -0.0171
20187TIP3   OH282051   2.071   3.016   3.296 -0.0714  0.0212 -0.0605
20187TIP3    H182052   2.069   2.952   3.225  0.1952 -0.0340 -0.0207
20187TIP3    H282053   2.162   3.017   3.325  0.1542  1.1723 -0.7442
20188TIP3   OH282054   2.439   1.023   2.557  0.6384 -0.2788  0.4627
20188TIP3    H182055   2.471   1.049   2.470  0.7258  1.7589  1.0384
20188TIP3    H282056   2.483   0.940   2.575  1.5302 -0.1514 -0.9603
20189TIP3   OH282057   3.006   1.284   0.778  0.2776 -0.2555  0.4069
20189TIP3    H182058   3.074   1.338   0.819  2.2917 -1.5841 -0.9743
20189TIP3    H282059   3.045   1.254   0.696 -3.2996  1.7054 -2.3050
20190TIP3   OH282060   4.493   2.958   1.588  0.2837  0.0344 -0.3492
20190TIP3    H182061   4.522   3.015   1.517 -0.2284 -0.6837 -1.1489
20190TIP3    H282062   4.533   2.996   1.667  0.3998  1.1639 -0.9328
20191TIP3   OH282063   2.587   2.443  14.228 -0.1466  0.5059  0.2395
20191TIP3    H182064   2.572   2.434  14.322 -0.4081 -0.2521  0.1283
20191TIP3    H282065   2.682   2.457  14.221 -0.0330 -0.0692  0.5736
20192TIP3   OH282066   4.408   5.056   1.937  0.3925 -0.0880 -0.1749
20192TIP3    H182067   4.420   5.069   1.843 -0.8261  1.1823 -0.1832
20192TIP3    H282068   4.466   4.983   1.959  0.2437 -0.7987 -2.0164
20193TIP3   OH282069   3.934   3.726   2.780  0.7238  0.7446 -0.0404
20193TIP3    H182070   3.874   3.746   2.708 -0.0084  1.8984  0.8485
20193TIP3    H282071   3.876   3.707   2.854  1.3441  3.5984  1.3226
20194TIP3   OH282072   5.777   5.402   2.663  0.3746  0.3061  0.4923
20194TIP3    H182073   5.691   5.364   2.679  0.0595  1.4791  1.8478
20194TIP3    H282074   5.838   5.344   2.708  0.2823 -0.3855 -0.2500
20195TIP3   OH282075   3.711   4.843  16.872  0.9284 -0.7759  0.4077
20195TIP3    H182076   3.692   4.929  16.911 -1.2430 -1.4144  0.9189
20195TIP3    H282077   3.718   4.860  16.778  0.1561 -0.0835  0.4665
20196TIP3   OH282078   3.704   2.444  14.700  0.9795  0.2981 -0.5144
20196TIP3    H182079   3.707   2.414  14.791 -0.3519 -0.5327 -0.7216
20196TIP3    H282080   3.795   2.437  14.670  1.2898 -0.2345  0.4905
20197TIP3   OH282081   4.708   4.078   3.359  0.1814  0.0569 -0.2761
20197TIP3    H182082   4.787   4.077   3.413  0.7937  1.2053 -1.0994
20197TIP3    H282083   4.733   4.037   3.277  0.3304  1.5484 -1.0200
20198TIP3   OH282084   6.566   2.639   1.588  0.2414  0.0519  0.0026
20198TIP3    H182085   6.516   2.655   1.668  1.2649  0.9482  0.4964
20198TIP3    H282086   6.618   2.560   1.608  0.5082  0.2846  0.2310
20199TIP3   OH282087   2.901   1.748  15.439  0.3040  0.0590  0.1497
20199TIP3    H182088   2.876   1.675  15.382  0.9890 -0.1985  0.1713
20199TIP3    H282089   2.820   1.772  15.485 -0.1845  0.0878 -0.7210
20200TIP3   OH282090   3.841   0.187   3.877 -0.4207  1.1000 -0.1455
20200TIP3    H182091   3.764   0.134   3.897 -0.5972  2.1260  2.3094
20200TIP3    H282092   3.812   0.248   3.810 -1.2104  0.3333 -0.5207
20201TIP3   OH282093   3.375   1.995   1.712  0.1443 -0.6084  0.2591
20201TIP3    H182094   3.376   2.090   1.700 -1.5413 -0.6172 -0.2224
20201TIP3    H282095   3.381   1.959   1.623 -1.0879 -0.8943  0.2719
20202TIP3   OH282096   2.923   6.437   2.803  0.1928  0.0100 -0.3200
20202TIP3    H182097   2.934   6.404   2.892 -0.6744 -0.5370 -0.4073
20202TIP3    H282098   2.996   6.399   2.754 -0.6571 -1.6601 -0.3703
20203TIP3   OH282099   6.232   6.754   2.475  0.1163 -0.5255 -0.1831
20203TIP3    H182100   6.305   6.713   2.522  0.8266  0.5270 -0.3276
20203TIP3    H282101   6.169   6.775   2.544  0.9292  0.5439  0.2701
20204TIP3   OH282102   5.195   2.416   3.632 -0.1722  0.2751 -0.5156
20204TIP3    H182103   5.101   2.410   3.650  0.4549 -1.6671  2.8030
20204TIP3    H282104   5.225   2.489   3.684  0.5432 -0.8193  0.6542
20205TIP3   OH282105   6.263   1.305   2.939  0.3437  0.7841  0.2448
20205TIP3    H182106   6.296   1.364   2.872 -1.2761  0.5153 -0.8516
20205TIP3    H282107   6.270   1.356   3.021  1.9505  1.2659 -0.1572
20206TIP3   OH282108   4.479   3.928   3.477 -0.2189 -0.1988 -0.2196
20206TIP3    H182109   4.459   3.864   3.409  1.5136  0.2493 -1.2047
20206TIP3    H282110   4.542   3.988   3.436 -1.8195  2.2018  0.6161
20207TIP3   OH282111   2.110   3.158  12.343  0.4641  0.4781 -0.3692
20207TIP3    H182112   2.061   3.226  12.298  0.6335 -0.1546 -1.5274
20207TIP3    H282113   2.043   3.103  12.383  0.2267 -0.1303 -1.5735
20208TIP3   OH282114   6.860   0.156   1.086  0.8433 -0.0718 -0.6937
20208TIP3    H182115   6.805   0.204   1.146  1.2548 -0.8975  0.3819
20208TIP3    H282116   6.853   0.203   1.003  0.5105  1.2707  0.0714
20209TIP3   OH282117   3.602   3.375  14.077  0.4032 -0.1431 -0.4175
20209TIP3    H182118   3.675   3.316  14.057 -0.1295 -0.9403 -0.0783
20209TIP3    H282119   3.641   3.462  14.075  1.5256 -0.5927  0.4236
20210TIP3   OH282120   6.804   2.506  14.796 -0.0421  0.2386 -0.2983
20210TIP3    H182121   6.894   2.494  14.764  0.0453  0.0087  0.0386
20210TIP3    H282122   6.773   2.584  14.749  0.6352  0.8415  0.2234
20211TIP3   OH282123   4.551   4.181   1.436 -0.1026 -0.2412  0.2574
20211TIP3    H182124   4.456   4.173   1.439 -0.1296  0.2022  1.0611
20211TIP3    H282125   4.573   4.177   1.343 -0.9246 -0.1420  0.0503
20212TIP3   OH282126   6.649   2.818  15.961 -0.1120  0.6261  0.3469
20212TIP3    H182127   6.638   2.913  15.959  0.2782  0.6633  0.0074
20212TIP3    H282128   6.688   2.800  16.047  1.4827  0.9502 -0.2932
20213TIP3   OH282129   0.298   4.970  13.857 -0.5061 -0.5633 -0.2322
20213TIP3    H182130   0.363   4.987  13.925  1.0424 -0.9037 -1.5896
20213TIP3    H282131   0.241   5.047  13.859  1.6763  1.1443 -0.9725
20214TIP3   OH282132   4.364   3.658   4.192 -0.2069  0.1807  0.1400
20214TIP3    H182133   4.340   3.630   4.103 -0.0809  2.0175 -0.5034
20214TIP3    H282134   4.310   3.735   4.209  0.3284  0.3145  1.3622
20215TIP3   OH282135   0.988   5.160  12.511 -0.3974  0.0720 -0.1126
20215TIP3    H182136   0.981   5.088  12.574  0.0094 -0.9484 -1.1976
20215TIP3    H282137   0.948   5.126  12.431  1.2823  0.4491 -1.1421
20216TIP3   OH282138   0.891   3.580  16.566 -0.3496  0.6123  0.1978
20216TIP3    H182139   0.845   3.502  16.536  0.4752 -0.1969  1.0180
20216TIP3    H282140   0.934   3.614  16.487 -0.5037  0.1032 -0.1100
20217TIP3   OH282141   4.689   2.892  16.472  0.0768  0.2994 -0.1439
20217TIP3    H182142   4.613   2.842  16.442 -1.0757  2.2122 -0.5501
20217TIP3    H282143   4.715   2.943  16.395  1.7522 -0.2406  0.0204
20218TIP3   OH282144   4.076   3.846  13.631  0.5776 -0.3222  0.3056
20218TIP3    H182145   4.087   3.927  13.681  0.0936 -0.2848  0.3606
20218TIP3    H282146   4.029   3.874  13.552  1.8868 -0.2732 -0.4830
20219TIP3   OH282147   3.812   0.613  13.699 -0.3821 -0.4668  0.0070
20219TIP3    H182148   3.887   0.554  13.694  0.6928  0.5826  2.2962
20219TIP3    H282149   3.740   0.558  13.732  0.0635 -0.9454  0.1855
20220TIP3   OH282150   3.914   0.132   4.850 -0.5090  0.1081 -0.2666
20220TIP3    H182151   3.843   0.140   4.913 -0.7626 -1.7775 -0.2508
20220TIP3    H282152   3.992   0.118   4.904 -0.6566 -1.0486 -0.3204
20221TIP3   OH282153   6.140   4.701   5.118  0.5153  1.1027 -0.1676
20221TIP3    H182154   6.087   4.741   5.187 -2.8010 -0.2953 -1.6825
20221TIP3    H282155   6.172   4.775   5.067  0.5329  2.0333  1.1423
20222TIP3   OH282156   4.015   4.100  13.699  0.4829  0.8528 -0.2175
20222TIP3    H182157   3.990   4.067  13.785 -1.8775  2.1325 -0.3209
20222TIP3    H282158   4.070   4.176  13.718  0.3405  0.8686  0.1365
20223TIP3   OH282159   3.132   2.356   0.076  0.2642  0.3527  0.2262
20223TIP3    H182160   3.075   2.370   0.151 -0.4277 -0.1716 -0.1912
20223TIP3    H282161   3.138   2.442   0.033 -2.3224 -0.0728 -1.1893
20224TIP3   OH282162   1.072   6.102   5.152 -0.2442 -0.1544  0.7021
20224TIP3    H182163   1.091   6.160   5.225 -0.7169  3.0607 -1.4959
20224TIP3    H282164   0.982   6.074   5.166 -0.9705  1.9289  0.5335
20225TIP3   OH282165   3.393   4.078  10.960  0.2677 -0.0440  0.3002
20225TIP3    H182166   3.470   4.131  10.977 -0.4053  1.3555 -0.7816
20225TIP3    H282167   3.362   4.107  10.874 -1.5574 -0.4047  0.7817
20226TIP3   OH282168   4.733   5.216   2.940 -1.3818 -0.4538 -0.2148
20226TIP3    H182169   4.674   5.218   3.015 -0.2284  2.6773  0.7907
20226TIP3    H282170   4.805   5.160   2.968 -0.6458  1.1886  1.4017
20227TIP3   OH282171   2.771   6.204  11.813  0.3068 -0.2609  0.2493
20227TIP3    H182172   2.804   6.293  11.798 -0.9652  0.0471 -0.9388
20227TIP3    H282173   2.833   6.166  11.876  0.3840  1.7357  1.4677
20228TIP3   OH282174   5.187   0.083   5.133  0.0971  0.0718 -0.6868
20228TIP3    H182175   5.186   0.179   5.125  1.1139  0.1516 -0.0183
20228TIP3    H282176   5.264   0.056   5.083 -0.1928 -0.3994 -0.8801
20229TIP3   OH282177   1.302   3.379  13.788 -0.0394 -0.1979 -0.0033
20229TIP3    H182178   1.236   3.321  13.749  0.8911 -0.2671 -1.5342
20229TIP3    H282179   1.374   3.320  13.813  0.8703  0.2485 -1.4762
20230TIP3   OH282180   5.912   0.539  15.584  0.0868  0.4660  0.4390
20230TIP3    H182181   5.817   0.545  15.595 -0.1267 -1.8281  0.2390
20230TIP3    H282182   5.927   0.574  15.496 -0.6651  0.2083  0.1978
20231TIP3   OH282183   3.706   3.665   3.416 -1.0660  0.3029  0.1489
20231TIP3    H182184   3.624   3.616   3.419 -0.8957  0.0569  0.9314
20231TIP3    H282185   3.769   3.604   3.376 -0.8634 -0.1291  1.0867
20232TIP3   OH282186   3.906   0.246   4.133  0.1685 -0.0453 -0.3668
20232TIP3    H182187   3.899   0.240   4.038 -0.8984  0.9803 -0.3741
20232TIP3    H282188   3.933   0.336   4.150  2.3076 -0.7417  0.2459
20233TIP3   OH282189   0.470   5.365  13.455  0.4675 -0.2044  0.0986
20233TIP3    H182190   0.420   5.408  13.525 -0.5290  0.6686 -1.1177
20233TIP3    H282191   0.489   5.278  13.490 -2.2053 -0.7182  0.5131
20234TIP3   OH282192   4.875   4.184  12.104 -0.3541 -0.4029  0.6121
20234TIP3    H182193   4.964   4.161  12.076  0.3626  0.9201  1.6173
20234TIP3    H282194   4.884   4.274  12.137 -2.4418  0.4273 -0.8956
20235TIP3   OH282195   4.365   0.775   3.875  0.3529  0.4035  0.3992
20235TIP3    H182196   4.332   0.737   3.956 -0.0384  1.7945  0.9203
20235TIP3    H282197   4.317   0.857   3.866  2.9760  2.0700  0.6595
20236TIP3   OH282198   0.239   2.241   0.691  0.5774  0.2226  0.4343
20236TIP3    H182199   0.144   2.229   0.694  0.5370  0.2792 -0.4033
20236TIP3    H282200   0.267   2.191   0.615  1.3821 -0.7960  1.3548
20237TIP3   OH282201   6.105   2.013   2.405 -0.2017 -0.2091 -0.7389
20237TIP3    H182202   6.084   1.969   2.323 -0.0363 -0.0683 -0.8592
20237TIP3    H282203   6.074   2.102   2.393 -1.5835 -0.5703 -0.0607
20238TIP3   OH282204   5.227   5.281   1.303  0.3958  0.0783  0.3153
20238TIP3    H182205   5.259   5.258   1.216 -0.1097 -0.6554  0.3123
20238TIP3    H282206   5.235   5.376   1.307 -0.1760  0.1931 -0.7820
20239TIP3   OH282207   4.043   0.118  11.183 -0.2063  0.0900 -0.2368
20239TIP3    H182208   4.127   0.114  11.137  1.4841  2.6351  2.2896
20239TIP3    H282209   4.046   0.200  11.232 -3.8026 -0.1980  0.7821
20240TIP3   OH282210   5.763   3.656   4.487 -0.3875 -0.3461  0.0898
20240TIP3    H182211   5.729   3.594   4.422  0.4893 -0.8426  0.0855
20240TIP3    H282212   5.687   3.710   4.511 -1.0602 -1.1096 -0.2604
20241TIP3   OH282213   6.525   3.260  15.109  0.4850  0.2688 -0.5051
20241TIP3    H182214   6.539   3.235  15.018  1.1319 -1.2895  0.0031
20241TIP3    H282215   6.488   3.182  15.151  1.3232  0.5531  0.8341
20242TIP3   OH282216   3.383   6.310  13.649 -0.2044  0.6562  0.6636
20242TIP3    H182217   3.405   6.397  13.680  2.1380 -0.0547  1.1503
20242TIP3    H282218   3.398   6.313  13.555  0.7090  0.5643  0.7992
20243TIP3   OH282219   1.471   1.103   3.374 -0.0171  0.7369 -0.1250
20243TIP3    H182220   1.500   1.012   3.384 -0.6827 -0.0500 -3.7178
20243TIP3    H282221   1.548   1.155   3.396  1.1962 -0.8382 -0.4481
20244TIP3   OH282222   6.016   5.684   5.825 -0.2397 -0.1406  0.1695
20244TIP3    H182223   6.104   5.668   5.792 -0.6524 -0.0437 -1.0529
20244TIP3    H282224   6.027   5.698   5.919  1.4086  2.3946 -0.2919
20245TIP3   OH282225   3.041   0.361  14.288 -0.1662 -0.1759  0.2128
20245TIP3    H182226   3.066   0.329  14.374  2.2705 -1.0145 -0.7104
20245TIP3    H282227   3.102   0.433  14.270 -1.2176  0.5836 -0.4882
20246TIP3   OH282228   2.871   0.457  16.650 -0.0863 -0.6048  0.1257
20246TIP3    H182229   2.951   0.405  16.654  0.7050  0.4617 -0.8626
20246TIP3    H282230   2.902   0.548  16.647 -1.4266 -0.0415  1.9443
20247TIP3   OH282231   0.191   0.145   0.164  0.1548 -0.1857  0.3868
20247TIP3    H182232   0.187   0.082   0.092 -2.2520  2.5142 -2.0811
20247TIP3    H282233   0.147   0.101   0.237 -1.0921 -1.4991 -1.0947
20248TIP3   OH282234   2.818   6.389  13.661 -0.2198 -0.4894  0.0207
20248TIP3    H182235   2.782   6.401  13.574 -1.7673  0.7768  0.7977
20248TIP3    H282236   2.911   6.373  13.646 -0.2264  0.8618 -1.7995
20249TIP3   OH282237   3.264   5.777  15.096  0.2166  0.1547  0.1293
20249TIP3    H182238   3.176   5.769  15.059 -0.0181 -0.9786  0.8882
20249TIP3    H282239   3.308   5.841  15.040 -0.6913 -0.1978 -1.0277
20250TIP3   OH282240   1.741   3.423  14.264 -0.3346  0.0879 -0.1143
20250TIP3    H182241   1.693   3.505  14.276 -0.2202  0.3583 -1.3989
20250TIP3    H282242   1.828   3.450  14.235 -0.5199 -0.5015 -1.2645
20251TIP3   OH282243   6.739   3.490  11.812 -0.2433 -0.0013 -0.3769
20251TIP3    H182244   6.785   3.570  11.839 -1.3587  0.9408 -1.1810
20251TIP3    H282245   6.761   3.426  11.880  3.9576 -0.3191 -1.7214
20252TIP3   OH282246   6.425   3.918   3.305 -0.1194 -0.0197 -0.2555
20252TIP3    H182247   6.487   3.990   3.320  0.7341 -0.5493 -1.1672
20252TIP3    H282248   6.466   3.842   3.346 -0.7416 -0.1120  0.1940
20253TIP3   OH282249   6.105   4.389  14.021 -0.1431 -0.1150 -0.0556
20253TIP3    H182250   6.022   4.351  14.049  0.4326 -0.9479  0.5440
20253TIP3    H282251   6.158   4.314  13.995  0.3426  0.4313 -0.6568
20254TIP3   OH282252   1.909   4.308  16.691 -0.1448  0.5202 -0.1355
20254TIP3    H182253   1.978   4.257  16.734 -1.7598 -0.9386  0.8554
20254TIP3    H282254   1.902   4.388  16.743 -0.0637  0.1068  0.5224
20255TIP3   OH282255   0.946   3.542  12.633 -0.2611 -0.0516 -0.1561
20255TIP3    H182256   0.996   3.601  12.577  2.1009 -0.5626  1.2672
20255TIP3    H282257   0.909   3.598  12.701 -0.4532  0.1566 -0.4326
20256TIP3   OH282258   2.519   4.617  15.106 -1.2236 -0.0625 -0.3950
20256TIP3    H182259   2.479   4.531  15.090 -1.1617 -0.4822  1.4651
20256TIP3    H282260   2.505   4.665  15.025 -3.5551 -0.9452 -0.6004
20257TIP3   OH282261   4.317   1.707   4.166 -0.4950 -0.2652 -0.4785
20257TIP3    H182262   4.376   1.746   4.232  0.0350 -1.5068 -0.1859
20257TIP3    H282263   4.236   1.757   4.174  0.0667  0.5994  0.0562
20258TIP3   OH282264   2.603   2.847  11.029  0.0627 -0.5700  0.4646
20258TIP3    H182265   2.610   2.938  11.000  0.7272 -0.5924  0.5251
20258TIP3    H282266   2.663   2.799  10.972  1.8036 -0.5393  2.1436
20259TIP3   OH282267   0.994   3.917  16.571 -0.0473  0.5372  0.6136
20259TIP3    H182268   0.914   3.911  16.518  1.1718  0.0806 -1.2590
20259TIP3    H282269   1.045   3.840  16.547  0.0557 -0.3839  3.4380
20260TIP3   OH282270   3.074   2.075  11.682 -0.0965 -0.0847 -0.2699
20260TIP3    H182271   3.052   2.007  11.619  0.5752  0.0465 -0.6456
20260TIP3    H282272   3.130   2.136  11.634  0.4768 -0.0182  0.4609
20261LIG      S82273   3.288   3.667  16.268  0.1896  0.0487 -0.1031
20261LIG     N182274   2.896   3.314  16.250 -0.2747  0.2752 -0.2658
20261LIG     N282275   3.090   3.500  16.115 -0.3852 -0.2085  0.0376
20261LIG     N382276   2.575   3.024  16.483  0.2802 -0.4424 -0.1968
20261LIG     C182277   2.833   3.390  16.158  0.6393  0.7615  0.1567
20261LIG     C282278   2.892   3.363  16.019 -0.8619  0.5974  0.4113
20261LIG     C382279   3.045   3.399  16.013 -0.1310 -0.0960  0.0990
20261LIG     C482280   3.098   3.470  16.256 -0.0918  0.0815 -0.5391
20261LIG     C582281   3.014   3.372  16.313  0.9395 -0.0115  0.3098
20261LIG     C682282   2.863   3.166  16.261 -0.6314  0.6029  1.0556
20261LIG     C782283   2.733   3.158  16.341 -0.3343  0.3527 -0.6667
20261LIG     C882284   3.081   3.646  16.093  0.5753  0.3264  0.5091
20261LIG     C982285   3.206   3.525  16.334  0.2363 -0.6493 -0.4531
20261LIG    C1082286   3.043   3.321  16.435  0.9039 -0.4495 -0.1714
20261LIG    C1182287   2.707   3.031  16.430 -0.4042 -0.1422  0.8633
20261LIG    C1282288   3.167   3.734  16.166 -0.1250  0.4939 -0.6260
20261LIG    C1382289   3.224   3.475  16.459  0.0631  0.3216 -0.1293
20261LIG    C1482290   3.150   3.371  16.510  0.3729  0.6808 -0.2953
20261LIG    C1582291   2.970   3.696  16.017  0.0879  0.0155  0.2932
20261LIG    C1682292   3.137   3.866  16.179 -0.8809  0.5157  0.5476
20261LIG    C1782293   2.946   3.836  16.026  0.7731 -0.1413  0.4345
20261LIG    C1882294   3.029   3.915  16.104 -0.1924 -0.2495 -0.2479
20261LIG    C1982295   2.539   3.135  16.576  0.2805  0.0892  0.5225
20261LIG    C2082296   2.476   2.986  16.387  0.1238 -0.0675  0.2845
20261LIG     H182297   2.830   3.500  16.175  0.1285  0.7781 -0.0054
20261LIG     H282298   2.728   3.354  16.150  1.0837 -0.8071  1.0148
20261LIG     H382299   2.839   3.431  15.950  0.7421  2.4308  0.8823
20261LIG     H482300   2.874   3.260  15.982 -2.5538  1.2616 -0.7175
20261LIG     H582301   3.107   3.309  16.032 -2.3771 -1.4280  1.5155
20261LIG     H682302   3.061   3.430  15.907  0.0657  0.4637  0.2897
20261LIG     H782303   2.950   3.112  16.305  0.5402  0.8752 -0.7979
20261LIG     H882304   2.856   3.140  16.153  0.4265  1.8212  0.6754
20261LIG     H982305   2.643   3.172  16.279 -0.3000  0.3542 -0.7174
20261LIG    H1082306   2.715   3.246  16.407 -1.3005 -0.2928 -0.0561
20261LIG    H1182307   2.984   3.239  16.473 -2.7010  1.2099 -1.6655
20261LIG    H1282308   2.742   2.940  16.376 -1.4726 -0.6354  0.9934
20261LIG    H1382309   2.776   3.043  16.516 -0.2838  1.4620  0.5891
20261LIG    H1482310   3.306   3.515  16.516 -1.1877  0.6859  1.4941
20261LIG    H1582311   3.159   3.346  16.614 -0.0397 -0.9457 -0.6294
20261LIG    H1682312   2.914   3.637  15.946 -0.6979 -1.0980  1.7920
20261LIG    H1782313   3.211   3.928  16.228  0.2588  0.8225 -1.4652
20261LIG    H1882314   2.860   3.875  15.974  0.5864  1.3928  1.8307
20261LIG    H1982315   3.015   4.023  16.104 -0.2078 -0.2325 -1.9519
20261LIG    H2082316   2.570   3.232  16.531 -1.8119 -0.1452 -1.6455
20261LIG    H2182317   2.582   3.136  16.678 -0.3718  0.0923  0.8016
20261LIG    H2282318   2.430   3.153  16.576 -0.0683 -1.7695 -0.2598
20261LIG    H2382319   2.442   3.071  16.324  2.6019  1.4418  0.8335
20261LIG    H2482320   2.391   2.932  16.433 -0.3772  1.0536  0.6951
20261LIG    H2582321   2.530   2.914  16.321  0.3704  0.1956  0.1993
   6.86580   6.86580  17.09830
